# vtk DataFile Version 5.1
vtk output
ASCII
DATASET UNSTRUCTURED_GRID
POINTS 9610 double
0.1016 1.5 0.27799999714 0.1016 1.45 0.27799999714 0.1016 1.4 0.27700001001 
0.1016 1.35 0.27399998903 0.1016 1.3 0.27399998903 0.1016 1.25 0.27300000191 
0.1016 1.2 0.27200001478 0.1016 1.15 0.27099999785 0.1016 1.1 0.25 
0.1016 1.05 0.2349999994 0.1016 1 0.23299999535 0.1016 0.95 0.22200000286 
0.1016 0.9 0.19799999893 0.1016 0.85 0.18400000036 0.1016 0.8 0.18500000238 
0.1016 0.75 0.2045122683 0.1016 0.7 0.21481634676 0.1016 0.65 0.22511811554 
0.1016 0.6 0.24067126215 0.1016 0.55 0.25612765551 0.1016 0.5 0.26262491941 
0.1016 0.45 0.26525467634 0.1016 0.4 0.26647254825 0.1016 0.35 0.26672193408 
0.1016 0.3 0.26778841019 0.1016 0.25 0.27249374986 0.1016 0.2 0.28212246299 
0.1016 0.15 0.28919026256 0.1016 0.1 0.29249885678 0.1016 0.05 0.2947755754 
0.1016 0 0.29728108644 5.08 1.5 0.28700000048 5.08 1.45 0.28700000048 
5.08 1.4 0.28700000048 5.08 1.35 0.28700000048 5.08 1.3 0.28700000048 
5.08 1.25 0.28700000048 5.08 1.2 0.28700000048 5.08 1.15 0.28700000048 
5.08 1.1 0.28700000048 5.08 1.05 0.28700000048 5.08 1 0.28700000048 
5.08 0.95 0.28700000048 5.08 0.9 0.28700000048 5.08 0.85 0.28700000048 
5.08 0.8 0.28700000048 5.08 0.75 0.28700000048 5.08 0.7 0.28700000048 
5.08 0.65 0.28700000048 5.08 0.6 0.28700000048 5.08 0.55 0.28700000048 
5.08 0.5 0.28700000048 5.08 0.45 0.28700000048 5.08 0.4 0.28700000048 
5.08 0.35 0.28700000048 5.08 0.3 0.28700000048 5.08 0.25 0.28700000048 
5.08 0.2 0.28700000048 5.08 0.15 0.28700000048 5.08 0.1 0.28700000048 
5.08 0.05 0.28700000048 5.08 0 0.28700000048 0.151384 1.5 0.27896001935 
0.151384 1.45 0.27803999186 0.151384 1.4 0.27707999945 0.151384 1.35 0.27500000596 
0.151384 1.3 0.27403998375 0.151384 1.25 0.27303999662 0.151384 1.2 0.2720400095 
0.151384 1.15 0.27107998729 0.151384 1.1 0.26104000211 0.151384 1.05 0.23612000048 
0.151384 1 0.22611999512 0.151384 0.95 0.23183999956 0.151384 0.9 0.21568000317 
0.151384 0.85 0.19767999649 0.151384 0.8 0.18184000254 0.151384 0.75 0.2067784369 
0.151384 0.7 0.21487820148 0.151384 0.65 0.22977133095 0.151384 0.6 0.24776650965 
0.151384 0.55 0.26576644182 0.151384 0.5 0.26593068242 0.151384 0.45 0.26793852448 
0.151384 0.4 0.26991698146 0.151384 0.35 0.27089071274 0.151384 0.3 0.27188137174 
0.151384 0.25 0.27394196391 0.151384 0.2 0.28299099207 0.151384 0.15 0.28608375788 
0.151384 0.1 0.28613424301 0.151384 0.05 0.28810456395 0.151384 0 0.28913581371 
0.201168 1.5 0.27992001176 0.201168 1.45 0.27892002463 0.201168 1.4 0.27607998252 
0.201168 1.35 0.27583998442 0.201168 1.3 0.27300000191 0.201168 1.25 0.27200001478 
0.201168 1.2 0.27107998729 0.201168 1.15 0.27008000016 0.201168 1.1 0.27000001073 
0.201168 1.05 0.26095998287 0.201168 1 0.24079999328 0.201168 0.95 0.23143999279 
0.201168 0.9 0.23235999048 0.201168 0.85 0.22803999484 0.201168 0.8 0.22200000286 
0.201168 0.75 0.22779999673 0.201168 0.7 0.23520000279 0.201168 0.65 0.25595998764 
0.201168 0.6 0.26644000411 0.201168 0.55 0.26715999842 0.201168 0.5 0.26707997918 
0.201168 0.45 0.26807999611 0.201168 0.4 0.27107998729 0.201168 0.35 0.26940000057 
0.201168 0.3 0.27507999539 0.201168 0.25 0.27623999119 0.201168 0.2 0.27631998062 
0.201168 0.15 0.27831998467 0.201168 0.1 0.27831998467 0.201168 0.05 0.27871999145 
0.201168 0 0.27871999145 0.250952 1.5 0.27988001704 0.250952 1.45 0.27888000011 
0.250952 1.4 0.27700001001 0.250952 1.35 0.27487999201 0.250952 1.3 0.27211999893 
0.250952 1.25 0.27099999785 0.250952 1.2 0.27000001073 0.250952 1.15 0.27000001073 
0.250952 1.1 0.2689999938 0.250952 1.05 0.26811999083 0.250952 1 0.26796001196 
0.250952 0.95 0.25367999077 0.250952 0.9 0.25256001949 0.250952 0.85 0.25356000662 
0.250952 0.8 0.25356000662 0.250952 0.75 0.25356000662 0.250952 0.7 0.25927999616 
0.250952 0.65 0.26488000154 0.250952 0.6 0.26587998867 0.250952 0.55 0.26587998867 
0.250952 0.5 0.26600000262 0.250952 0.45 0.26600000262 0.250952 0.4 0.26624000072 
0.250952 0.35 0.2671200037 0.250952 0.3 0.27024000883 0.250952 0.25 0.27412000299 
0.250952 0.2 0.27336001396 0.250952 0.15 0.27224001288 0.250952 0.1 0.27423998713 
0.250952 0.05 0.27799999714 0.250952 0 0.27711999416 0.300736 1.5 0.27823337913 
0.300736 1.45 0.27539864182 0.300736 1.4 0.27519831061 0.300736 1.35 0.27320209146 
0.300736 1.3 0.27107205987 0.300736 1.25 0.27008360624 0.300736 1.2 0.27003148198 
0.300736 1.15 0.26911726594 0.300736 1.1 0.26903182268 0.300736 1.05 0.26903682947 
0.300736 1 0.27041533589 0.300736 0.95 0.26917380095 0.300736 0.9 0.26718229055 
0.300736 0.85 0.26727190614 0.300736 0.8 0.26908791065 0.300736 0.75 0.26816695929 
0.300736 0.7 0.2674638629 0.300736 0.65 0.26775640249 0.300736 0.6 0.26785179973 
0.300736 0.55 0.26693767309 0.300736 0.5 0.26602077484 0.300736 0.45 0.26600837708 
0.300736 0.4 0.26504558325 0.300736 0.35 0.26512911916 0.300736 0.3 0.26630565524 
0.300736 0.25 0.26938304305 0.300736 0.2 0.27110809088 0.300736 0.15 0.27194857597 
0.300736 0.1 0.27395698428 0.300736 0.05 0.27524378896 0.300736 0 0.27338784933 
0.35052 1.5 0.27526089549 0.35052 1.45 0.27314534783 0.35052 1.4 0.27315345407 
0.35052 1.35 0.27207753062 0.35052 1.3 0.27098450065 0.35052 1.25 0.26999154687 
0.35052 1.2 0.26817765832 0.35052 1.15 0.26716408134 0.35052 1.1 0.26626455784 
0.35052 1.05 0.26624310017 0.35052 1 0.26633134484 0.35052 0.95 0.27014350891 
0.35052 0.9 0.26820877194 0.35052 0.85 0.26816654205 0.35052 0.8 0.27017095685 
0.35052 0.75 0.26918488741 0.35052 0.7 0.26902464032 0.35052 0.65 0.26897400618 
0.35052 0.6 0.26895803213 0.35052 0.55 0.26793181896 0.35052 0.5 0.2651130259 
0.35052 0.45 0.26508533955 0.35052 0.4 0.2649885118 0.35052 0.35 0.26496016979 
0.35052 0.3 0.26504781842 0.35052 0.25 0.26713472605 0.35052 0.2 0.2691719234 
0.35052 0.15 0.27200803161 0.35052 0.1 0.27401301265 0.35052 0.05 0.27487105131 
0.35052 0 0.26740676165 0.400304 1.5 0.27405613661 0.400304 1.45 0.27296423912 
0.400304 1.4 0.27208968997 0.400304 1.35 0.27112090588 0.400304 1.3 0.27100539207 
0.400304 1.25 0.26913246512 0.400304 1.2 0.26885080338 0.400304 1.15 0.26784959435 
0.400304 1.1 0.26771229506 0.400304 1.05 0.26684933901 0.400304 1 0.26862066984 
0.400304 0.95 0.26731386781 0.400304 0.9 0.26706182957 0.400304 0.85 0.26883202791 
0.400304 0.8 0.26994112134 0.400304 0.75 0.26897677779 0.400304 0.7 0.26814895868 
0.400304 0.65 0.26815739274 0.400304 0.6 0.2672868371 0.400304 0.55 0.26626873016 
0.400304 0.5 0.26500949264 0.400304 0.45 0.26500403881 0.400304 0.4 0.26503705978 
0.400304 0.35 0.26502510905 0.400304 0.3 0.26499423385 0.400304 0.25 0.26608005166 
0.400304 0.2 0.26984789968 0.400304 0.15 0.27198529243 0.400304 0.1 0.27401769161 
0.400304 0.05 0.27589398623 0.400304 0 0.27579978108 0.450088 1.5 0.27487853169 
0.450088 1.45 0.27300924063 0.450088 1.4 0.27196782827 0.450088 1.35 0.27096572518 
0.450088 1.3 0.27091893554 0.450088 1.25 0.26895684004 0.450088 1.2 0.26896712184 
0.450088 1.15 0.26799425483 0.450088 1.1 0.26793712378 0.450088 1.05 0.26694592834 
0.450088 1 0.26723736525 0.450088 0.95 0.26691877842 0.450088 0.9 0.26866519451 
0.450088 0.85 0.26900038123 0.450088 0.8 0.26999431849 0.450088 0.75 0.26897796988 
0.450088 0.7 0.266233325 0.450088 0.65 0.26705792546 0.450088 0.6 0.26606434584 
0.450088 0.55 0.26505666971 0.450088 0.5 0.26496213675 0.450088 0.45 0.26409879327 
0.450088 0.4 0.26406288147 0.450088 0.35 0.26487588882 0.450088 0.3 0.26574164629 
0.450088 0.25 0.26764389873 0.450088 0.2 0.26994329691 0.450088 0.15 0.27278742194 
0.450088 0.1 0.2747913301 0.450088 0.05 0.2742908299 0.450088 0 0.27453771234 
0.499872 1.5 0.27483248711 0.499872 1.45 0.27295619249 0.499872 1.4 0.27206927538 
0.499872 1.35 0.27114087343 0.499872 1.3 0.27196747065 0.499872 1.25 0.27001109719 
0.499872 1.2 0.26914566755 0.499872 1.15 0.26902413368 0.499872 1.1 0.26990282536 
0.499872 1.05 0.27060073614 0.499872 1 0.26724275947 0.499872 0.95 0.26813530922 
0.499872 0.9 0.26768729091 0.499872 0.85 0.2685161829 0.499872 0.8 0.26865169406 
0.499872 0.75 0.26761510968 0.499872 0.7 0.26628440619 0.499872 0.65 0.26639312506 
0.499872 0.6 0.26539412141 0.499872 0.55 0.26521396637 0.499872 0.5 0.26438635588 
0.499872 0.45 0.26420968771 0.499872 0.4 0.26505717635 0.499872 0.35 0.26775664091 
0.499872 0.3 0.26877567172 0.499872 0.25 0.2690743506 0.499872 0.2 0.27106058598 
0.499872 0.15 0.27491080761 0.499872 0.1 0.2759885788 0.499872 0.05 0.27566212416 
0.499872 0 0.27723628283 0.549656 1.5 0.28331390023 0.549656 1.45 0.27410677075 
0.549656 1.4 0.27011102438 0.549656 1.35 0.26829081774 0.549656 1.3 0.26799172163 
0.549656 1.25 0.26644396782 0.549656 1.2 0.26493024826 0.549656 1.15 0.26424628496 
0.549656 1.1 0.26394695044 0.549656 1.05 0.26264882088 0.549656 1 0.26012665033 
0.549656 0.95 0.25967356563 0.549656 0.9 0.25849857926 0.549656 0.85 0.25834575295 
0.549656 0.8 0.2588031292 0.549656 0.75 0.25862336159 0.549656 0.7 0.25786352158 
0.549656 0.65 0.25850197673 0.549656 0.6 0.25904914737 0.549656 0.55 0.25924310088 
0.549656 0.5 0.25800010562 0.549656 0.45 0.25790318847 0.549656 0.4 0.25916674733 
0.549656 0.35 0.26118278503 0.549656 0.3 0.26323804259 0.549656 0.25 0.26429915428 
0.549656 0.2 0.26596337557 0.549656 0.15 0.26853653789 0.549656 0.1 0.27191719413 
0.549656 0.05 0.27562186122 0.549656 0 0.27852463722 0.59944 1.5 0.29372912645 
0.59944 1.45 0.27702820301 0.59944 1.4 0.27546221018 0.59944 1.35 0.27253469825 
0.59944 1.3 0.27227041125 0.59944 1.25 0.27113121748 0.59944 1.2 0.26991003752 
0.59944 1.15 0.26881447434 0.59944 1.1 0.26765733957 0.59944 1.05 0.26465466619 
0.59944 1 0.26420971751 0.59944 0.95 0.26405251026 0.59944 0.9 0.26293551922 
0.59944 0.85 0.26197180152 0.59944 0.8 0.26296165586 0.59944 0.75 0.26381227374 
0.59944 0.7 0.26203963161 0.59944 0.65 0.26390108466 0.59944 0.6 0.26507610083 
0.59944 0.55 0.265953511 0.59944 0.5 0.26401129365 0.59944 0.45 0.26394769549 
0.59944 0.4 0.26499330997 0.59944 0.35 0.26453638077 0.59944 0.3 0.26755586267 
[...]
CELL_DATA 9270
FIELD FieldData 7
B_Stress_n_p_m2 1 9270 float
0.238609 0.273053 0.279658 0.279985 0.280318 0.280075 0.279874 0.279597 0.269625 
0.263557 0.266073 0.266148 0.259914 0.257909 0.260196 0.207853 0.148711 0.119778 
0.100519 0.0857923 0.0745808 0.0664649 0.0604007 0.0560645 0.0525351 0.049581 0.04675 
0.0428088 0.037273 0.0275918 0.226232 0.259938 0.26602 0.266131 0.265288 0.26438 
0.263387 0.262293 0.25947 0.251573 0.243473 0.240324 0.233457 0.223881 0.203965 
0.165076 0.133357 0.110213 0.0918096 0.0771041 0.0653987 0.0570389 0.0509075 0.0464191 
0.042854 0.0393496 0.0358924 0.0312593 0.0245832 0.0125566 0.214367 0.248229 0.253632 
0.253539 0.252115 0.250924 0.249611 0.247939 0.246983 0.245487 0.238463 0.229866 
0.223277 0.214095 0.197705 0.170211 0.144684 0.123565 0.104895 0.0894378 0.0780589 
0.0694085 0.0630558 0.0580745 0.0543418 0.0504791 0.0458505 0.0398809 0.0311754 0.0174987 
0.201622 0.235268 0.241343 0.240975 0.239548 0.23797 0.236151 0.234189 0.23193 
0.229892 0.228051 0.220493 0.211829 0.20101 0.185313 0.163807 0.143139 0.123644 
0.106784 0.0931738 0.0826137 0.0743175 0.0678488 0.0629345 0.0587828 0.0549232 0.050197 
0.0434229 0.0333303 0.0182573 0.189911 0.223064 0.229536 0.229598 0.228146 0.226238 
0.223973 0.221254 0.218412 0.215431 0.211559 0.206436 0.198195 0.187598 0.174018 
0.157369 0.140312 0.124123 0.109887 0.0978359 0.0881014 0.0803597 0.074105 0.0691119 
0.0648244 0.0608177 0.0559794 0.0489231 0.0379659 0.0216661 0.179798 0.213037 0.219421 
0.219648 0.218206 0.216367 0.213789 0.210903 0.207547 0.203939 0.198899 0.193432 
0.185663 0.176032 0.164192 0.150479 0.136757 0.123386 0.111328 0.101004 0.0922222 
0.0851064 0.0793008 0.0745189 0.0703675 0.0663629 0.0614432 0.0541449 0.0424958 0.0252321 
0.170797 0.204238 0.210629 0.210825 0.209342 0.207174 0.204917 0.202067 0.198797 
0.194297 0.189606 0.183314 0.176187 0.167507 0.157015 0.145481 0.133874 0.122705 
0.112462 0.103527 0.095918 0.0895018 0.0842624 0.0798341 0.0759044 0.0719806 0.067235 
0.0597225 0.0474599 0.0290056 0.162344 0.195501 0.201705 0.201676 0.199986 0.197467 
0.194961 0.192094 0.188645 0.183952 0.178621 0.172624 0.165991 0.15802 0.149066 
0.139562 0.129866 0.12072 0.112155 0.104455 0.0978907 0.0922949 0.0877118 0.0838362 
0.0802046 0.0765797 0.0719863 0.0648437 0.0525725 0.0330122 0.157257 0.18936 0.194509 
0.193734 0.191742 0.188953 0.185849 0.182478 0.1784 0.173987 0.168386 0.16268 
0.156124 0.149297 0.141791 0.133876 0.126234 0.118771 0.111661 0.105043 0.0991929 
0.0942943 0.0901121 0.0867786 0.0835704 0.0801491 0.0757739 0.0692728 0.0574498 0.0371352 
0.157586 0.188534 0.19354 0.192563 0.190494 0.18793 0.184837 0.181284 0.177079 
0.172498 0.167603 0.162152 0.156116 0.149767 0.143179 0.136346 0.12957 0.123088 
0.116876 0.110942 0.10548 0.100757 0.0966495 0.0931117 0.0900009 0.0866549 0.0822472 
0.0755041 0.0634902 0.04227 0.15593 0.188149 0.194919 0.194736 0.193207 0.191159 
0.18861 0.185547 0.182027 0.177828 0.173464 0.16851 0.163022 0.156996 0.150779 
0.144536 0.138021 0.13185 0.125884 0.120376 0.115188 0.110551 0.106439 0.102527 
0.0991371 0.0955908 0.0910999 0.0838722 0.0709568 0.0482422 0.150199 0.184257 0.191512 
0.192034 0.190728 0.188926 0.186665 0.183946 0.180787 0.177297 0.17322 0.168631 
0.163685 0.158353 0.15264 0.146825 0.14114 0.135362 0.129831 0.124649 0.120007 
0.115687 0.111715 0.10814 0.104681 0.101234 0.0969108 0.0901341 0.0771021 0.0531249 
0.145961 0.179104 0.186169 0.186567 0.18532 0.183559 0.181381 0.178806 0.175836 
0.172495 0.168741 0.164592 0.160112 0.155335 0.150327 0.145222 0.140131 0.135083 
0.130216 0.125616 0.12136 0.117424 0.113818 0.110533 0.107452 0.104359 0.100466 
0.0941678 0.0815998 0.0570593 0.141762 0.174635 0.181657 0.18206 0.180874 0.179198 
0.177147 0.174746 0.171995 0.168908 0.165473 0.161715 0.15768 0.153406 0.148955 
0.14442 0.139884 0.135398 0.131056 0.126928 0.123071 0.119491 0.116203 0.113205 
0.110407 0.107617 0.1041 0.0982521 0.0860188 0.0608565 0.13788 0.170551 0.177552 
0.177966 0.176834 0.175245 0.173318 0.171081 0.168535 0.165691 0.162554 0.159148 
0.155509 0.151677 0.147706 0.143664 0.139616 0.135618 0.131738 0.128031 0.124544 
0.121298 0.118312 0.115589 0.113064 0.110562 0.107399 0.101973 0.0900656 0.0643616 
0.134329 0.166848 0.173853 0.174298 0.173226 0.17173 0.169928 0.167854 0.165507 
0.162898 0.160039 0.156953 0.153671 0.150231 0.146677 0.143063 0.139444 0.13587 
0.132394 0.129062 0.125915 0.122978 0.120272 0.117807 0.115531 0.113293 0.110452 
0.105414 0.0938164 0.0676344 0.131108 0.16349 0.17051 0.170995 0.169989 0.168586 
0.166909 0.164992 0.162832 0.160445 0.157843 0.155047 0.152085 0.148991 0.145804 
0.142566 0.139325 0.136122 0.133004 0.130008 0.12717 0.124518 0.122071 0.119844 
0.117796 0.115799 0.113248 0.108568 0.0972717 0.0706749 0.128203 0.160452 0.16749 
0.16802 0.167081 0.165773 0.164217 0.162449 0.160468 0.158287 0.15592 0.153387 
0.150713 0.147927 0.145063 0.142158 0.139249 0.136376 0.133575 0.13088 0.128323 
0.125931 0.123722 0.121714 0.119875 0.118094 0.115806 0.111453 0.10045 0.0734973 
0.125594 0.157708 0.164762 0.165336 0.164467 0.163252 0.161812 0.160185 0.15837 
0.15638 0.154228 0.151933 0.149517 0.147007 0.14443 0.141819 0.139207 0.136626 
0.134108 0.131684 0.129381 0.127225 0.125233 0.123426 0.121777 0.120191 0.118137 
0.114086 0.103369 0.0761131 0.123259 0.155233 0.162298 0.162915 0.162114 0.160988 
0.159659 0.158165 0.156504 0.15469 0.152735 0.150656 0.148472 0.146207 0.143887 
0.141538 0.139189 0.136869 0.134604 0.132423 0.13035 0.128408 0.126615 0.12499 
0.123512 0.122101 0.120259 0.116484 0.106044 0.0785349 0.121176 0.153004 0.160072 
0.16073 0.159994 0.158954 0.157729 0.156359 0.154841 0.153188 0.151412 0.149528 
0.147553 0.14551 0.143418 0.141303 0.13919 0.137102 0.135065 0.133102 0.131236 
0.129488 0.127875 0.126416 0.125093 0.123839 0.122186 0.118665 0.108493 0.0807754 
0.119323 0.150998 0.158062 0.158756 0.158083 0.157123 0.155996 0.154741 0.153354 
0.15185 0.150236 0.148529 0.146743 0.144897 0.143011 0.141106 0.139202 0.137323 
0.13549 0.133724 0.132045 0.130473 0.129022 0.127713 0.126531 0.125416 0.123933 
0.120645 0.110733 0.0828475 0.117681 0.149195 0.156246 0.156973 0.156358 0.155473 
0.154437 0.153289 0.152022 0.150653 0.149188 0.147641 0.146025 0.144358 0.142656 
0.140938 0.139223 0.137532 0.135881 0.134292 0.132781 0.131368 0.130065 0.128892 
0.127835 0.126846 0.125516 0.12244 0.11278 0.0847637 0.11623 0.147575 0.154606 
0.15536 0.1548 0.153985 0.153034 0.151983 0.150827 0.149582 0.148251 0.146848 
0.145386 0.14388 0.142343 0.140794 0.139249 0.137725 0.13624 0.13481 0.133451 
0.132181 0.131011 0.12996 0.129018 0.12814 0.126946 0.124067 0.114649 0.0865364 
0.114953 0.146122 0.153123 0.153901 0.153391 0.152641 0.151768 0.150807 0.149753 
0.148619 0.147411 0.146139 0.144816 0.143454 0.142067 0.14067 0.139277 0.137904 
0.136567 0.13528 0.134058 0.132917 0.131868 0.130928 0.130087 0.12931 0.128239 
0.125539 0.116356 0.0881773 0.113835 0.144818 0.151783 0.15258 0.152116 0.151426 
0.150624 0.149745 0.148784 0.147753 0.146656 0.145503 0.144305 0.143074 0.141821 
0.14056 0.139305 0.138068 0.136864 0.135706 0.134608 0.133584 0.132643 0.131802 
0.131053 0.130366 0.129405 0.126871 0.117914 0.0896975 0.112861 0.14365 0.150572 
0.151383 0.150961 0.150326 0.14959 0.148787 0.14791 0.146972 0.145975 0.144931 
0.143846 0.142733 0.141601 0.140463 0.139331 0.138216 0.137132 0.136091 0.135104 
0.134185 0.133342 0.13259 0.131925 0.131317 0.130455 0.128074 0.119336 0.0911075 
0.112018 0.142605 0.149476 0.150297 0.149914 0.149329 0.148654 0.147919 0.14712 
0.146266 0.145361 0.144414 0.143431 0.142424 0.141402 0.140375 0.139354 0.13835 
0.137374 0.136438 0.135551 0.134726 0.133971 0.133301 0.13271 0.132174 0.1314 
0.12916 0.120634 0.0924173 0.111293 0.141669 0.148484 0.149312 0.148964 0.148425 
0.147805 0.147133 0.146404 0.145627 0.144805 0.143946 0.143056 0.142145 0.141221 
0.140294 0.139373 0.138469 0.13759 0.136748 0.135952 0.135213 0.134537 0.133939 
0.133415 0.132943 0.13225 0.130141 0.12182 0.0936359 0.110676 0.140834 0.147586 
0.148418 0.148101 0.147604 0.147034 0.146419 0.145754 0.145047 0.1443 0.143521 
0.142715 0.141891 0.141056 0.140219 0.139389 0.138574 0.137783 0.137026 0.136311 
0.135649 0.135045 0.134513 0.134048 0.133634 0.133013 0.131025 0.122903 0.0947718 
0.110156 0.140088 0.146772 0.147604 0.147315 0.146857 0.146333 0.14577 0.145163 
0.14452 0.143841 0.143134 0.142404 0.141658 0.140904 0.140148 0.139399 0.138665 
0.137954 0.137273 0.136632 0.136038 0.135499 0.135026 0.134616 0.134253 0.133697 
0.131821 0.123893 0.0958328 0.109726 0.139423 0.146034 0.146864 0.146601 0.146177 
0.145695 0.14518 0.144625 0.144039 0.143422 0.14278 0.142119 0.141444 0.140762 
0.14008 0.139405 0.138744 0.138103 0.137492 0.136917 0.136386 0.135905 0.135485 
0.135123 0.134807 0.13431 0.132538 0.124799 0.0968261 0.109376 0.138832 0.145365 
0.14619 0.145949 0.145557 0.145113 0.144641 0.144134 0.1436 0.143039 0.142457 
0.141857 0.141247 0.14063 0.140015 0.139406 0.13881 0.138234 0.137686 0.13717 
0.136695 0.136266 0.135894 0.135576 0.135301 0.134858 0.133183 0.125628 0.0977583 
0.109099 0.138305 0.144758 0.145575 0.145354 0.144991 0.144582 0.144148 0.143685 
0.143199 0.142688 0.14216 0.141616 0.141064 0.140506 0.13995 0.139401 0.138865 
0.138347 0.137855 0.137393 0.136969 0.136587 0.136258 0.13598 0.135742 0.135346 
0.133764 0.126388 0.0986355 0.108889 0.137839 0.144206 0.145014 0.144811 0.144473 
0.144096 0.143698 0.143274 0.14283 0.142366 0.141886 0.141393 0.140893 0.140389 
0.139887 0.139392 0.13891 0.138444 0.138002 0.137589 0.137211 0.136872 0.136581 
0.136338 0.136133 0.135782 0.134285 0.127084 0.0994632 0.10874 0.137425 0.143704 
0.144501 0.144314 0.144 0.143651 0.143285 0.142897 0.142492 0.142069 0.141633 
0.141186 0.140733 0.140278 0.139825 0.139379 0.138944 0.138526 0.13813 0.13776 
0.137423 0.137122 0.136867 0.136655 0.136481 0.136169 0.134752 0.127724 0.100246 
0.108645 0.13706 0.143247 0.144031 0.143858 0.143565 0.143242 0.142906 0.14255 
0.14218 0.141795 0.141399 0.140993 0.140583 0.140171 0.139762 0.13936 0.138969 
0.138594 0.138239 0.137909 0.137609 0.137343 0.137118 0.136936 0.136788 0.136512 
0.135172 0.128312 0.10099 0.1086 0.136737 0.142831 0.143601 0.14344 0.143166 
0.142867 0.142557 0.142231 0.141892 0.141541 0.141181 0.140813 0.140442 0.140069 
0.1397 0.139338 0.138986 0.138649 0.138332 0.138037 0.13777 0.137535 0.137339 
0.137182 0.137059 0.136816 0.135547 0.128854 0.101697 0.1086 0.136454 0.142452 
0.143205 0.143055 0.142799 0.142521 0.142235 0.141936 0.141626 0.141306 0.140978 
0.140644 0.140307 0.139971 0.139638 0.139311 0.138995 0.138693 0.138409 0.138146 
0.13791 0.137703 0.137532 0.137399 0.137297 0.137084 0.135883 0.129353 0.102373 
0.108638 0.136211 0.142106 0.142842 0.142701 0.142461 0.142202 0.141938 0.141663 
0.141379 0.141087 0.140788 0.140485 0.14018 0.139876 0.139575 0.139281 0.138997 
0.138726 0.138472 0.138238 0.138029 0.137847 0.1377 0.137587 0.137505 0.13732 
0.136183 0.129814 0.10302 0.108711 0.136002 0.14179 0.142507 0.142375 0.142149 
0.141908 0.141663 0.141409 0.141149 0.140882 0.14061 0.140335 0.140058 0.139783 
0.139512 0.139247 0.138992 0.138749 0.138523 0.138315 0.13813 0.137971 0.137844 
0.137751 0.137686 0.137526 0.13645 0.13024 0.103642 0.108814 0.135825 0.141501 
0.142199 0.142073 0.14186 0.141635 0.141408 0.141174 0.140935 0.140691 0.140443 
0.140193 0.139942 0.139693 0.139448 0.13921 0.138981 0.138763 0.138562 0.138377 
0.138215 0.138076 0.137968 0.137891 0.137843 0.137706 0.136688 0.130635 0.104242 
0.108946 0.135677 0.141236 0.141913 0.141794 0.141592 0.141381 0.14117 0.140954 
0.140735 0.140511 0.140285 0.140057 0.13983 0.139605 0.139384 0.139169 0.138964 
0.13877 0.13859 0.138427 0.138284 0.138165 0.138073 0.138011 0.137978 0.137861 
0.1369 0.131001 0.104821 0.109104 0.135553 0.140993 0.141649 0.141535 0.141343 
0.141146 0.140949 0.140749 0.140547 0.140343 0.140136 0.139929 0.139722 0.139518 
0.139319 0.139126 0.138942 0.138768 0.138609 0.138465 0.13834 0.138237 0.138161 
0.138113 0.138092 0.137995 0.137087 0.131342 0.105383 0.109285 0.135452 0.140771 
0.141404 0.141294 0.141112 0.140926 0.140742 0.140557 0.140371 0.140183 0.139994 
0.139805 0.139618 0.139433 0.139254 0.13908 0.138915 0.138761 0.138619 0.138492 
0.138384 0.138296 0.138233 0.138198 0.138189 0.13811 0.137252 0.131659 0.10593 
0.109489 0.135371 0.140567 0.141176 0.141069 0.140896 0.14072 0.140549 0.140377 
0.140205 0.140032 0.139859 0.139687 0.139517 0.13935 0.139188 0.139032 0.138884 
0.138747 0.138621 0.13851 0.138417 0.138342 0.138292 0.138267 0.138269 0.138206 
0.137397 0.131955 0.106464 0.109714 0.135308 0.14038 0.140964 0.140859 0.140693 
0.140528 0.140367 0.140207 0.140048 0.139889 0.139731 0.139574 0.139419 0.139268 
0.139121 0.138981 0.138849 0.138727 0.138616 0.138519 0.138439 0.138377 0.138337 
0.138323 0.138334 0.138286 0.137524 0.132231 0.106985 0.109957 0.135261 0.140207 
0.140765 0.140663 0.140504 0.140347 0.140196 0.140047 0.139899 0.139753 0.139607 
0.139464 0.139323 0.139186 0.139054 0.138929 0.138811 0.138702 0.138605 0.138521 
0.138452 0.138401 0.138372 0.138366 0.138386 0.138352 0.137635 0.13249 0.107497 
0.110218 0.135227 0.140047 0.140579 0.140478 0.140326 0.140177 0.140034 0.139895 
0.139758 0.139623 0.139489 0.139358 0.13923 0.139106 0.138987 0.138874 0.138769 
0.138673 0.138588 0.138515 0.138457 0.138416 0.138395 0.138398 0.138426 0.138405 
0.137731 0.132733 0.108 0.110495 0.135207 0.139899 0.140405 0.140305 0.140158 
0.140016 0.139881 0.139751 0.139623 0.139498 0.139375 0.139256 0.139139 0.139026 
0.138919 0.138818 0.138724 0.138639 0.138565 0.138502 0.138454 0.138422 0.13841 
0.13842 0.138455 0.138446 0.137814 0.132962 0.108496 0.110788 0.135198 0.139761 
0.140241 0.140141 0.139999 0.139863 0.139736 0.139614 0.139495 0.139379 0.139266 
0.139156 0.139049 0.138948 0.138851 0.13876 0.138677 0.138602 0.138538 0.138484 
0.138445 0.138421 0.138416 0.138433 0.138473 0.138475 0.137884 0.133177 0.108986 
0.111095 0.135199 0.139632 0.140086 0.139986 0.139848 0.139719 0.139598 0.139483 
0.139371 0.139264 0.13916 0.139059 0.138962 0.138869 0.138782 0.138701 0.138627 
0.138561 0.138506 0.138461 0.138429 0.138412 0.138414 0.138437 0.138483 0.138496 
0.137943 0.133381 0.109471 0.111415 0.135209 0.139512 0.139939 0.139839 0.139705 
0.139581 0.139466 0.139357 0.139253 0.139153 0.139057 0.138964 0.138875 0.138792 
0.138713 0.13864 0.138575 0.138518 0.13847 0.138432 0.138408 0.138398 0.138406 
0.138434 0.138485 0.138507 0.137991 0.133573 0.109951 0.111747 0.135226 0.139399 
0.1398 0.139699 0.139569 0.13945 0.13934 0.139237 0.139139 0.139046 0.138957 
0.138872 0.13879 0.138714 0.138643 0.138579 0.138521 0.138471 0.13843 0.1384 
0.138382 0.138377 0.138391 0.138423 0.13848 0.13851 0.138031 0.133755 0.110429 
0.112092 0.135251 0.139293 0.139667 0.139566 0.139439 0.139324 0.139219 0.139122 
0.139029 0.138942 0.138859 0.138781 0.138707 0.138637 0.138574 0.138516 0.138465 
0.138422 0.138388 0.138363 0.138351 0.138352 0.13837 0.138407 0.138468 0.138506 
0.138062 0.133928 0.110905 0.112448 0.135281 0.139192 0.139541 0.139439 0.139315 
0.139204 0.139103 0.13901 0.138923 0.138842 0.138764 0.138692 0.138624 0.138561 
0.138504 0.138452 0.138408 0.13837 0.138342 0.138323 0.138316 0.138322 0.138344 
0.138385 0.13845 0.138496 0.138085 0.134092 0.111379 0.112814 0.135317 0.139097 
0.13942 0.139317 0.139195 0.139088 0.138991 0.138902 0.13882 0.138744 0.138672 
0.138605 0.138542 0.138485 0.138433 0.138387 0.138349 0.138317 0.138294 0.13828 
0.138278 0.138288 0.138314 0.138359 0.138426 0.138479 0.138101 0.134248 0.111852 
0.113191 0.135358 0.139006 0.139304 0.139199 0.13908 0.138976 0.138882 0.138798 
0.13872 0.138648 0.138581 0.138519 0.138461 0.138409 0.138363 0.138322 0.138288 
0.138261 0.138243 0.138234 0.138236 0.13825 0.13828 0.138327 0.138398 0.138457 
0.138111 0.134397 0.112325 0.113578 0.135402 0.138919 0.139192 0.139086 0.138969 
0.138868 0.138777 0.138697 0.138622 0.138555 0.138492 0.138434 0.138381 0.138334 
0.138292 0.138256 0.138226 0.138204 0.13819 0.138185 0.138191 0.138208 0.138241 
0.138292 0.138365 0.138431 0.138115 0.134538 0.112798 0.113973 0.135449 0.138836 
0.139084 0.138977 0.138862 0.138763 0.138676 0.138598 0.138527 0.138463 0.138404 
0.13835 0.138302 0.138258 0.138221 0.138189 0.138164 0.138145 0.138135 0.138134 
0.138143 0.138163 0.1382 0.138253 0.138329 0.138399 0.138113 0.134674 0.113272 
0.114378 0.1355 0.138755 0.13898 0.138872 0.138758 0.138662 0.138577 0.138502 
0.138434 0.138373 0.138318 0.138268 0.138223 0.138183 0.138149 0.138121 0.1381 
0.138085 0.138079 0.13808 0.138093 0.138116 0.138155 0.13821 0.138289 0.138364 
0.138106 0.134803 0.113747 0.114792 0.135552 0.138678 0.138878 0.138769 0.138657 
0.138563 0.13848 0.138408 0.138343 0.138285 0.138233 0.138186 0.138145 0.138109 
0.138078 0.138053 0.138035 0.138024 0.13802 0.138025 0.13804 0.138066 0.138107 
0.138165 0.138245 0.138326 0.138095 0.134927 0.114225 0.115214 0.135606 0.138602 
0.13878 0.13867 0.138559 0.138466 0.138386 0.138316 0.138254 0.138199 0.138149 
0.138105 0.138067 0.138034 0.138006 0.137985 0.13797 0.137961 0.137961 0.137968 
0.137986 0.138014 0.138057 0.138116 0.138199 0.138283 0.138079 0.135046 0.114704 
0.115644 0.135662 0.138529 0.138684 0.138572 0.138463 0.138372 0.138294 0.138226 
0.138166 0.138114 0.138066 0.138025 0.13799 0.137959 0.137935 0.137916 0.137904 
0.137898 0.1379 0.137909 0.137929 0.13796 0.138005 0.138066 0.13815 0.138238 
0.138059 0.135159 0.115186 0.116082 0.135718 0.138457 0.138591 0.138478 0.138369 
0.13828 0.138204 0.138138 0.13808 0.13803 0.137985 0.137946 0.137913 0.137885 
0.137863 0.137847 0.137837 0.137833 0.137837 0.137849 0.137872 0.137904 0.13795 
0.138013 0.138098 0.138191 0.138036 0.135268 0.115671 0.116528 0.135775 0.138386 
0.138499 0.138385 0.138278 0.13819 0.138115 0.138051 0.137995 0.137947 0.137904 
0.137867 0.137836 0.137811 0.137791 0.137777 0.137769 0.137768 0.137774 0.137788 
0.137812 0.137846 0.137894 0.137958 0.138045 0.13814 0.138009 0.135372 0.116159 
0.116982 0.135832 0.138317 0.13841 0.138294 0.138188 0.138102 0.138028 0.137966 
0.137911 0.137865 0.137824 0.137789 0.13776 0.137737 0.137719 0.137707 0.137701 
0.137702 0.13771 0.137726 0.137751 0.137787 0.137836 0.137901 0.137989 0.138088 
0.137979 0.135471 0.116651 0.117443 0.135889 0.138248 0.138321 0.138205 0.1381 
0.138015 0.137942 0.137882 0.137828 0.137784 0.137744 0.137712 0.137684 0.137663 
0.137647 0.137637 0.137633 0.137635 0.137645 0.137662 0.137689 0.137726 0.137777 
0.137843 0.137932 0.138033 0.137946 0.135566 0.117147 0.117912 0.135946 0.138181 
0.138235 0.138118 0.138013 0.137929 0.137858 0.137798 0.137747 0.137703 0.137666 
0.137635 0.137609 0.137589 0.137575 0.137566 0.137564 0.137568 0.137579 0.137598 
0.137626 0.137664 0.137716 0.137783 0.137873 0.137977 0.13791 0.135657 0.117646 
0.118388 0.136002 0.138114 0.13815 0.138031 0.137927 0.137845 0.137774 0.137716 
0.137666 0.137624 0.137588 0.137558 0.137534 0.137516 0.137503 0.137496 0.137495 
0.1375 0.137513 0.137533 0.137562 0.137601 0.137654 0.137722 0.137812 0.137919 
0.137872 0.135744 0.11815 0.118871 0.136057 0.138047 0.138065 0.137947 0.137843 
0.137761 0.137692 0.137635 0.137586 0.137545 0.13751 0.137482 0.137459 0.137442 
0.137431 0.137425 0.137425 0.137432 0.137446 0.137467 0.137497 0.137537 0.137591 
0.137659 0.137751 0.137859 0.137831 0.135827 0.118659 0.119362 0.13611 0.137981 
0.137982 0.137863 0.13776 0.137679 0.137611 0.137555 0.137506 0.137467 0.137433 
0.137406 0.137384 0.137369 0.137358 0.137354 0.137356 0.137363 0.137378 0.1374 
0.137432 0.137472 0.137527 0.137596 0.137688 0.137799 0.137788 0.135905 0.119172 
0.11986 0.136162 0.137914 0.1379 0.13778 0.137678 0.137598 0.13753 0.137475 
0.137428 0.137389 0.137356 0.13733 0.13731 0.137295 0.137286 0.137283 0.137285 
0.137294 0.13731 0.137333 0.137365 0.137407 0.137462 0.137531 0.137624 0.137736 
0.137743 0.13598 0.11969 0.120365 0.136213 0.137848 0.137819 0.137698 0.137596 