# vtk DataFile Version 5.1
vtk output
ASCII
DATASET UNSTRUCTURED_GRID
POINTS 10043 double
-10.1 1.4499999993 0 -10.049999999 1.4499999993 0 -10.049999999 1.5 0 
-9.9999999985 1.4499999993 0 -9.9999999985 1.5 0 -9.9499999978 1.4499999993 0 
-9.9499999978 1.5 0 -9.899999997 1.4499999993 0 -9.899999997 1.5 0 
-9.8499999963 1.4499999993 0 -9.8499999963 1.5 0 -9.7999999955 1.4499999993 0 
-9.7999999955 1.5 0 -9.7499999948 1.4499999993 0 -9.7499999948 1.5 0 
-9.699999994 1.4499999993 0 -9.699999994 1.5 0 -9.6499999933 1.4499999993 0 
-9.6499999933 1.5 0 -9.5999999925 1.4499999993 0 -9.5999999925 1.5 0 
-9.5499999918 1.4499999993 0 -9.5499999918 1.5 0 -9.4999999911 1.4499999993 0 
-9.4999999911 1.5 0 -9.4499999903 1.4499999993 0 -9.4499999903 1.5 0 
-9.3999999896 1.4499999993 0 -9.3999999896 1.5 0 -9.3499999888 1.4499999993 0 
-9.3499999888 1.5 0 -9.2999999881 1.4499999993 0 -9.2999999881 1.5 0 
-9.2499999873 1.4499999993 0 -9.2499999873 1.5 0 -9.1999999866 1.4499999993 0 
-9.1999999866 1.5 0 -9.1499999858 1.4499999993 0 -9.1499999858 1.5 0 
-9.0999999851 1.4499999993 0 -9.0999999851 1.5 0 -9.0499999844 1.4499999993 0 
-9.0499999844 1.5 0 -8.9999999836 1.4499999993 0 -8.9999999836 1.5 0 
-8.9499999829 1.4499999993 0 -8.9499999829 1.5 0 -8.8999999821 1.4499999993 0 
-8.8999999821 1.5 0 -8.8499999814 1.4499999993 0 -8.8499999814 1.5 0 
-8.7999999806 1.4499999993 0 -8.7999999806 1.5 0 -8.7499999799 1.4499999993 0 
-8.7499999799 1.5 0 -8.6999999791 1.4499999993 0 -8.6999999791 1.5 0 
-8.6499999784 1.4499999993 0 -8.6499999784 1.5 0 -8.5999999776 1.4499999993 0 
-8.5999999776 1.5 0 -8.5499999769 1.4499999993 0 -8.5499999769 1.5 0 
-8.4999999762 1.4499999993 0 -8.4999999762 1.5 0 -8.4499999754 1.4499999993 0 
-8.4499999754 1.5 0 -8.3999999747 1.4499999993 0 -8.3999999747 1.5 0 
-8.3499999739 1.4499999993 0 -8.3499999739 1.5 0 -8.2999999732 1.4499999993 0 
-8.2999999732 1.5 0 -8.2499999724 1.4499999993 0 -8.2499999724 1.5 0 
-8.1999999717 1.4499999993 0 -8.1999999717 1.5 0 -8.1499999709 1.4499999993 0 
-8.1499999709 1.5 0 -8.0999999702 1.4499999993 0 -8.0999999702 1.5 0 
-8.0499999695 1.4499999993 0 -8.0499999695 1.5 0 -7.9999999687 1.4499999993 0 
-7.9999999687 1.5 0 -7.949999968 1.4499999993 0 -7.949999968 1.5 0 
-7.8999999672 1.4499999993 0 -7.8999999672 1.5 0 -7.8499999665 1.4499999993 0 
-7.8499999665 1.5 0 -7.7999999657 1.4499999993 0 -7.7999999657 1.5 0 
-7.749999965 1.4499999993 0 -7.749999965 1.5 0 -7.6999999642 1.4499999993 0 
-7.6999999642 1.5 0 -7.6499999635 1.4499999993 0 -7.6499999635 1.5 0 
-7.5999999627 1.4499999993 0 -7.5999999627 1.5 0 -7.549999962 1.4499999993 0 
-7.549999962 1.5 0 -7.4999999613 1.4499999993 0 -7.4999999613 1.5 0 
-7.4499999605 1.4499999993 0 -7.4499999605 1.5 0 -7.3999999598 1.4499999993 0 
-7.3999999598 1.5 0 -7.349999959 1.4499999993 0 -7.349999959 1.5 0 
-7.2999999583 1.4499999993 0 -7.2999999583 1.5 0 -7.2499999575 1.4499999993 0 
-7.2499999575 1.5 0 -7.1999999568 1.4499999993 0 -7.1999999568 1.5 0 
-7.149999956 1.4499999993 0 -7.149999956 1.5 0 -7.0999999553 1.4499999993 0 
-7.0999999553 1.5 0 -7.0499999546 1.4499999993 0 -7.0499999546 1.5 0 
-6.9999999538 1.4499999993 0 -6.9999999538 1.5 0 -6.9499999531 1.4499999993 0 
-6.9499999531 1.5 0 -6.8999999523 1.4499999993 0 -6.8999999523 1.5 0 
-6.8499999516 1.4499999993 0 -6.8499999516 1.5 0 -6.7999999508 1.4499999993 0 
-6.7999999508 1.5 0 -6.7499999501 1.4499999993 0 -6.7499999501 1.5 0 
-6.6999999493 1.4499999993 0 -6.6999999493 1.5 0 -6.6499999486 1.4499999993 0 
-6.6499999486 1.5 0 -6.5999999478 1.4499999993 0 -6.5999999478 1.5 0 
-6.5499999471 1.4499999993 0 -6.5499999471 1.5 0 -6.4999999464 1.4499999993 0 
-6.4999999464 1.5 0 -6.4499999456 1.4499999993 0 -6.4499999456 1.5 0 
-6.3999999449 1.4499999993 0 -6.3999999449 1.5 0 -6.3499999441 1.4499999993 0 
-6.3499999441 1.5 0 -6.2999999434 1.4499999993 0 -6.2999999434 1.5 0 
-6.2499999426 1.4499999993 0 -6.2499999426 1.5 0 -6.1999999419 1.4499999993 0 
-6.1999999419 1.5 0 -6.1499999411 1.4499999993 0 -6.1499999411 1.5 0 
-6.0999999404 1.4499999993 0 -6.0999999404 1.5 0 -6.0499999397 1.4499999993 0 
-6.0499999397 1.5 0 -5.9999999389 1.4499999993 0 -5.9999999389 1.5 0 
-5.9499999382 1.4499999993 0 -5.9499999382 1.5 0 -5.8999999374 1.4499999993 0 
-5.8999999374 1.5 0 -5.8499999367 1.4499999993 0 -5.8499999367 1.5 0 
-5.7999999359 1.4499999993 0 -5.7999999359 1.5 0 -5.7499999352 1.4499999993 0 
-5.7499999352 1.5 0 -5.6999999344 1.4499999993 0 -5.6999999344 1.5 0 
-5.6499999337 1.4499999993 0 -5.6499999337 1.5 0 -5.5999999329 1.4499999993 0 
-5.5999999329 1.5 0 -5.5499999322 1.4499999993 0 -5.5499999322 1.5 0 
-5.4999999315 1.4499999993 0 -5.4999999315 1.5 0 -5.4499999307 1.4499999993 0 
-5.4499999307 1.5 0 -5.39999993 1.4499999993 0 -5.39999993 1.5 0 
-5.3499999292 1.4499999993 0 -5.3499999292 1.5 0 -5.2999999285 1.4499999993 0 
-5.2999999285 1.5 0 -5.2499999277 1.4499999993 0 -5.2499999277 1.5 0 
-5.199999927 1.4499999993 0 -5.199999927 1.5 0 -5.1499999262 1.4499999993 0 
-5.1499999262 1.5 0 -5.0999999255 1.4499999993 0 -5.0999999255 1.5 0 
-5.0499999247 1.4499999993 0 -5.0499999247 1.5 0 -4.999999924 1.4499999993 0 
-4.999999924 1.5 0 -4.9499999233 1.4499999993 0 -4.9499999233 1.5 0 
-4.8999999225 1.4499999993 0 -4.8999999225 1.5 0 -4.8499999218 1.4499999993 0 
-4.8499999218 1.5 0 -4.799999921 1.4499999993 0 -4.799999921 1.5 0 
-4.7499999203 1.4499999993 0 -4.7499999203 1.5 0 -4.6999999195 1.4499999993 0 
-4.6999999195 1.5 0 -4.6499999188 1.4499999993 0 -4.6499999188 1.5 0 
-4.599999918 1.4499999993 0 -4.599999918 1.5 0 -4.5499999173 1.4499999993 0 
-4.5499999173 1.5 0 -4.4999999166 1.4499999993 0 -4.4999999166 1.5 0 
-4.4499999158 1.4499999993 0 -4.4499999158 1.5 0 -4.3999999151 1.4499999993 0 
-4.3999999151 1.5 0 -4.3499999143 1.4499999993 0 -4.3499999143 1.5 0 
-4.2999999136 1.4499999993 0 -4.2999999136 1.5 0 -4.2499999128 1.4499999993 0 
-4.2499999128 1.5 0 -4.1999999121 1.4499999993 0 -4.1999999121 1.5 0 
-4.1499999113 1.4499999993 0 -4.1499999113 1.5 0 -4.0999999106 1.4499999993 0 
-4.0999999106 1.5 0 -4.0499999098 1.4499999993 0 -4.0499999098 1.5 0 
-3.9999999091 1.4499999993 0 -3.9999999091 1.5 0 -3.9499999084 1.4499999993 0 
-3.9499999084 1.5 0 -3.8999999076 1.4499999993 0 -3.8999999076 1.5 0 
-3.8499999069 1.4499999993 0 -3.8499999069 1.5 0 -3.7999999061 1.4499999993 0 
-3.7999999061 1.5 0 -3.7499999054 1.4499999993 0 -3.7499999054 1.5 0 
-3.6999999046 1.4499999993 0 -3.6999999046 1.5 0 -3.6499999039 1.4499999993 0 
-3.6499999039 1.5 0 -3.5999999031 1.4499999993 0 -3.5999999031 1.5 0 
-3.5499999024 1.4499999993 0 -3.5499999024 1.5 0 -3.4999999017 1.4499999993 0 
-3.4999999017 1.5 0 -3.4499999009 1.4499999993 0 -3.4499999009 1.5 0 
-3.3999999002 1.4499999993 0 -3.3999999002 1.5 0 -3.3499998994 1.4499999993 0 
-3.3499998994 1.5 0 -3.2999998987 1.4499999993 0 -3.2999998987 1.5 0 
-3.2499998979 1.4499999993 0 -3.2499998979 1.5 0 -3.1999998972 1.4499999993 0 
-3.1999998972 1.5 0 -3.1499998964 1.4499999993 0 -3.1499998964 1.5 0 
-3.0999998957 1.4499999993 0 -3.0999998957 1.5 0 -3.0499998949 1.4499999993 0 
-3.0499998949 1.5 0 -2.9999998942 1.4499999993 0 -2.9999998942 1.5 0 
-2.9499998935 1.4499999993 0 -2.9499998935 1.5 0 -2.8999998927 1.4499999993 0 
-2.8999998927 1.5 0 -2.849999892 1.4499999993 0 -2.849999892 1.5 0 
-2.7999998912 1.4499999993 0 -2.7999998912 1.5 0 -2.7499998905 1.4499999993 0 
-2.7499998905 1.5 0 -2.6999998897 1.4499999993 0 -2.6999998897 1.5 0 
-2.649999889 1.4499999993 0 -2.649999889 1.5 0 -2.5999998882 1.4499999993 0 
-2.5999998882 1.5 0 -2.5499998875 1.4499999993 0 -2.5499998875 1.5 0 
-2.4999998868 1.4499999993 0 -2.4999998868 1.5 0 -2.449999886 1.4499999993 0 
-2.449999886 1.5 0 -2.3999998853 1.4499999993 0 -2.3999998853 1.5 0 
-2.3499998845 1.4499999993 0 -2.3499998845 1.5 0 -2.2999998838 1.4499999993 0 
-2.2999998838 1.5 0 -2.249999883 1.4499999993 0 -2.249999883 1.5 0 
-2.1999998823 1.4499999993 0 -2.1999998823 1.5 0 -2.1499998815 1.4499999993 0 
-2.1499998815 1.5 0 -2.0999998808 1.4499999993 0 -2.0999998808 1.5 0 
-2.04999988 1.4499999993 0 -2.04999988 1.5 0 -1.9999998793 1.4499999993 0 
-1.9999998793 1.5 0 -1.9499998786 1.4499999993 0 -1.9499998786 1.5 0 
-1.8999998778 1.4499999993 0 -1.8999998778 1.5 0 -1.8499998771 1.4499999993 0 
-1.8499998771 1.5 0 -1.7999998763 1.4499999993 0 -1.7999998763 1.5 0 
-1.7499998756 1.4499999993 0 -1.7499998756 1.5 0 -1.6999998748 1.4499999993 0 
-1.6999998748 1.5 0 -1.6499998741 1.4499999993 0 -1.6499998741 1.5 0 
-1.5999998733 1.4499999993 0 -1.5999998733 1.5 0 -1.5499998726 1.4499999993 0 
-1.5499998726 1.5 0 -1.4999998718 1.4499999993 0 -1.4999998718 1.5 0 
-1.4499998711 1.4499999993 0 -1.4499998711 1.5 0 -1.3999998704 1.4499999993 0 
-1.3999998704 1.5 0 -1.3499998696 1.4499999993 0 -1.3499998696 1.5 0 
-1.2999998689 1.4499999993 0 -1.2999998689 1.5 0 -1.2499998681 1.4499999993 0 
-1.2499998681 1.5 0 -1.1999998674 1.4499999993 0 -1.1999998674 1.5 0 
-1.1499998666 1.4499999993 0 -1.1499998666 1.5 0 -1.0999998659 1.4499999993 0 
-1.0999998659 1.5 0 -1.0499998651 1.4499999993 0 -1.0499998651 1.5 0 
-0.9999998644 1.4499999993 0 -0.9999998644 1.5 0 -0.94999986365 1.4499999993 0 
-0.94999986365 1.5 0 -0.89999986291 1.4499999993 0 -0.89999986291 1.5 0 
-0.84999986216 1.4499999993 0 -0.84999986216 1.5 0 -0.79999986142 1.4499999993 0 
-0.79999986142 1.5 0 -0.74999986067 1.4499999993 0 -0.74999986067 1.5 0 
-0.69999985993 1.4499999993 0 -0.69999985993 1.5 0 -0.64999985918 1.4499999993 0 
-0.64999985918 1.5 0 -0.59999985844 1.4499999993 0 -0.59999985844 1.5 0 
-0.54999985769 1.4499999993 0 -0.54999985769 1.5 0 -0.49999985695 1.4499999993 0 
-0.49999985695 1.5 0 -0.4499998562 1.4499999993 0 -0.4499998562 1.5 0 
-0.39999985546 1.4499999993 0 -0.39999985546 1.5 0 -0.34999985471 1.4499999993 0 
-0.34999985471 1.5 0 -0.29999985397 1.4499999993 0 -0.29999985397 1.5 0 
-0.24999985322 1.4499999993 0 -0.24999985322 1.5 0 -0.191663057 1.4499999993 0 
-0.17548248559 1.5 0 0.18862900414 1.4499999993 0 0.25000015423 1.4499999993 0 
[...]
CELL_DATA 9510
FIELD FieldData 4
Water_Depth_m 1 9510 float
0.339991 0.339975 0.339959 0.339942 0.339924 0.339904 0.339882 0.339858 0.339832 
0.339803 0.339771 0.339735 0.339697 0.339655 0.33961 0.339562 0.33951 0.339455 
0.339396 0.339334 0.339268 0.3392 0.339128 0.339054 0.338976 0.338897 0.338815 
0.33873 0.338644 0.338557 0.338468 0.338378 0.338287 0.338196 0.338105 0.338015 
0.337924 0.337835 0.337747 0.33766 0.337575 0.337492 0.337411 0.337333 0.337257 
0.337185 0.337116 0.33705 0.336987 0.336929 0.336875 0.336824 0.336778 0.336737 
0.3367 0.336668 0.33664 0.336618 0.3366 0.336587 0.33658 0.336578 0.336581 
0.336589 0.336602 0.336619 0.336642 0.33667 0.336702 0.336739 0.336781 0.336827 
0.336877 0.336932 0.336992 0.337055 0.337122 0.337194 0.337269 0.337347 0.337429 
0.337513 0.3376 0.337688 0.337778 0.337869 0.33796 0.338051 0.338141 0.338229 
0.338315 0.338398 0.338477 0.338553 0.338624 0.33869 0.338752 0.338808 0.338858 
0.338904 0.338943 0.338978 0.339007 0.339031 0.339051 0.339066 0.339077 0.339085 
0.33909 0.339091 0.339091 0.339089 0.339085 0.339081 0.339077 0.339072 0.339068 
0.339065 0.339063 0.339064 0.339066 0.339071 0.339078 0.339088 0.339101 0.339118 
0.339137 0.339159 0.339184 0.339212 0.339242 0.339275 0.33931 0.339347 0.339385 
0.339425 0.339465 0.339507 0.339549 0.339591 0.339633 0.339675 0.339716 0.339757 
0.339798 0.339838 0.339877 0.339916 0.339954 0.339991 0.340028 0.340064 0.340099 
0.340135 0.340169 0.340204 0.340238 0.340272 0.340305 0.340338 0.340371 0.340404 
0.340436 0.340469 0.340502 0.340534 0.340567 0.3406 0.340634 0.340668 0.340703 
0.34074 0.340778 0.340818 0.34086 0.340906 0.340955 0.341009 0.341069 0.341135 
0.341209 0.341292 0.341386 0.341492 0.341611 0.341747 0.3419 0.342072 0.342264 
0.342481 0.342718 0.342977 0.343268 0.343573 0.343855 0.34418 0.344527 0.344988 
0.352334 0.353025 0.353591 0.354112 0.354587 0.355019 0.35541 0.355763 0.356082 
0.35637 0.356629 0.356862 0.357072 0.357262 0.357433 0.357588 0.357729 0.357856 
0.357972 0.358077 0.358174 0.358262 0.358343 0.358417 0.358486 0.358549 0.358608 
0.358662 0.358713 0.358761 0.358805 0.358847 0.358886 0.358923 0.358959 0.358992 
0.359024 0.359054 0.359083 0.35911 0.359137 0.359162 0.359187 0.35921 0.359233 
0.359255 0.359277 0.359298 0.359318 0.359337 0.359357 0.359375 0.359393 0.359411 
0.359429 0.359446 0.359462 0.359478 0.359494 0.35951 0.359525 0.35954 0.359555 
0.359569 0.359583 0.359597 0.359611 0.359624 0.359637 0.35965 0.359662 0.359674 
0.359686 0.359698 0.35971 0.359721 0.359732 0.359743 0.359753 0.359764 0.359774 
0.359783 0.359793 0.359802 0.359812 0.359821 0.359829 0.359838 0.359846 0.359854 
0.359862 0.359869 0.359877 0.359874 0.359815 0.359317 0.353601 0.339992 0.339977 
0.339961 0.339945 0.339927 0.339907 0.339886 0.339862 0.339836 0.339807 0.339776 
0.339741 0.339702 0.339661 0.339616 0.339568 0.339516 0.33946 0.339402 0.339339 
0.339274 0.339205 0.339133 0.339059 0.338981 0.338901 0.338819 0.338735 0.338648 
0.338561 0.338471 0.338381 0.33829 0.338199 0.338108 0.338017 0.337926 0.337837 
0.337748 0.337661 0.337576 0.337492 0.337411 0.337333 0.337257 0.337185 0.337115 
0.337049 0.336987 0.336928 0.336873 0.336823 0.336777 0.336735 0.336698 0.336666 
0.336638 0.336615 0.336598 0.336585 0.336577 0.336575 0.336578 0.336586 0.336599 
0.336616 0.336639 0.336667 0.336699 0.336736 0.336777 0.336823 0.336874 0.336929 
0.336988 0.337051 0.337118 0.337189 0.337264 0.337343 0.337425 0.337509 0.337596 
0.337685 0.337775 0.337867 0.337958 0.33805 0.33814 0.338229 0.338315 0.338399 
0.338479 0.338555 0.338627 0.338694 0.338756 0.338812 0.338863 0.338909 0.338949 
0.338983 0.339012 0.339037 0.339056 0.339071 0.339082 0.33909 0.339094 0.339095 
0.339095 0.339092 0.339088 0.339083 0.339078 0.339073 0.339069 0.339066 0.339064 
0.339063 0.339065 0.33907 0.339077 0.339087 0.3391 0.339116 0.339135 0.339157 
0.339182 0.33921 0.339241 0.339273 0.339309 0.339346 0.339384 0.339424 0.339465 
0.339507 0.339549 0.339591 0.339633 0.339675 0.339717 0.339758 0.339798 0.339838 
0.339878 0.339916 0.339954 0.339992 0.340028 0.340065 0.3401 0.340135 0.34017 
0.340204 0.340238 0.340272 0.340305 0.340339 0.340371 0.340404 0.340437 0.340469 
0.340502 0.340534 0.340567 0.3406 0.340634 0.340668 0.340703 0.340739 0.340776 
0.340816 0.340858 0.340903 0.340951 0.341004 0.341062 0.341128 0.341201 0.341282 
0.341374 0.341478 0.341596 0.341729 0.341879 0.342049 0.34224 0.342453 0.342689 
0.342951 0.343231 0.343527 0.343863 0.34423 0.344853 0.345489 0.35233 0.353026 
0.353597 0.35412 0.354598 0.355031 0.355423 0.355777 0.356096 0.356383 0.356641 
0.356874 0.357083 0.357272 0.357442 0.357597 0.357736 0.357863 0.357978 0.358083 
0.358179 0.358266 0.358347 0.358421 0.358489 0.358552 0.358611 0.358665 0.358715 
0.358763 0.358807 0.358849 0.358888 0.358925 0.35896 0.358993 0.359024 0.359055 
0.359083 0.359111 0.359137 0.359163 0.359187 0.359211 0.359234 0.359256 0.359277 
0.359298 0.359318 0.359338 0.359357 0.359375 0.359394 0.359411 0.359429 0.359446 
0.359462 0.359479 0.359494 0.35951 0.359525 0.35954 0.359555 0.359569 0.359583 
0.359597 0.359611 0.359624 0.359637 0.35965 0.359662 0.359674 0.359686 0.359698 
0.35971 0.359721 0.359732 0.359743 0.359753 0.359764 0.359774 0.359783 0.359793 
0.359802 0.359812 0.359821 0.359829 0.359838 0.359846 0.359854 0.359862 0.359869 
0.359877 0.359874 0.359815 0.359317 0.353601 0.339992 0.339978 0.339963 0.339947 
0.33993 0.339911 0.339891 0.339867 0.339841 0.339813 0.339781 0.339746 0.339708 
0.339666 0.339621 0.339572 0.33952 0.339464 0.339405 0.339343 0.339277 0.339208 
0.339136 0.33906 0.338982 0.338902 0.338819 0.338734 0.338647 0.338559 0.338469 
0.338378 0.338287 0.338195 0.338104 0.338012 0.337921 0.337831 0.337742 0.337655 
0.337569 0.337485 0.337404 0.337325 0.337249 0.337176 0.337107 0.33704 0.336978 
0.336919 0.336864 0.336814 0.336767 0.336726 0.336688 0.336656 0.336628 0.336606 
0.336588 0.336575 0.336568 0.336565 0.336568 0.336576 0.336589 0.336607 0.33663 
0.336658 0.33669 0.336727 0.336769 0.336815 0.336866 0.336921 0.33698 0.337043 
0.337111 0.337182 0.337258 0.337337 0.337419 0.337504 0.337592 0.337682 0.337773 
0.337866 0.337958 0.338051 0.338143 0.338233 0.33832 0.338405 0.338486 0.338563 
0.338636 0.338704 0.338766 0.338823 0.338874 0.33892 0.338959 0.338994 0.339022 
0.339046 0.339065 0.339079 0.339089 0.339096 0.339099 0.3391 0.339098 0.339094 
0.33909 0.339084 0.339078 0.339072 0.339067 0.339063 0.33906 0.339059 0.339061 
0.339065 0.339072 0.339081 0.339094 0.33911 0.339129 0.339151 0.339177 0.339205 
0.339236 0.339269 0.339305 0.339343 0.339382 0.339422 0.339464 0.339506 0.339548 
0.339591 0.339633 0.339676 0.339718 0.339759 0.3398 0.33984 0.339879 0.339918 
0.339956 0.339993 0.34003 0.340066 0.340101 0.340136 0.340171 0.340205 0.340239 
0.340273 0.340306 0.340339 0.340372 0.340405 0.340437 0.34047 0.340502 0.340534 
0.340567 0.3406 0.340633 0.340666 0.340701 0.340736 0.340773 0.340812 0.340853 
0.340897 0.340944 0.340996 0.341053 0.341115 0.341186 0.341264 0.341353 0.341454 
0.341568 0.341697 0.341844 0.34201 0.342197 0.342408 0.342643 0.342903 0.343191 
0.343497 0.343831 0.34425 0.344722 0.345232 0.352345 0.353051 0.353629 0.354158 
0.354638 0.355072 0.355464 0.355817 0.356135 0.35642 0.356676 0.356906 0.357113 
0.357299 0.357467 0.357619 0.357757 0.357881 0.357995 0.358098 0.358192 0.358279 
0.358358 0.358431 0.358498 0.35856 0.358618 0.358671 0.358721 0.358768 0.358812 
0.358853 0.358892 0.358928 0.358963 0.358996 0.359027 0.359057 0.359085 0.359113 
0.359139 0.359164 0.359188 0.359212 0.359235 0.359257 0.359278 0.359299 0.359319 
0.359338 0.359357 0.359376 0.359394 0.359412 0.359429 0.359446 0.359463 0.359479 
0.359495 0.35951 0.359525 0.35954 0.359555 0.359569 0.359583 0.359597 0.359611 
0.359624 0.359637 0.35965 0.359662 0.359674 0.359686 0.359698 0.35971 0.359721 
0.359732 0.359743 0.359753 0.359764 0.359774 0.359784 0.359793 0.359802 0.359812 
0.359821 0.359829 0.359838 0.359846 0.359854 0.359862 0.359869 0.359877 0.359874 
0.359815 0.359317 0.353601 0.339993 0.33998 0.339966 0.339952 0.339936 0.339917 
0.339897 0.339874 0.339849 0.33982 0.339789 0.339754 0.339715 0.339674 0.339628 
0.339579 0.339527 0.339471 0.339411 0.339348 0.339281 0.339212 0.339139 0.339063 
0.338984 0.338903 0.338819 0.338733 0.338646 0.338556 0.338466 0.338374 0.338282 
0.33819 0.338097 0.338005 0.337913 0.337822 0.337733 0.337645 0.337559 0.337475 
0.337393 0.337314 0.337237 0.337164 0.337094 0.337027 0.336964 0.336905 0.33685 
0.3368 0.336753 0.336711 0.336674 0.336641 0.336614 0.336591 0.336573 0.336561 
0.336553 0.336551 0.336554 0.336562 0.336576 0.336594 0.336617 0.336645 0.336677 
0.336714 0.336756 0.336803 0.336854 0.336909 0.336968 0.337032 0.3371 0.337172 
0.337248 0.337327 0.33741 0.337496 0.337585 0.337677 0.33777 0.337864 0.337958 
0.338053 0.338146 0.338238 0.338328 0.338414 0.338497 0.338575 0.338649 0.338718 
0.338781 0.338839 0.33889 0.338936 0.338975 0.339009 0.339037 0.33906 0.339078 
0.339091 0.3391 0.339105 0.339107 0.339106 0.339103 0.339098 0.339092 0.339085 
0.339077 0.33907 0.339063 0.339058 0.339054 0.339053 0.339053 0.339057 0.339063 
0.339072 0.339085 0.339101 0.33912 0.339143 0.339168 0.339197 0.339229 0.339263 
0.339299 0.339338 0.339378 0.339419 0.339462 0.339504 0.339548 0.339591 0.339634 
0.339677 0.339719 0.339761 0.339802 0.339842 0.339881 0.33992 0.339958 0.339995 
0.340031 0.340067 0.340103 0.340138 0.340172 0.340206 0.34024 0.340274 0.340307 
0.34034 0.340373 0.340405 0.340438 0.34047 0.340502 0.340534 0.340566 0.340599 
0.340631 0.340664 0.340698 0.340733 0.340768 0.340806 0.340845 0.340887 0.340933 
0.340982 0.341036 0.341096 0.341163 0.341237 0.341322 0.341417 0.341526 0.341649 
0.34179 0.34195 0.342132 0.342339 0.34257 0.34283 0.343123 0.343436 0.343785 
0.3442 0.344611 0.34508 0.352369 0.353091 0.35368 0.354215 0.3547 0.355136 
0.355528 0.355879 0.356193 0.356475 0.356727 0.356954 0.357157 0.357339 0.357504 
0.357652 0.357787 0.357909 0.358019 0.35812 0.358212 0.358297 0.358374 0.358445 
0.358511 0.358572 0.358628 0.358681 0.35873 0.358776 0.358819 0.358859 0.358897 
0.358933 0.358967 0.359 0.359031 0.35906 0.359088 0.359115 0.359141 0.359166 
0.35919 0.359214 0.359236 0.359258 0.359279 0.3593 0.35932 0.359339 0.359358 
0.359377 0.359395 0.359412 0.35943 0.359446 0.359463 0.359479 0.359495 0.35951 
0.359526 0.359541 0.359555 0.35957 0.359584 0.359597 0.359611 0.359624 0.359637 
0.35965 0.359662 0.359674 0.359686 0.359698 0.35971 0.359721 0.359732 0.359743 
0.359753 0.359764 0.359774 0.359784 0.359793 0.359802 0.359812 0.359821 0.359829 
0.359838 0.359846 0.359854 0.359862 0.359869 0.359877 0.359874 0.359815 0.359317 
0.353601 0.339994 0.339983 0.339971 0.339958 0.339943 0.339925 0.339906 0.339884 
0.339859 0.33983 0.339799 0.339764 0.339726 0.339684 0.339638 0.339589 0.339536 
0.339479 0.339419 0.339355 0.339287 0.339217 0.339143 0.339066 0.338986 0.338904 
0.338819 0.338732 0.338643 0.338553 0.338461 0.338369 0.338276 0.338182 0.338088 
0.337995 0.337903 0.337811 0.337721 0.337632 0.337545 0.33746 0.337378 0.337298 
0.337221 0.337147 0.337077 0.33701 0.336947 0.336887 0.336832 0.336781 0.336734 
0.336692 0.336655 0.336622 0.336594 0.336571 0.336554 0.336541 0.336534 0.336532 
0.336535 0.336544 0.336557 0.336575 0.336599 0.336627 0.33666 0.336698 0.33674 
0.336786 0.336838 0.336893 0.336953 0.337017 0.337085 0.337157 0.337234 0.337314 
0.337399 0.337486 0.337577 0.33767 0.337765 0.337861 0.337958 0.338055 0.338151 
0.338245 0.338337 0.338426 0.338511 0.338592 0.338667 0.338738 0.338802 0.33886 
0.338912 0.338958 0.338997 0.33903 0.339057 0.339079 0.339095 0.339107 0.339114 
0.339118 0.339118 0.339115 0.33911 0.339103 0.339094 0.339085 0.339076 0.339067 
0.339059 0.339052 0.339047 0.339044 0.339043 0.339046 0.339052 0.33906 0.339073 
0.339089 0.339108 0.339131 0.339157 0.339187 0.339219 0.339255 0.339292 0.339332 
0.339373 0.339415 0.339459 0.339503 0.339547 0.339591 0.339635 0.339678 0.339721 
0.339763 0.339804 0.339844 0.339884 0.339922 0.33996 0.339997 0.340034 0.340069 
0.340104 0.340139 0.340174 0.340208 0.340241 0.340275 0.340308 0.340341 0.340373 
0.340406 0.340438 0.34047 0.340502 0.340534 0.340566 0.340598 0.34063 0.340662 
0.340695 0.340728 0.340763 0.340798 0.340836 0.340876 0.340918 0.340964 0.341015 
0.341071 0.341133 0.341202 0.34128 0.341369 0.341471 0.341586 0.341719 0.34187 
0.342044 0.342244 0.342469 0.342728 0.343023 0.343342 0.343702 0.344115 0.344497 
0.344939 0.352402 0.353147 0.35375 0.354295 0.354785 0.355223 0.355613 0.355962 
0.356272 0.356549 0.356796 0.357017 0.357215 0.357393 0.357553 0.357697 0.357827 
0.357945 0.358052 0.35815 0.358239 0.358321 0.358396 0.358465 0.358528 0.358588 
0.358642 0.358693 0.358741 0.358786 0.358828 0.358867 0.358904 0.35894 0.358973 
0.359005 0.359035 0.359064 0.359092 0.359119 0.359144 0.359169 0.359193 0.359216 
0.359238 0.35926 0.359281 0.359301 0.359321 0.35934 0.359359 0.359378 0.359396 
0.359413 0.35943 0.359447 0.359464 0.35948 0.359495 0.359511 0.359526 0.359541 
0.359555 0.35957 0.359584 0.359598 0.359611 0.359624 0.359637 0.35965 0.359662 
0.359675 0.359687 0.359698 0.35971 0.359721 0.359732 0.359743 0.359753 0.359764 
0.359774 0.359784 0.359793 0.359803 0.359812 0.359821 0.359829 0.359838 0.359846 
0.359854 0.359862 0.359869 0.359877 0.359874 0.359815 0.359317 0.353601 0.339995 
0.339986 0.339976 0.339965 0.339951 0.339935 0.339917 0.339895 0.339871 0.339843 
0.339812 0.339777 0.339738 0.339696 0.33965 0.3396 0.339546 0.339489 0.339428 
0.339363 0.339295 0.339223 0.339148 0.33907 0.338989 0.338905 0.338819 0.338731 
0.33864 0.338549 0.338456 0.338362 0.338267 0.338172 0.338078 0.337983 0.337889 
0.337797 0.337705 0.337616 0.337528 0.337442 0.337359 0.337279 0.337201 0.337127 
0.337056 0.336988 0.336925 0.336865 0.336809 0.336758 0.336711 0.336668 0.336631 
0.336598 0.33657 0.336547 0.336529 0.336517 0.33651 0.336508 0.336511 0.33652 
0.336534 0.336553 0.336577 0.336605 0.336639 0.336677 0.336719 0.336766 0.336818 
0.336873 0.336934 0.336998 0.337067 0.33714 0.337217 0.337299 0.337384 0.337473 
0.337566 0.337661 0.337759 0.337858 0.337958 0.338058 0.338157 0.338255 0.33835 
0.338442 0.338529 0.338613 0.33869 0.338762 0.338828 0.338887 0.33894 0.338985 
0.339024 0.339056 0.339082 0.339103 0.339117 0.339127 0.339132 0.339133 0.339131 
0.339126 0.339118 0.339108 0.339097 0.339086 0.339074 0.339063 0.339053 0.339044 
0.339037 0.339032 0.339031 0.339032 0.339037 0.339045 0.339057 0.339073 0.339093 
0.339116 0.339143 0.339174 0.339207 0.339244 0.339283 0.339324 0.339367 0.339411 
0.339456 0.339501 0.339547 0.339592 0.339637 0.339681 0.339724 0.339766 0.339808 
0.339848 0.339887 0.339926 0.339963 0.34 0.340036 0.340072 0.340107 0.340141 
0.340176 0.340209 0.340243 0.340276 0.340309 0.340342 0.340375 0.340407 0.340439 
0.340471 0.340503 0.340534 0.340566 0.340597 0.340628 0.340659 0.340691 0.340723 
0.340756 0.340789 0.340824 0.340861 0.340901 0.340943 0.340989 0.34104 0.341096 
0.341159 0.34123 0.341311 0.341403 0.341509 0.341631 0.341771 0.341933 0.342122 
0.342339 0.342592 0.342884 0.34321 0.343582 0.343995 0.344381 0.34481 0.352448 
0.353222 0.353843 0.3544 0.354895 0.355334 0.355723 0.356067 0.356372 0.356643 
0.356883 0.357097 0.357288 0.357459 0.357613 0.357751 0.357876 0.357989 0.358092 
0.358186 0.358271 0.35835 0.358422 0.358488 0.35855 0.358607 0.35866 0.358709 
0.358755 0.358798 0.358839 0.358877 0.358914 0.358948 0.358981 0.359012 0.359041 
0.35907 0.359097 0.359123 0.359148 0.359173 0.359196 0.359219 0.359241 0.359262 
0.359283 0.359303 0.359323 0.359342 0.359361 0.359379 0.359397 0.359414 0.359431 
0.359448 0.359464 0.35948 0.359496 0.359511 0.359527 0.359541 0.359556 0.35957 
0.359584 0.359598 0.359611 0.359625 0.359637 0.35965 0.359663 0.359675 0.359687 
0.359698 0.35971 0.359721 0.359732 0.359743 0.359753 0.359764 0.359774 0.359784 
0.359793 0.359803 0.359812 0.359821 0.359829 0.359838 0.359846 0.359854 0.359862 
0.359869 0.359877 0.359874 0.359815 0.359317 0.353601 0.339996 0.33999 0.339983 
0.339974 0.339962 0.339947 0.33993 0.339909 0.339886 0.339858 0.339827 0.339792 
0.339753 0.339711 0.339664 0.339614 0.339559 0.339501 0.339439 0.339373 0.339303 
0.33923 0.339153 0.339074 0.338991 0.338906 0.338818 0.338728 0.338637 0.338543 
0.338449 0.338353 0.338257 0.338161 0.338065 0.337969 0.337874 0.33778 0.337687 
0.337596 0.337508 0.337421 0.337337 0.337256 0.337177 0.337102 0.337031 0.336962 
0.336898 0.336838 0.336782 0.33673 0.336682 0.33664 0.336602 0.336569 0.336541 
0.336518 0.3365 0.336488 0.336481 0.336479 0.336483 0.336492 0.336507 0.336526 
0.33655 0.336579 0.336613 0.336652 0.336695 0.336742 0.336794 0.33685 0.336911 
0.336976 0.337045 0.337119 0.337197 0.33728 0.337367 0.337458 0.337553 0.337651 
0.337751 0.337854 0.337957 0.338061 0.338164 0.338266 0.338365 0.33846 0.338551 
0.338638 0.338718 0.338792 0.338859 0.33892 0.338973 0.339018 0.339057 0.339088 
0.339112 0.339131 0.339144 0.339151 0.339154 0.339152 0.339147 0.339138 0.339127 
0.339115 0.339101 0.339086 0.339072 0.339058 0.339045 0.339034 0.339025 0.339018 
0.339015 0.339015 0.339019 0.339026 0.339038 0.339054 0.339074 0.339098 0.339126 
0.339158 0.339193 0.339231 0.339272 0.339315 0.33936 0.339406 0.339452 0.339499 
0.339546 0.339593 0.339639 0.339684 0.339728 0.33977 0.339812 0.339853 0.339892 
0.33993 0.339968 0.340004 0.34004 0.340075 0.34011 0.340144 0.340178 0.340212 
0.340245 0.340278 0.340311 0.340344 0.340376 0.340408 0.340441 0.340472 0.340504 
0.340535 0.340566 0.340596 0.340627 0.340657 0.340687 0.340717 0.340748 0.34078 
0.340812 0.340846 0.340881 0.340919 0.34096 0.341005 0.341054 0.34111 0.341172 
0.341243 0.341324 0.341417 0.341526 0.341652 0.3418 0.341973 0.342176 0.342419 
0.342702 0.343031 0.343418 0.34383 0.344286 0.344776 0.352509 0.35332 0.353964 
0.354533 0.355034 0.355473 0.355858 0.356196 0.356493 0.356755 0.356987 0.357192 
0.357375 0.357538 0.357684 0.357816 0.357935 0.358042 0.35814 0.358229 0.35831 
0.358384 0.358453 0.358516 0.358575 0.358629 0.35868 0.358727 0.358771 0.358813 
0.358852 0.358889 0.358924 0.358957 0.358989 0.359019 0.359048 0.359076 0.359103 
0.359128 0.359153 0.359177 0.3592 0.359222 0.359244 0.359265 0.359285 0.359305 
0.359325 0.359344 0.359362 0.35938 0.359398 0.359415 0.359432 0.359449 0.359465 
0.359481 0.359497 0.359512 0.359527 0.359542 0.359556 0.359571 0.359584 0.359598 
0.359612 0.359625 0.359638 0.35965 0.359663 0.359675 0.359687 0.359699 0.35971 
0.359721 0.359732 0.359743 0.359753 0.359764 0.359774 0.359784 0.359793 0.359803 
0.359812 0.359821 0.359829 0.359838 0.359846 0.359854 0.359862 0.359869 0.359877 
0.359874 0.359815 0.359317 0.353601 0.339998 0.339995 0.339991 0.339984 0.339974 
0.339961 0.339945 0.339926 0.339902 0.339875 0.339844 0.339809 0.33977 0.339727 
0.33968 0.339629 0.339574 0.339514 0.339451 0.339384 0.339313 0.339238 0.33916 
0.339079 0.338994 0.338907 0.338818 0.338726 0.338632 0.338537 0.338441 0.338343 
0.338245 0.338147 0.338049 0.337952 0.337855 0.33776 0.337666 0.337574 0.337484 
0.337396 0.337311 0.337229 0.33715 0.337074 0.337002 0.336933 0.336868 0.336807 
0.33675 0.336698 0.33665 0.336607 0.336569 0.336535 0.336507 0.336484 0.336466 
0.336454 0.336447 0.336446 0.336451 0.33646 0.336475 0.336495 0.33652 0.33655 
0.336585 0.336624 0.336668 0.336716 0.336768 0.336825 0.336886 0.336951 0.337021 
0.337095 0.337174 0.337258 0.337347 0.337441 0.337538 0.337639 0.337743 0.337849 
0.337957 0.338065 0.338173 0.338279 0.338382 0.338482 0.338577 0.338667 0.33875 
0.338827 0.338896 0.338957 0.339011 0.339056 0.339094 0.339124 0.339147 0.339163 
0.339173 0.339178 0.339178 0.339173 0.339164 0.339152 0.339138 0.339121 0.339104 
0.339086 0.339068 0.339051 0.339035 0.339021 0.33901 0.339001 0.338996 0.338994 
0.338997 0.339004 0.339015 0.339031 0.339051 0.339076 0.339106 0.339139 0.339176 
0.339216 0.339259 0.339305 0.339352 0.3394 0.339449 0.339498 0.339547 0.339595 
0.339642 0.339688 0.339732 0.339776 0.339818 0.339858 0.339897 0.339936 0.339973 