# vtk DataFile Version 5.1
vtk output
ASCII
DATASET UNSTRUCTURED_GRID
POINTS 616 double
-10.1 1.299999997 0 -9.899999997 1.299999997 0 -9.899999997 1.5 0 
-9.699999994 1.299999997 0 -9.699999994 1.5 0 -9.4999999911 1.299999997 0 
-9.4999999911 1.5 0 -9.2999999881 1.299999997 0 -9.2999999881 1.5 0 
-9.0999999851 1.299999997 0 -9.0999999851 1.5 0 -8.8999999821 1.299999997 0 
-8.8999999821 1.5 0 -8.6999999791 1.299999997 0 -8.6999999791 1.5 0 
-8.4999999762 1.299999997 0 -8.4999999762 1.5 0 -8.2999999732 1.299999997 0 
-8.2999999732 1.5 0 -8.0999999702 1.299999997 0 -8.0999999702 1.5 0 
-7.8999999672 1.299999997 0 -7.8999999672 1.5 0 -7.6999999642 1.299999997 0 
-7.6999999642 1.5 0 -7.4999999613 1.299999997 0 -7.4999999613 1.5 0 
-7.2999999583 1.299999997 0 -7.2999999583 1.5 0 -7.0999999553 1.299999997 0 
-7.0999999553 1.5 0 -6.8999999523 1.299999997 0 -6.8999999523 1.5 0 
-6.6999999493 1.299999997 0 -6.6999999493 1.5 0 -6.4999999464 1.299999997 0 
-6.4999999464 1.5 0 -6.2999999434 1.299999997 0 -6.2999999434 1.5 0 
-6.0999999404 1.299999997 0 -6.0999999404 1.5 0 -5.8999999374 1.299999997 0 
-5.8999999374 1.5 0 -5.6999999344 1.299999997 0 -5.6999999344 1.5 0 
-5.4999999315 1.299999997 0 -5.4999999315 1.5 0 -5.2999999285 1.299999997 0 
-5.2999999285 1.5 0 -5.0999999255 1.299999997 0 -5.0999999255 1.5 0 
-4.8999999225 1.299999997 0 -4.8999999225 1.5 0 -4.6999999195 1.299999997 0 
-4.6999999195 1.5 0 -4.4999999166 1.299999997 0 -4.4999999166 1.5 0 
-4.2999999136 1.299999997 0 -4.2999999136 1.5 0 -4.0999999106 1.299999997 0 
-4.0999999106 1.5 0 -3.8999999076 1.299999997 0 -3.8999999076 1.5 0 
-3.6999999046 1.299999997 0 -3.6999999046 1.5 0 -3.4999999017 1.299999997 0 
-3.4999999017 1.5 0 -3.2999998987 1.299999997 0 -3.2999998987 1.5 0 
-3.0999998957 1.299999997 0 -3.0999998957 1.5 0 -2.8999998927 1.299999997 0 
-2.8999998927 1.5 0 -2.6999998897 1.299999997 0 -2.6999998897 1.5 0 
-2.4999998868 1.299999997 0 -2.4999998868 1.5 0 -2.2999998838 1.299999997 0 
-2.2999998838 1.5 0 -2.0999998808 1.299999997 0 -2.0999998808 1.5 0 
-1.8999998778 1.299999997 0 -1.8999998778 1.5 0 -1.6999998748 1.299999997 0 
-1.6999998748 1.5 0 -1.4999998719 1.299999997 0 -1.4999998719 1.5 0 
-1.2999998689 1.299999997 0 -1.2999998689 1.5 0 -1.0999998659 1.299999997 0 
-1.0999998659 1.5 0 -0.89999986291 1.299999997 0 -0.89999986291 1.5 0 
-0.69999985993 1.299999997 0 -0.69999985993 1.5 0 -0.49999985695 1.299999997 0 
-0.49999985695 1.5 0 -0.29999985397 1.299999997 0 -0.29999985397 1.5 0 
-0.099999850988 1.299999997 0 -0.099999850988 1.5 0 0.10000015199 1.299999997 0 
0.10000015199 1.5 0 0.30000015497 1.299999997 0 0.30000015497 1.5 0 
0.50000015795 1.299999997 0 0.50000015795 1.5 0 0.70000016093 1.299999997 0 
0.70000016093 1.5 0 0.90000016391 1.299999997 0 0.90000016391 1.5 0 
1.1000001669 1.299999997 0 1.1000001669 1.5 0 1.3000001699 1.299999997 0 
1.3000001699 1.5 0 1.5000001729 1.299999997 0 1.5000001729 1.5 0 
1.7000001758 1.299999997 0 1.7000001758 1.5 0 1.9000001788 1.299999997 0 
1.9000001788 1.5 0 2.1000001818 1.299999997 0 2.1000001818 1.5 0 
2.3000001848 1.299999997 0 2.3000001848 1.5 0 2.5000001878 1.299999997 0 
2.5000001878 1.5 0 2.7000001907 1.299999997 0 2.7000001907 1.5 0 
2.9000001937 1.299999997 0 2.9000001937 1.5 0 3.1000001967 1.299999997 0 
3.1000001967 1.5 0 3.3000001997 1.299999997 0 3.3000001997 1.5 0 
3.5000002027 1.299999997 0 3.5000002027 1.5 0 3.7000002056 1.299999997 0 
3.7000002056 1.5 0 3.9000002086 1.299999997 0 3.9000002086 1.5 0 
4.1000002116 1.299999997 0 4.1000002116 1.5 0 4.3000002146 1.299999997 0 
4.3000002146 1.5 0 4.5000002176 1.299999997 0 4.5000002176 1.5 0 
4.7000002205 1.299999997 0 4.7000002205 1.5 0 4.9000002235 1.299999997 0 
4.9000002235 1.5 0 5.08 1.299999997 0 -9.899999997 1.099999994 0 
-10.1 1.099999994 0 -9.699999994 1.099999994 0 -9.4999999911 1.099999994 0 
-9.2999999881 1.099999994 0 -9.0999999851 1.099999994 0 -8.8999999821 1.099999994 0 
-8.6999999791 1.099999994 0 -8.4999999762 1.099999994 0 -8.2999999732 1.099999994 0 
-8.0999999702 1.099999994 0 -7.8999999672 1.099999994 0 -7.6999999642 1.099999994 0 
-7.4999999613 1.099999994 0 -7.2999999583 1.099999994 0 -7.0999999553 1.099999994 0 
-6.8999999523 1.099999994 0 -6.6999999493 1.099999994 0 -6.4999999464 1.099999994 0 
-6.2999999434 1.099999994 0 -6.0999999404 1.099999994 0 -5.8999999374 1.099999994 0 
-5.6999999344 1.099999994 0 -5.4999999315 1.099999994 0 -5.2999999285 1.099999994 0 
-5.0999999255 1.099999994 0 -4.8999999225 1.099999994 0 -4.6999999195 1.099999994 0 
-4.4999999166 1.099999994 0 -4.2999999136 1.099999994 0 -4.0999999106 1.099999994 0 
-3.8999999076 1.099999994 0 -3.6999999046 1.099999994 0 -3.4999999017 1.099999994 0 
-3.2999998987 1.099999994 0 -3.0999998957 1.099999994 0 -2.8999998927 1.099999994 0 
-2.6999998897 1.099999994 0 -2.4999998868 1.099999994 0 -2.2999998838 1.099999994 0 
-2.0999998808 1.099999994 0 -1.8999998778 1.099999994 0 -1.6999998748 1.099999994 0 
-1.4999998719 1.099999994 0 -1.2999998689 1.099999994 0 -1.0999998659 1.099999994 0 
-0.89999986291 1.099999994 0 -0.69999985993 1.099999994 0 -0.49999985695 1.099999994 0 
-0.29999985397 1.099999994 0 -0.099999850988 1.099999994 0 0.10000015199 1.099999994 0 
0.30000015497 1.099999994 0 0.50000015795 1.099999994 0 0.70000016093 1.099999994 0 
0.90000016391 1.099999994 0 1.1000001669 1.099999994 0 1.3000001699 1.099999994 0 
1.5000001729 1.099999994 0 1.7000001758 1.099999994 0 1.9000001788 1.099999994 0 
2.1000001818 1.099999994 0 2.3000001848 1.099999994 0 2.5000001878 1.099999994 0 
2.7000001907 1.099999994 0 2.9000001937 1.099999994 0 3.1000001967 1.099999994 0 
3.3000001997 1.099999994 0 3.5000002027 1.099999994 0 3.7000002056 1.099999994 0 
3.9000002086 1.099999994 0 4.1000002116 1.099999994 0 4.3000002146 1.099999994 0 
4.5000002176 1.099999994 0 4.7000002205 1.099999994 0 4.9000002235 1.099999994 0 
5.08 1.099999994 0 -9.899999997 0.89999999106 0 -10.1 0.89999999106 0 
-9.699999994 0.89999999106 0 -9.4999999911 0.89999999106 0 -9.2999999881 0.89999999106 0 
-9.0999999851 0.89999999106 0 -8.8999999821 0.89999999106 0 -8.6999999791 0.89999999106 0 
-8.4999999762 0.89999999106 0 -8.2999999732 0.89999999106 0 -8.0999999702 0.89999999106 0 
-7.8999999672 0.89999999106 0 -7.6999999642 0.89999999106 0 -7.4999999613 0.89999999106 0 
-7.2999999583 0.89999999106 0 -7.0999999553 0.89999999106 0 -6.8999999523 0.89999999106 0 
-6.6999999493 0.89999999106 0 -6.4999999464 0.89999999106 0 -6.2999999434 0.89999999106 0 
-6.0999999404 0.89999999106 0 -5.8999999374 0.89999999106 0 -5.6999999344 0.89999999106 0 
-5.4999999315 0.89999999106 0 -5.2999999285 0.89999999106 0 -5.0999999255 0.89999999106 0 
-4.8999999225 0.89999999106 0 -4.6999999195 0.89999999106 0 -4.4999999166 0.89999999106 0 
-4.2999999136 0.89999999106 0 -4.0999999106 0.89999999106 0 -3.8999999076 0.89999999106 0 
-3.6999999046 0.89999999106 0 -3.4999999017 0.89999999106 0 -3.2999998987 0.89999999106 0 
-3.0999998957 0.89999999106 0 -2.8999998927 0.89999999106 0 -2.6999998897 0.89999999106 0 
-2.4999998868 0.89999999106 0 -2.2999998838 0.89999999106 0 -2.0999998808 0.89999999106 0 
-1.8999998778 0.89999999106 0 -1.6999998748 0.89999999106 0 -1.4999998719 0.89999999106 0 
-1.2999998689 0.89999999106 0 -1.0999998659 0.89999999106 0 -0.89999986291 0.89999999106 0 
-0.69999985993 0.89999999106 0 -0.49999985695 0.89999999106 0 -0.29999985397 0.89999999106 0 
-0.099999850988 0.89999999106 0 0.10000015199 0.89999999106 0 0.30000015497 0.89999999106 0 
0.50000015795 0.89999999106 0 0.70000016093 0.89999999106 0 0.90000016391 0.89999999106 0 
1.1000001669 0.89999999106 0 1.3000001699 0.89999999106 0 1.5000001729 0.89999999106 0 
1.7000001758 0.89999999106 0 1.9000001788 0.89999999106 0 2.1000001818 0.89999999106 0 
2.3000001848 0.89999999106 0 2.5000001878 0.89999999106 0 2.7000001907 0.89999999106 0 
2.9000001937 0.89999999106 0 3.1000001967 0.89999999106 0 3.3000001997 0.89999999106 0 
3.5000002027 0.89999999106 0 3.7000002056 0.89999999106 0 3.9000002086 0.89999999106 0 
4.1000002116 0.89999999106 0 4.3000002146 0.89999999106 0 4.5000002176 0.89999999106 0 
4.7000002205 0.89999999106 0 4.9000002235 0.89999999106 0 5.08 0.89999999106 0 
-9.899999997 0.69999998808 0 -10.1 0.69999998808 0 -9.699999994 0.69999998808 0 
-9.4999999911 0.69999998808 0 -9.2999999881 0.69999998808 0 -9.0999999851 0.69999998808 0 
-8.8999999821 0.69999998808 0 -8.6999999791 0.69999998808 0 -8.4999999762 0.69999998808 0 
-8.2999999732 0.69999998808 0 -8.0999999702 0.69999998808 0 -7.8999999672 0.69999998808 0 
-7.6999999642 0.69999998808 0 -7.4999999613 0.69999998808 0 -7.2999999583 0.69999998808 0 
-7.0999999553 0.69999998808 0 -6.8999999523 0.69999998808 0 -6.6999999493 0.69999998808 0 
-6.4999999464 0.69999998808 0 -6.2999999434 0.69999998808 0 -6.0999999404 0.69999998808 0 
-5.8999999374 0.69999998808 0 -5.6999999344 0.69999998808 0 -5.4999999315 0.69999998808 0 
-5.2999999285 0.69999998808 0 -5.0999999255 0.69999998808 0 -4.8999999225 0.69999998808 0 
-4.6999999195 0.69999998808 0 -4.4999999166 0.69999998808 0 -4.2999999136 0.69999998808 0 
-4.0999999106 0.69999998808 0 -3.8999999076 0.69999998808 0 -3.6999999046 0.69999998808 0 
-3.4999999017 0.69999998808 0 -3.2999998987 0.69999998808 0 -3.0999998957 0.69999998808 0 
-2.8999998927 0.69999998808 0 -2.6999998897 0.69999998808 0 -2.4999998868 0.69999998808 0 
-2.2999998838 0.69999998808 0 -2.0999998808 0.69999998808 0 -1.8999998778 0.69999998808 0 
-1.6999998748 0.69999998808 0 -1.4999998719 0.69999998808 0 -1.2999998689 0.69999998808 0 
-1.0999998659 0.69999998808 0 -0.89999986291 0.69999998808 0 -0.69999985993 0.69999998808 0 
-0.49999985695 0.69999998808 0 -0.29999985397 0.69999998808 0 -0.099999850988 0.69999998808 0 
0.10000015199 0.69999998808 0 0.30000015497 0.69999998808 0 0.50000015795 0.69999998808 0 
0.70000016093 0.69999998808 0 0.90000016391 0.69999998808 0 1.1000001669 0.69999998808 0 
[...]
CELL_DATA 532
FIELD FieldData 4
Water_Depth_m 1 532 float
0.340131 0.34038 0.340618 0.340838 0.341034 0.341201 0.341337 0.34144 0.341509 
0.341545 0.341549 0.34152 0.341456 0.341357 0.341224 0.341059 0.340866 0.340653 
0.34043 0.340215 0.340027 0.339887 0.339812 0.339814 0.339891 0.340025 0.3402 
0.340395 0.340594 0.340784 0.340956 0.341109 0.341243 0.341361 0.341465 0.341557 
0.341641 0.341716 0.341785 0.341852 0.341921 0.341999 0.342095 0.342228 0.342426 
0.342739 0.34324 0.344039 0.345256 0.346991 0.349163 0.351563 0.353635 0.355148 
0.356152 0.35681 0.357246 0.357539 0.357741 0.357883 0.357987 0.358065 0.358126 
0.358175 0.358217 0.358252 0.358283 0.358311 0.358336 0.35836 0.358382 0.358402 
0.358421 0.358431 0.358444 0.351029 0.340132 0.340388 0.340633 0.340859 0.341059 
0.34123 0.341368 0.341472 0.34154 0.341576 0.341579 0.341549 0.341483 0.341382 
0.341245 0.341073 0.340871 0.340645 0.340408 0.340175 0.33997 0.339816 0.339736 
0.339742 0.339831 0.339983 0.340175 0.340388 0.3406 0.340797 0.340972 0.341125 
0.341257 0.341372 0.341474 0.341565 0.341647 0.34172 0.341787 0.34185 0.341914 
0.341983 0.342067 0.342178 0.342337 0.342583 0.342978 0.343627 0.344659 0.346299 
0.348566 0.351505 0.353874 0.355423 0.356377 0.356974 0.35736 0.357617 0.357793 
0.357918 0.358011 0.358081 0.358137 0.358182 0.358221 0.358255 0.358285 0.358312 
0.358337 0.35836 0.358382 0.358402 0.358421 0.358431 0.358444 0.351029 0.340138 
0.340407 0.340664 0.340901 0.34111 0.341286 0.341427 0.34153 0.341597 0.341632 
0.341634 0.341602 0.341533 0.341426 0.34128 0.341096 0.340876 0.340627 0.340359 
0.340092 0.339852 0.33967 0.339577 0.339593 0.339711 0.339901 0.340133 0.340383 
0.34062 0.34083 0.341008 0.341158 0.341284 0.341393 0.341491 0.34158 0.34166 
0.341731 0.341793 0.341849 0.341903 0.341958 0.34202 0.342094 0.34219 0.342325 
0.342539 0.342893 0.343498 0.344737 0.346888 0.351528 0.354512 0.356026 0.35683 
0.357292 0.357576 0.357762 0.35789 0.357983 0.358054 0.35811 0.358156 0.358195 
0.35823 0.35826 0.358289 0.358315 0.358339 0.358362 0.358383 0.358403 0.358422 
0.358431 0.358444 0.351029 0.340146 0.340432 0.340705 0.340955 0.341172 0.341351 
0.341493 0.341596 0.341663 0.341697 0.341697 0.34166 0.341585 0.341469 0.341312 
0.34111 0.340865 0.340582 0.340272 0.339956 0.339665 0.339442 0.339334 0.339375 
0.339551 0.339809 0.340109 0.340403 0.340661 0.340875 0.341049 0.341191 0.341309 
0.341412 0.341508 0.341595 0.341674 0.341741 0.341796 0.341843 0.341886 0.341927 
0.341968 0.342009 0.342054 0.342099 0.342158 0.342221 0.342394 0.342455 0.34264 
0.352401 0.355906 0.357019 0.357493 0.35773 0.357865 0.357954 0.358017 0.358068 
0.35811 0.358147 0.358181 0.358211 0.35824 0.358268 0.358293 0.358318 0.358341 
0.358363 0.358384 0.358404 0.358422 0.358431 0.358444 0.35103 0.34014 0.340431 
0.340715 0.340975 0.3412 0.341387 0.341536 0.341645 0.341713 0.341744 0.341738 
0.341694 0.341612 0.341487 0.341317 0.341098 0.34083 0.340517 0.340171 0.339814 
0.339487 0.339243 0.339147 0.339239 0.339481 0.339784 0.3401 0.340393 0.340643 
0.340851 0.341021 0.341163 0.341284 0.341391 0.341489 0.341579 0.341657 0.341718 
0.341764 0.341802 0.341836 0.341868 0.341898 0.341926 0.341953 0.341981 0.341997 
0.342001 0.341991 0.341912 0.345946 0.358586 0.358401 0.358332 0.358268 0.358215 
0.358179 0.358159 0.358152 0.358157 0.358169 0.358186 0.358206 0.358229 0.358252 
0.358275 0.358298 0.358321 0.358343 0.358365 0.358385 0.358404 0.358423 0.358432 
0.358444 0.35103 0.340142 0.340435 0.34072 0.340975 0.341192 0.341371 0.341515 
0.341623 0.341692 0.341725 0.34172 0.341677 0.341594 0.341468 0.341295 0.341072 
0.340799 0.340483 0.340137 0.339788 0.339478 0.339263 0.339203 0.339315 0.339548 
0.339838 0.340135 0.340411 0.340649 0.340849 0.341015 0.341156 0.341277 0.341384 
0.34148 0.341566 0.34164 0.341702 0.341752 0.341795 0.341833 0.341867 0.341898 
0.341925 0.34195 0.341971 0.341984 0.341987 0.341977 0.341948 0.347448 0.360242 
0.359728 0.359257 0.358889 0.358627 0.358451 0.358339 0.358271 0.358235 0.358221 
0.358221 0.358229 0.358244 0.358262 0.358282 0.358303 0.358324 0.358345 0.358366 
0.358386 0.358405 0.358423 0.358432 0.358444 0.35103 0.340155 0.340449 0.34072 
0.340959 0.341164 0.341335 0.341474 0.341581 0.34165 0.341683 0.341679 0.341639 
0.341558 0.341436 0.341268 0.341051 0.340794 0.340498 0.34018 0.339865 0.339593 
0.339412 0.339371 0.339461 0.33965 0.339895 0.340158 0.340408 0.340633 0.340828 
0.340996 0.341139 0.341263 0.341372 0.341468 0.341553 0.341626 0.341689 0.341743 
0.341789 0.341828 0.341864 0.341895 0.341923 0.341947 0.341966 0.341979 0.341983 
0.341977 0.341963 0.349673 0.361034 0.360474 0.359875 0.359358 0.358962 0.358682 
0.358495 0.358376 0.358305 0.358267 0.358251 0.35825 0.358257 0.358271 0.358288 
0.358307 0.358327 0.358347 0.358367 0.358387 0.358406 0.358425 0.358431 0.358443 
0.351029 
Water_Elev_m 1 532 float
0.340131 0.34038 0.340618 0.340838 0.341034 0.341201 0.341337 0.34144 0.341509 
0.341545 0.341549 0.34152 0.341456 0.341357 0.341224 0.341059 0.340866 0.340653 
0.34043 0.340215 0.340027 0.339887 0.339812 0.339814 0.339891 0.340025 0.3402 
0.340395 0.340594 0.340784 0.340956 0.341109 0.341243 0.341361 0.341465 0.341557 
0.341641 0.341716 0.341785 0.341852 0.341921 0.341999 0.342095 0.342228 0.342426 
0.342739 0.34324 0.344039 0.345256 0.346991 0.349163 0.351563 0.353635 0.355148 
0.356152 0.35681 0.357246 0.357539 0.357741 0.357883 0.357987 0.358065 0.358126 
0.358175 0.358217 0.358252 0.358283 0.358311 0.358336 0.35836 0.358382 0.358402 
0.358421 0.358431 0.358444 0.351029 0.340132 0.340388 0.340633 0.340859 0.341059 
0.34123 0.341368 0.341472 0.34154 0.341576 0.341579 0.341549 0.341483 0.341382 
0.341245 0.341073 0.340871 0.340645 0.340408 0.340175 0.33997 0.339816 0.339736 
0.339742 0.339831 0.339983 0.340175 0.340388 0.3406 0.340797 0.340972 0.341125 
0.341257 0.341372 0.341474 0.341565 0.341647 0.34172 0.341787 0.34185 0.341914 
0.341983 0.342067 0.342178 0.342337 0.342583 0.342978 0.343627 0.344659 0.346299 
0.348566 0.351505 0.353874 0.355423 0.356377 0.356974 0.35736 0.357617 0.357793 
0.357918 0.358011 0.358081 0.358137 0.358182 0.358221 0.358255 0.358285 0.358312 
0.358337 0.35836 0.358382 0.358402 0.358421 0.358431 0.358444 0.351029 0.340138 
0.340407 0.340664 0.340901 0.34111 0.341286 0.341427 0.34153 0.341597 0.341632 
0.341634 0.341602 0.341533 0.341426 0.34128 0.341096 0.340876 0.340627 0.340359 
0.340092 0.339852 0.33967 0.339577 0.339593 0.339711 0.339901 0.340133 0.340383 
0.34062 0.34083 0.341008 0.341158 0.341284 0.341393 0.341491 0.34158 0.34166 
0.341731 0.341793 0.341849 0.341903 0.341958 0.34202 0.342094 0.34219 0.342325 
0.342539 0.342893 0.343498 0.344737 0.346888 0.351528 0.354512 0.356026 0.35683 
0.357292 0.357576 0.357762 0.35789 0.357983 0.358054 0.35811 0.358156 0.358195 
0.35823 0.35826 0.358289 0.358315 0.358339 0.358362 0.358383 0.358403 0.358422 
0.358431 0.358444 0.351029 0.340146 0.340432 0.340705 0.340955 0.341172 0.341351 
0.341493 0.341596 0.341663 0.341697 0.341697 0.34166 0.341585 0.341469 0.341312 
0.34111 0.340865 0.340582 0.340272 0.339956 0.339665 0.339442 0.339334 0.339375 
0.339551 0.339809 0.340109 0.340403 0.340661 0.340875 0.341049 0.341191 0.341309 
0.341412 0.341508 0.341595 0.341674 0.341741 0.341796 0.341843 0.341886 0.341927 
0.341968 0.342009 0.342054 0.342099 0.342158 0.342221 0.342394 0.342455 0.34264 
0.352401 0.355906 0.357019 0.357493 0.35773 0.357865 0.357954 0.358017 0.358068 
0.35811 0.358147 0.358181 0.358211 0.35824 0.358268 0.358293 0.358318 0.358341 
0.358363 0.358384 0.358404 0.358422 0.358431 0.358444 0.35103 0.34014 0.340431 
0.340715 0.340975 0.3412 0.341387 0.341536 0.341645 0.341713 0.341744 0.341738 
0.341694 0.341612 0.341487 0.341317 0.341098 0.34083 0.340517 0.340171 0.339814 
0.339487 0.339243 0.339147 0.339239 0.339481 0.339784 0.3401 0.340393 0.340643 
0.340851 0.341021 0.341163 0.341284 0.341391 0.341489 0.341579 0.341657 0.341718 
0.341764 0.341802 0.341836 0.341868 0.341898 0.341926 0.341953 0.341981 0.341997 
0.342001 0.341991 0.341912 0.345946 0.358586 0.358401 0.358332 0.358268 0.358215 
0.358179 0.358159 0.358152 0.358157 0.358169 0.358186 0.358206 0.358229 0.358252 
0.358275 0.358298 0.358321 0.358343 0.358365 0.358385 0.358404 0.358423 0.358432 
0.358444 0.35103 0.340142 0.340435 0.34072 0.340975 0.341192 0.341371 0.341515 
0.341623 0.341692 0.341725 0.34172 0.341677 0.341594 0.341468 0.341295 0.341072 
0.340799 0.340483 0.340137 0.339788 0.339478 0.339263 0.339203 0.339315 0.339548 
0.339838 0.340135 0.340411 0.340649 0.340849 0.341015 0.341156 0.341277 0.341384 
0.34148 0.341566 0.34164 0.341702 0.341752 0.341795 0.341833 0.341867 0.341898 
0.341925 0.34195 0.341971 0.341984 0.341987 0.341977 0.341948 0.347448 0.360242 
0.359728 0.359257 0.358889 0.358627 0.358451 0.358339 0.358271 0.358235 0.358221 
0.358221 0.358229 0.358244 0.358262 0.358282 0.358303 0.358324 0.358345 0.358366 
0.358386 0.358405 0.358423 0.358432 0.358444 0.35103 0.340155 0.340449 0.34072 
0.340959 0.341164 0.341335 0.341474 0.341581 0.34165 0.341683 0.341679 0.341639 
0.341558 0.341436 0.341268 0.341051 0.340794 0.340498 0.34018 0.339865 0.339593 
0.339412 0.339371 0.339461 0.33965 0.339895 0.340158 0.340408 0.340633 0.340828 
0.340996 0.341139 0.341263 0.341372 0.341468 0.341553 0.341626 0.341689 0.341743 
0.341789 0.341828 0.341864 0.341895 0.341923 0.341947 0.341966 0.341979 0.341983 
0.341977 0.341963 0.349673 0.361034 0.360474 0.359875 0.359358 0.358962 0.358682 
0.358495 0.358376 0.358305 0.358267 0.358251 0.35825 0.358257 0.358271 0.358288 
0.358307 0.358327 0.358347 0.358367 0.358387 0.358406 0.358425 0.358431 0.358443 
0.351029 
Velocity_cell_m_p_s 3 532 double
-0.5075006485 0.0022854092531 -0 -0.50249570608 0.0022331383079 -0 -0.49780488014 0.0020847704727 -0 
-0.49353390932 0.001831705682 -0 -0.48988962173 0.0014821182704 -0 -0.48705029488 0.0010547462152 -0 
-0.48515346646 0.00057029700838 -0 -0.48429232836 5.1505772717e-05 -0 -0.48451659083 -0.00048203472397 -0 
-0.48582953215 -0.0010040731868 -0 -0.48820462823 -0.0015235025203 -0 -0.49162834883 -0.0020426525734 -0 
-0.49611005187 -0.0025570809375 -0 -0.50164538622 -0.00305887172 -0 -0.50819766521 -0.003535043681 -0 
-0.51569628716 -0.0039654430002 -0 -0.52402025461 -0.0043209646828 -0 -0.53297930956 -0.0045635700226 -0 
-0.54229718447 -0.0046490808018 -0 -0.55160582066 -0.0045344685204 -0 -0.56045740843 -0.0041892761365 -0 
-0.56836646795 -0.0036119413562 -0 -0.57488405704 -0.0028435557615 -0 -0.57965427637 -0.0019717670511 -0 
-0.58255940676 -0.0011195273837 -0 -0.58380049467 -0.00039487567847 -0 -0.58374553919 0.00014103854483 -0 
-0.58280420303 0.00048010598402 -0 -0.58139097691 0.00062200974207 -0 -0.57987713814 0.00060419650981 -0 
-0.57852822542 0.00048751797294 -0 -0.57748770714 0.00032769457903 -0 -0.57680171728 0.00016256709932 -0 
-0.5764555335 1.3662919628e-05 -0 -0.57640391588 -0.00011045621068 -0 -0.57659912109 -0.00021512816602 -0 
-0.57700890303 -0.00030986632919 -0 -0.57761317492 -0.00039780320367 -0 -0.57839083672 -0.00047608162276 -0 
-0.5793081522 -0.00053657538956 -0 -0.580311656 -0.00057108915644 -0 -0.58131843805 -0.00056306202896 -0 
-0.58220750093 -0.00049972470151 -0 -0.58277881145 -0.00033018362592 -0 -0.58272302151 -2.2816624551e-05 -0 
-0.58147543669 0.00060873769689 -0 -0.57815659046 0.001647526864 -0 -0.57122963667 0.0036470214836 -0 
-0.5586989522 0.0065478016622 -0 -0.53770393133 0.011483165435 -0 -0.50633788109 0.01663753204 -0 
-0.46454373002 0.022263113409 -0 -0.41844022274 0.021771563217 -0 -0.37803587317 0.017347868532 -0 
-0.34737625718 0.012576932088 -0 -0.32566359639 0.0087314629927 -0 -0.3107855618 0.0059367571957 -0 
-0.30076110363 0.0039942790754 -0 -0.29407295585 0.0026723654009 -0 -0.28964263201 0.0017823406961 -0 
-0.28672850132 0.0011865260312 -0 -0.28482845426 0.00078896968625 -0 -0.28360530734 0.00052421988221 -0 
-0.28283372521 0.00034811985097 -0 -0.28236341476 0.00023106468143 -0 -0.28209429979 0.00015327714209 -0 
-0.28195995092 0.00010157248471 -0 -0.28191611171 6.7170913098e-05 -0 -0.28193345666 4.4230098865e-05 -0 
-0.28199252486 2.886736911e-05 -0 -0.28208047152 1.8514332623e-05 -0 -0.28218871355 1.14974182e-05 -0 
-0.28231450915 6.7675218816e-06 -0 -0.28245195746 3.7274355691e-06 -0 -0.28259900212 1.9490782961e-06 -0 
-0.40485313535 1.9185574729e-06 -0 -0.49642533064 0.0066873799078 -0 -0.49172914028 0.006562102586 -0 
-0.48729929328 0.0061305002309 -0 -0.48326727748 0.0053798225708 -0 -0.47984451056 0.0043403217569 -0 
-0.47720342875 0.0030727747362 -0 -0.47546863556 0.0016416623257 -0 -0.47472295165 0.00011025888671 -0 
-0.4750135541 -0.0014662510948 -0 -0.47635421157 -0.0030185701326 -0 -0.47874006629 -0.0045743556693 -0 
-0.48217588663 -0.0061355973594 -0 -0.48668164015 -0.0076868333854 -0 -0.49226206541 -0.0092052649707 -0 
-0.4988926053 -0.010653775185 -0 -0.50651824474 -0.011973155662 -0 -0.51503407955 -0.013075456023 -0 
-0.52426218987 -0.013843140565 -0 -0.5339282155 -0.014136320911 -0 -0.54364705086 -0.013814777136 -0 
-0.55292713642 -0.012772511691 -0 -0.56121003628 -0.01099145133 -0 -0.567956388 -0.0085925105959 -0 
-0.57272666693 -0.0058563952334 -0 -0.57538372278 -0.003186506452 -0 -0.57619994879 -0.00095110363327 -0 
-0.5756470561 0.00066938996315 -0 -0.57422864437 0.0016562704695 -0 -0.57245153189 0.0020050022285 -0 
-0.57073575258 0.0018728493014 -0 -0.56932640076 0.0014650261728 -0 -0.56831645966 0.00095537171001 -0 
-0.56770271063 0.00044989780872 -0 -0.56743323803 8.6899462985e-06 -0 -0.56743806601 -0.00034992111614 -0 
-0.56766486168 -0.00065363699105 -0 -0.56809163094 -0.00093341100728 -0 -0.56871116161 -0.0011992531363 -0 
-0.56951355934 -0.0014399862848 -0 -0.57047122717 -0.0016292425571 -0 -0.57153522968 -0.0017413205933 -0 
-0.57263123989 -0.0017306985101 -0 -0.5736579299 -0.0015632458963 -0 -0.57445371151 -0.0010960887885 -0 
-0.57479035854 -0.00026203214657 -0 -0.57422715425 0.0014864818659 -0 -0.5721668005 0.0042475112714 -0 
-0.56715995073 0.010004830547 -0 -0.55763232708 0.017816528678 -0 -0.53952884674 0.03340459615 -0 
-0.50992739201 0.048760708421 -0 -0.4641135633 0.071423143148 -0 -0.4107324779 0.067725546658 -0 
-0.36804327369 0.051847338676 -0 -0.33861705661 0.036700788885 -0 -0.31901040673 0.025145772845 -0 
-0.30604439974 0.016973847523 -0 -0.29748684168 0.011373804882 -0 -0.29184857011 0.0075918305665 -0 
-0.28814515471 0.005056344904 -0 -0.28572559357 0.0033631785773 -0 -0.28415885568 0.0022350961808 -0 
-0.28315907717 0.0014845578698 -0 -0.28253659606 0.00098562939093 -0 -0.28216561675 0.00065411516698 -0 
-0.28196257353 0.00043386628386 -0 -0.28187209368 0.0002874902857 -0 -0.28185731173 0.00019010234973 -0 
-0.28189390898 0.00012514679111 -0 -0.28196573257 8.1617654359e-05 -0 -0.28206208348 5.2227736887e-05 -0 
-0.28217601776 3.2223739254e-05 -0 -0.28230583668 1.8646971512e-05 -0 -0.28244629502 9.8475466075e-06 -0 
-0.28259566426 4.9203554227e-06 -0 -0.40485194325 4.3875352276e-06 -0 -0.45665445924 0.010259444825 -0 
-0.45332989097 0.010064871982 -0 -0.45028933883 0.0093662226573 -0 -0.4476133883 0.0081558292732 -0 
-0.44545051455 0.0065016127191 -0 -0.44390025735 0.0045105316676 -0 -0.44302129745 0.0022865151986 -0 
-0.44285857677 -9.248094284e-05 -0 -0.44344854355 -0.0025466545485 -0 -0.44487169385 -0.005042782519 -0 
-0.44721657038 -0.0075840437785 -0 -0.45052203536 -0.010151102208 -0 -0.45482203364 -0.012712471187 -0 
-0.46013528109 -0.015235917643 -0 -0.46646267176 -0.017667159438 -0 -0.47378316522 -0.019912587479 -0 
-0.48202949762 -0.021824410185 -0 -0.49105623364 -0.023196583614 -0 -0.50060534477 -0.023775631562 -0 
-0.51027649641 -0.023292899132 -0 -0.51951271296 -0.021522050723 -0 -0.52762436867 -0.018381731585 -0 
-0.533893466 -0.014059307054 -0 -0.53771364689 -0.0090870549902 -0 -0.5389431715 -0.0042804498225 -0 
-0.53809696436 -0.00044048443669 -0 -0.53596007824 0.0021723394748 -0 -0.53345185518 0.0033974202815 -0 
-0.53133666515 0.0035168975592 -0 -0.52988231182 0.0029626972973 -0 -0.52907049656 0.0021056940313 -0 
-0.52876138687 0.0012158079771 -0 -0.52879875898 0.00040961010382 -0 -0.52904963493 -0.000240272464 -0 
-0.52944272757 -0.00076917355182 -0 -0.52998125553 -0.0012374430662 -0 -0.53068554401 -0.0016883843346 -0 
-0.53158479929 -0.0021447162144 -0 -0.53269815445 -0.0025724337902 -0 -0.5340064168 -0.0029158070683 -0 
-0.53545886278 -0.003128668759 -0 -0.53699457645 -0.0031548989937 -0 -0.53854233027 -0.002941688057 -0 
-0.54002422094 -0.0023117838427 -0 -0.54132199287 -0.0011559537379 -0 -0.54228889942 0.001214287011 -0 
-0.54287582636 0.0047339377925 -0 -0.54252833128 0.012817403302 -0 -0.54109376669 0.022508226335 -0 
-0.53158098459 0.05096989125 -0 -0.51281309128 0.071220420301 -0 -0.45995035768 0.1390953958 -0 
-0.38893318176 0.11919405311 -0 -0.34503895044 0.084141373634 -0 -0.32042631507 0.057051867247 -0 
-0.30593082309 0.038222283125 -0 -0.29699927568 0.025492805988 -0 -0.29134434462 0.01696893014 -0 
-0.28771579266 0.011283130385 -0 -0.28537863493 0.0074975923635 -0 -0.28387910128 0.0049797506072 -0 
-0.28292864561 0.0033063618466 -0 -0.28234028816 0.0021947755013 -0 -0.28199189901 0.0014565883903 -0 
-0.28180322051 0.00096642348217 -0 -0.28172129393 0.00064091250533 -0 -0.28171116114 0.0004246350145 -0 
-0.28174966574 0.00028074541478 -0 -0.28182145953 0.00018473652017 -0 -0.28191649914 0.00012030151993 -0 
-0.28202819824 7.6614582213e-05 -0 -0.28215238452 4.6580167691e-05 -0 -0.282289505 2.5830129744e-05 -0 
-0.2824357152 1.2032543054e-05 -0 -0.28258994222 4.7654748414e-06 -0 -0.40485015512 3.5122277495e-06 -0 
-0.36554190516 0.012335067615 -0 -0.3641282618 0.0118785901 -0 -0.36328572035 0.010773789138 -0 
-0.36303797364 0.0090397950262 -0 -0.36337310076 0.0068542384543 -0 -0.36414158344 0.0043963585049 -0 
-0.36515897512 0.0017704482889 -0 -0.36631754041 -0.0010092122247 -0 -0.36768135428 -0.0039669829421 -0 
-0.36940652132 -0.0071018971503 -0 -0.37156620622 -0.010331587866 -0 -0.37417152524 -0.013601649553 -0 
-0.37723740935 -0.016871310771 -0 -0.38077798486 -0.02011132054 -0 -0.38480594754 -0.023260798305 -0 
-0.38931974769 -0.026196565479 -0 -0.39426866174 -0.028705261648 -0 -0.39951083064 -0.030480282381 -0 
-0.40477177501 -0.031130455434 -0 -0.40960207582 -0.030216326937 -0 -0.41334336996 -0.027329560369 -0 
-0.4151622653 -0.022280363366 -0 -0.41424453259 -0.015372435562 -0 -0.41015771031 -0.0076556974091 -0 
-0.40357065201 -0.00083444442134 -0 -0.39624676108 0.0036701376084 -0 -0.39007303119 0.0057294578291 -0 
-0.3860360086 0.0057697934099 -0 -0.38403961062 0.0047062281519 -0 -0.38352462649 0.0032724579796 -0 
-0.3838442266 0.0018937839195 -0 -0.38450834155 0.00074403407052 -0 -0.38518768549 -0.00011307053501 -0 
-0.3857370615 -0.00075962609844 -0 -0.38623332977 -0.0013525029644 -0 -0.38674682379 -0.001892666216 -0 
-0.38733327389 -0.0024838191457 -0 -0.38811442256 -0.0031637982465 -0 -0.38913592696 -0.0038015311584 -0 
-0.39033570886 -0.0042951786891 -0 -0.3916387856 -0.0046009882353 -0 -0.39301609993 -0.0046960897744 -0 
-0.39449238777 -0.0045394343324 -0 -0.39615294337 -0.0040004975162 -0 -0.39812675118 -0.0029315443244 -0 
-0.40070000291 -0.00084253132809 -0 -0.40431860089 0.002114924835 -0 -0.41099342704 0.0082901325077 -0 
-0.42248040438 0.015551161952 -0 -0.44802153111 0.039581738412 -0 -0.49484607577 0.043015100062 -0 
-0.4358664453 0.26236897707 -0 -0.32918483019 0.16488498449 -0 -0.30250525475 0.10613396019 -0 
-0.29209414124 0.068948291242 -0 -0.28722855449 0.045242030174 -0 -0.2846403718 0.029854880646 -0 
-0.28315889835 0.019756443799 -0 -0.28228625655 0.013091257773 -0 -0.28177425265 0.0086804442108 -0 
-0.28148558736 0.0057570422068 -0 -0.28133901954 0.003818795085 -0 -0.28128433228 0.0025333533995 -0 
-0.28129017353 0.0016806151252 -0 -0.28133654594 0.0011147813639 -0 -0.28141051531 0.00073919497663 -0 
-0.28150367737 0.00048971391516 -0 -0.28161048889 0.00032373334398 -0 -0.2817274034 0.00021291365556 -0 