# vtk DataFile Version 5.1
vtk output
ASCII
DATASET UNSTRUCTURED_GRID
POINTS 10043 double
-10.1 1.4499999993 0 -10.049999999 1.4499999993 0 -10.049999999 1.5 0 
-9.9999999985 1.4499999993 0 -9.9999999985 1.5 0 -9.9499999978 1.4499999993 0 
-9.9499999978 1.5 0 -9.899999997 1.4499999993 0 -9.899999997 1.5 0 
-9.8499999963 1.4499999993 0 -9.8499999963 1.5 0 -9.7999999955 1.4499999993 0 
-9.7999999955 1.5 0 -9.7499999948 1.4499999993 0 -9.7499999948 1.5 0 
-9.699999994 1.4499999993 0 -9.699999994 1.5 0 -9.6499999933 1.4499999993 0 
-9.6499999933 1.5 0 -9.5999999925 1.4499999993 0 -9.5999999925 1.5 0 
-9.5499999918 1.4499999993 0 -9.5499999918 1.5 0 -9.4999999911 1.4499999993 0 
-9.4999999911 1.5 0 -9.4499999903 1.4499999993 0 -9.4499999903 1.5 0 
-9.3999999896 1.4499999993 0 -9.3999999896 1.5 0 -9.3499999888 1.4499999993 0 
-9.3499999888 1.5 0 -9.2999999881 1.4499999993 0 -9.2999999881 1.5 0 
-9.2499999873 1.4499999993 0 -9.2499999873 1.5 0 -9.1999999866 1.4499999993 0 
-9.1999999866 1.5 0 -9.1499999858 1.4499999993 0 -9.1499999858 1.5 0 
-9.0999999851 1.4499999993 0 -9.0999999851 1.5 0 -9.0499999844 1.4499999993 0 
-9.0499999844 1.5 0 -8.9999999836 1.4499999993 0 -8.9999999836 1.5 0 
-8.9499999829 1.4499999993 0 -8.9499999829 1.5 0 -8.8999999821 1.4499999993 0 
-8.8999999821 1.5 0 -8.8499999814 1.4499999993 0 -8.8499999814 1.5 0 
-8.7999999806 1.4499999993 0 -8.7999999806 1.5 0 -8.7499999799 1.4499999993 0 
-8.7499999799 1.5 0 -8.6999999791 1.4499999993 0 -8.6999999791 1.5 0 
-8.6499999784 1.4499999993 0 -8.6499999784 1.5 0 -8.5999999776 1.4499999993 0 
-8.5999999776 1.5 0 -8.5499999769 1.4499999993 0 -8.5499999769 1.5 0 
-8.4999999762 1.4499999993 0 -8.4999999762 1.5 0 -8.4499999754 1.4499999993 0 
-8.4499999754 1.5 0 -8.3999999747 1.4499999993 0 -8.3999999747 1.5 0 
-8.3499999739 1.4499999993 0 -8.3499999739 1.5 0 -8.2999999732 1.4499999993 0 
-8.2999999732 1.5 0 -8.2499999724 1.4499999993 0 -8.2499999724 1.5 0 
-8.1999999717 1.4499999993 0 -8.1999999717 1.5 0 -8.1499999709 1.4499999993 0 
-8.1499999709 1.5 0 -8.0999999702 1.4499999993 0 -8.0999999702 1.5 0 
-8.0499999695 1.4499999993 0 -8.0499999695 1.5 0 -7.9999999687 1.4499999993 0 
-7.9999999687 1.5 0 -7.949999968 1.4499999993 0 -7.949999968 1.5 0 
-7.8999999672 1.4499999993 0 -7.8999999672 1.5 0 -7.8499999665 1.4499999993 0 
-7.8499999665 1.5 0 -7.7999999657 1.4499999993 0 -7.7999999657 1.5 0 
-7.749999965 1.4499999993 0 -7.749999965 1.5 0 -7.6999999642 1.4499999993 0 
-7.6999999642 1.5 0 -7.6499999635 1.4499999993 0 -7.6499999635 1.5 0 
-7.5999999627 1.4499999993 0 -7.5999999627 1.5 0 -7.549999962 1.4499999993 0 
-7.549999962 1.5 0 -7.4999999613 1.4499999993 0 -7.4999999613 1.5 0 
-7.4499999605 1.4499999993 0 -7.4499999605 1.5 0 -7.3999999598 1.4499999993 0 
-7.3999999598 1.5 0 -7.349999959 1.4499999993 0 -7.349999959 1.5 0 
-7.2999999583 1.4499999993 0 -7.2999999583 1.5 0 -7.2499999575 1.4499999993 0 
-7.2499999575 1.5 0 -7.1999999568 1.4499999993 0 -7.1999999568 1.5 0 
-7.149999956 1.4499999993 0 -7.149999956 1.5 0 -7.0999999553 1.4499999993 0 
-7.0999999553 1.5 0 -7.0499999546 1.4499999993 0 -7.0499999546 1.5 0 
-6.9999999538 1.4499999993 0 -6.9999999538 1.5 0 -6.9499999531 1.4499999993 0 
-6.9499999531 1.5 0 -6.8999999523 1.4499999993 0 -6.8999999523 1.5 0 
-6.8499999516 1.4499999993 0 -6.8499999516 1.5 0 -6.7999999508 1.4499999993 0 
-6.7999999508 1.5 0 -6.7499999501 1.4499999993 0 -6.7499999501 1.5 0 
-6.6999999493 1.4499999993 0 -6.6999999493 1.5 0 -6.6499999486 1.4499999993 0 
-6.6499999486 1.5 0 -6.5999999478 1.4499999993 0 -6.5999999478 1.5 0 
-6.5499999471 1.4499999993 0 -6.5499999471 1.5 0 -6.4999999464 1.4499999993 0 
-6.4999999464 1.5 0 -6.4499999456 1.4499999993 0 -6.4499999456 1.5 0 
-6.3999999449 1.4499999993 0 -6.3999999449 1.5 0 -6.3499999441 1.4499999993 0 
-6.3499999441 1.5 0 -6.2999999434 1.4499999993 0 -6.2999999434 1.5 0 
-6.2499999426 1.4499999993 0 -6.2499999426 1.5 0 -6.1999999419 1.4499999993 0 
-6.1999999419 1.5 0 -6.1499999411 1.4499999993 0 -6.1499999411 1.5 0 
-6.0999999404 1.4499999993 0 -6.0999999404 1.5 0 -6.0499999397 1.4499999993 0 
-6.0499999397 1.5 0 -5.9999999389 1.4499999993 0 -5.9999999389 1.5 0 
-5.9499999382 1.4499999993 0 -5.9499999382 1.5 0 -5.8999999374 1.4499999993 0 
-5.8999999374 1.5 0 -5.8499999367 1.4499999993 0 -5.8499999367 1.5 0 
-5.7999999359 1.4499999993 0 -5.7999999359 1.5 0 -5.7499999352 1.4499999993 0 
-5.7499999352 1.5 0 -5.6999999344 1.4499999993 0 -5.6999999344 1.5 0 
-5.6499999337 1.4499999993 0 -5.6499999337 1.5 0 -5.5999999329 1.4499999993 0 
-5.5999999329 1.5 0 -5.5499999322 1.4499999993 0 -5.5499999322 1.5 0 
-5.4999999315 1.4499999993 0 -5.4999999315 1.5 0 -5.4499999307 1.4499999993 0 
-5.4499999307 1.5 0 -5.39999993 1.4499999993 0 -5.39999993 1.5 0 
-5.3499999292 1.4499999993 0 -5.3499999292 1.5 0 -5.2999999285 1.4499999993 0 
-5.2999999285 1.5 0 -5.2499999277 1.4499999993 0 -5.2499999277 1.5 0 
-5.199999927 1.4499999993 0 -5.199999927 1.5 0 -5.1499999262 1.4499999993 0 
-5.1499999262 1.5 0 -5.0999999255 1.4499999993 0 -5.0999999255 1.5 0 
-5.0499999247 1.4499999993 0 -5.0499999247 1.5 0 -4.999999924 1.4499999993 0 
-4.999999924 1.5 0 -4.9499999233 1.4499999993 0 -4.9499999233 1.5 0 
-4.8999999225 1.4499999993 0 -4.8999999225 1.5 0 -4.8499999218 1.4499999993 0 
-4.8499999218 1.5 0 -4.799999921 1.4499999993 0 -4.799999921 1.5 0 
-4.7499999203 1.4499999993 0 -4.7499999203 1.5 0 -4.6999999195 1.4499999993 0 
-4.6999999195 1.5 0 -4.6499999188 1.4499999993 0 -4.6499999188 1.5 0 
-4.599999918 1.4499999993 0 -4.599999918 1.5 0 -4.5499999173 1.4499999993 0 
-4.5499999173 1.5 0 -4.4999999166 1.4499999993 0 -4.4999999166 1.5 0 
-4.4499999158 1.4499999993 0 -4.4499999158 1.5 0 -4.3999999151 1.4499999993 0 
-4.3999999151 1.5 0 -4.3499999143 1.4499999993 0 -4.3499999143 1.5 0 
-4.2999999136 1.4499999993 0 -4.2999999136 1.5 0 -4.2499999128 1.4499999993 0 
-4.2499999128 1.5 0 -4.1999999121 1.4499999993 0 -4.1999999121 1.5 0 
-4.1499999113 1.4499999993 0 -4.1499999113 1.5 0 -4.0999999106 1.4499999993 0 
-4.0999999106 1.5 0 -4.0499999098 1.4499999993 0 -4.0499999098 1.5 0 
-3.9999999091 1.4499999993 0 -3.9999999091 1.5 0 -3.9499999084 1.4499999993 0 
-3.9499999084 1.5 0 -3.8999999076 1.4499999993 0 -3.8999999076 1.5 0 
-3.8499999069 1.4499999993 0 -3.8499999069 1.5 0 -3.7999999061 1.4499999993 0 
-3.7999999061 1.5 0 -3.7499999054 1.4499999993 0 -3.7499999054 1.5 0 
-3.6999999046 1.4499999993 0 -3.6999999046 1.5 0 -3.6499999039 1.4499999993 0 
-3.6499999039 1.5 0 -3.5999999031 1.4499999993 0 -3.5999999031 1.5 0 
-3.5499999024 1.4499999993 0 -3.5499999024 1.5 0 -3.4999999017 1.4499999993 0 
-3.4999999017 1.5 0 -3.4499999009 1.4499999993 0 -3.4499999009 1.5 0 
-3.3999999002 1.4499999993 0 -3.3999999002 1.5 0 -3.3499998994 1.4499999993 0 
-3.3499998994 1.5 0 -3.2999998987 1.4499999993 0 -3.2999998987 1.5 0 
-3.2499998979 1.4499999993 0 -3.2499998979 1.5 0 -3.1999998972 1.4499999993 0 
-3.1999998972 1.5 0 -3.1499998964 1.4499999993 0 -3.1499998964 1.5 0 
-3.0999998957 1.4499999993 0 -3.0999998957 1.5 0 -3.0499998949 1.4499999993 0 
-3.0499998949 1.5 0 -2.9999998942 1.4499999993 0 -2.9999998942 1.5 0 
-2.9499998935 1.4499999993 0 -2.9499998935 1.5 0 -2.8999998927 1.4499999993 0 
-2.8999998927 1.5 0 -2.849999892 1.4499999993 0 -2.849999892 1.5 0 
-2.7999998912 1.4499999993 0 -2.7999998912 1.5 0 -2.7499998905 1.4499999993 0 
-2.7499998905 1.5 0 -2.6999998897 1.4499999993 0 -2.6999998897 1.5 0 
-2.649999889 1.4499999993 0 -2.649999889 1.5 0 -2.5999998882 1.4499999993 0 
-2.5999998882 1.5 0 -2.5499998875 1.4499999993 0 -2.5499998875 1.5 0 
-2.4999998868 1.4499999993 0 -2.4999998868 1.5 0 -2.449999886 1.4499999993 0 
-2.449999886 1.5 0 -2.3999998853 1.4499999993 0 -2.3999998853 1.5 0 
-2.3499998845 1.4499999993 0 -2.3499998845 1.5 0 -2.2999998838 1.4499999993 0 
-2.2999998838 1.5 0 -2.249999883 1.4499999993 0 -2.249999883 1.5 0 
-2.1999998823 1.4499999993 0 -2.1999998823 1.5 0 -2.1499998815 1.4499999993 0 
-2.1499998815 1.5 0 -2.0999998808 1.4499999993 0 -2.0999998808 1.5 0 
-2.04999988 1.4499999993 0 -2.04999988 1.5 0 -1.9999998793 1.4499999993 0 
-1.9999998793 1.5 0 -1.9499998786 1.4499999993 0 -1.9499998786 1.5 0 
-1.8999998778 1.4499999993 0 -1.8999998778 1.5 0 -1.8499998771 1.4499999993 0 
-1.8499998771 1.5 0 -1.7999998763 1.4499999993 0 -1.7999998763 1.5 0 
-1.7499998756 1.4499999993 0 -1.7499998756 1.5 0 -1.6999998748 1.4499999993 0 
-1.6999998748 1.5 0 -1.6499998741 1.4499999993 0 -1.6499998741 1.5 0 
-1.5999998733 1.4499999993 0 -1.5999998733 1.5 0 -1.5499998726 1.4499999993 0 
-1.5499998726 1.5 0 -1.4999998718 1.4499999993 0 -1.4999998718 1.5 0 
-1.4499998711 1.4499999993 0 -1.4499998711 1.5 0 -1.3999998704 1.4499999993 0 
-1.3999998704 1.5 0 -1.3499998696 1.4499999993 0 -1.3499998696 1.5 0 
-1.2999998689 1.4499999993 0 -1.2999998689 1.5 0 -1.2499998681 1.4499999993 0 
-1.2499998681 1.5 0 -1.1999998674 1.4499999993 0 -1.1999998674 1.5 0 
-1.1499998666 1.4499999993 0 -1.1499998666 1.5 0 -1.0999998659 1.4499999993 0 
-1.0999998659 1.5 0 -1.0499998651 1.4499999993 0 -1.0499998651 1.5 0 
-0.9999998644 1.4499999993 0 -0.9999998644 1.5 0 -0.94999986365 1.4499999993 0 
-0.94999986365 1.5 0 -0.89999986291 1.4499999993 0 -0.89999986291 1.5 0 
-0.84999986216 1.4499999993 0 -0.84999986216 1.5 0 -0.79999986142 1.4499999993 0 
-0.79999986142 1.5 0 -0.74999986067 1.4499999993 0 -0.74999986067 1.5 0 
-0.69999985993 1.4499999993 0 -0.69999985993 1.5 0 -0.64999985918 1.4499999993 0 
-0.64999985918 1.5 0 -0.59999985844 1.4499999993 0 -0.59999985844 1.5 0 
-0.54999985769 1.4499999993 0 -0.54999985769 1.5 0 -0.49999985695 1.4499999993 0 
-0.49999985695 1.5 0 -0.4499998562 1.4499999993 0 -0.4499998562 1.5 0 
-0.39999985546 1.4499999993 0 -0.39999985546 1.5 0 -0.34999985471 1.4499999993 0 
-0.34999985471 1.5 0 -0.29999985397 1.4499999993 0 -0.29999985397 1.5 0 
-0.24999985322 1.4499999993 0 -0.24999985322 1.5 0 -0.191663057 1.4499999993 0 
-0.17548248559 1.5 0 0.18862900414 1.4499999993 0 0.25000015423 1.4499999993 0 
[...]
CELL_DATA 9510
FIELD FieldData 4
Water_Depth_m 1 9510 float
0.339964 0.33989 0.339816 0.339742 0.339668 0.339594 0.33952 0.339446 0.339372 
0.339299 0.339225 0.339151 0.339078 0.339004 0.338929 0.338854 0.338779 0.338703 
0.338626 0.338547 0.338468 0.338387 0.338304 0.33822 0.338134 0.338046 0.337957 
0.337865 0.337772 0.337677 0.33758 0.337483 0.337384 0.337286 0.337187 0.33709 
0.336996 0.336904 0.336817 0.336736 0.336662 0.336596 0.336539 0.336494 0.33646 
0.33644 0.336433 0.33644 0.336463 0.3365 0.336551 0.336617 0.336695 0.336787 
0.33689 0.337003 0.337126 0.337256 0.337392 0.337534 0.337678 0.337825 0.337972 
0.33812 0.338266 0.338411 0.338555 0.338696 0.338835 0.338973 0.339109 0.339245 
0.339381 0.339517 0.339655 0.339794 0.339936 0.340081 0.340228 0.340377 0.340527 
0.340677 0.340826 0.340972 0.341112 0.341246 0.341371 0.341486 0.341589 0.341679 
0.341754 0.341814 0.341858 0.341885 0.341895 0.341888 0.341865 0.341823 0.341764 
0.341686 0.341591 0.341477 0.341344 0.341193 0.341023 0.340833 0.340623 0.340393 
0.340144 0.339876 0.33959 0.339288 0.338972 0.338645 0.338311 0.337973 0.337635 
0.337303 0.33698 0.336673 0.336385 0.33612 0.335881 0.335672 0.335493 0.335346 
0.335231 0.335146 0.335089 0.335058 0.335051 0.335063 0.335089 0.335126 0.33517 
0.335218 0.335266 0.335312 0.335355 0.335393 0.335427 0.335456 0.335482 0.335506 
0.335528 0.335551 0.335576 0.335603 0.335633 0.335667 0.335703 0.335742 0.33578 
0.335818 0.335855 0.335888 0.335917 0.335943 0.335965 0.335982 0.335997 0.336009 
0.336019 0.336027 0.336036 0.336044 0.336054 0.336065 0.336078 0.336093 0.336112 
0.336134 0.33616 0.336191 0.336228 0.336272 0.336323 0.336382 0.336452 0.336532 
0.336626 0.336735 0.336861 0.337006 0.337174 0.337366 0.337586 0.337836 0.338121 
0.338443 0.338804 0.339209 0.339658 0.340153 0.340695 0.341285 0.341904 0.342712 
0.348837 0.349496 0.350036 0.35053 0.350979 0.351384 0.351747 0.352072 0.352362 
0.352619 0.352847 0.353049 0.353227 0.353384 0.353522 0.353644 0.35375 0.353844 
0.353926 0.353998 0.35406 0.354115 0.354162 0.354203 0.354238 0.354268 0.354294 
0.354316 0.354334 0.354349 0.354361 0.354371 0.354379 0.354385 0.354389 0.354391 
0.354392 0.354393 0.354392 0.35439 0.354387 0.354384 0.35438 0.354376 0.354371 
0.354366 0.354361 0.354355 0.354349 0.354343 0.354337 0.354331 0.354325 0.354319 
0.354313 0.354307 0.354301 0.354295 0.354289 0.354284 0.354278 0.354273 0.354268 
0.354263 0.354258 0.354254 0.35425 0.354246 0.354242 0.354239 0.354235 0.354232 
0.35423 0.354227 0.354225 0.354223 0.354222 0.35422 0.354219 0.354219 0.354218 
0.354218 0.354218 0.354219 0.35422 0.354221 0.354222 0.354224 0.354226 0.354228 
0.354231 0.354234 0.354237 0.354241 0.354243 0.353682 0.34798 0.339964 0.33989 
0.339816 0.339742 0.339667 0.339593 0.339519 0.339446 0.339372 0.339298 0.339225 
0.339151 0.339078 0.339004 0.33893 0.338855 0.33878 0.338703 0.338626 0.338548 
0.338468 0.338388 0.338305 0.338221 0.338135 0.338047 0.337957 0.337865 0.337772 
0.337676 0.337579 0.337481 0.337382 0.337282 0.337183 0.337086 0.33699 0.336897 
0.336809 0.336727 0.336652 0.336585 0.336528 0.336481 0.336447 0.336426 0.336419 
0.336426 0.336449 0.336486 0.336538 0.336604 0.336683 0.336775 0.336879 0.336994 
0.337118 0.337249 0.337386 0.337529 0.337674 0.337822 0.33797 0.338118 0.338266 
0.338411 0.338555 0.338696 0.338835 0.338972 0.339108 0.339243 0.339378 0.339514 
0.33965 0.339789 0.339931 0.340075 0.340222 0.340371 0.340522 0.340673 0.340822 
0.340969 0.341111 0.341247 0.341374 0.341491 0.341595 0.341686 0.341763 0.341825 
0.34187 0.341899 0.34191 0.341904 0.341881 0.34184 0.341781 0.341704 0.341608 
0.341494 0.341361 0.341209 0.341038 0.340847 0.340635 0.340403 0.340152 0.339881 
0.339593 0.339287 0.338968 0.338638 0.338299 0.337957 0.337616 0.33728 0.336955 
0.336645 0.336355 0.336088 0.335849 0.335639 0.335461 0.335315 0.335201 0.335118 
0.335064 0.335037 0.335033 0.335049 0.335079 0.335119 0.335166 0.335217 0.335267 
0.335315 0.335358 0.335397 0.335431 0.335459 0.335484 0.335506 0.335527 0.335549 
0.335572 0.335599 0.33563 0.335664 0.335701 0.335741 0.335781 0.33582 0.335857 
0.335891 0.335921 0.335947 0.335968 0.335985 0.335999 0.33601 0.33602 0.336028 
0.336035 0.336043 0.336052 0.336063 0.336075 0.33609 0.336108 0.33613 0.336156 
0.336186 0.336223 0.336265 0.336315 0.336373 0.336442 0.336521 0.336613 0.33672 
0.336844 0.336986 0.337151 0.33734 0.337556 0.337803 0.338084 0.338402 0.338759 
0.339159 0.339604 0.340096 0.340635 0.341223 0.341856 0.342626 0.34884 0.349505 
0.350049 0.350546 0.350997 0.351403 0.351767 0.352092 0.352381 0.352637 0.352864 
0.353065 0.353242 0.353397 0.353534 0.353655 0.353761 0.353853 0.353935 0.354005 
0.354067 0.354121 0.354168 0.354208 0.354243 0.354272 0.354298 0.354319 0.354337 
0.354352 0.354364 0.354373 0.354381 0.354386 0.35439 0.354393 0.354394 0.354394 
0.354393 0.354391 0.354388 0.354385 0.354381 0.354376 0.354372 0.354366 0.354361 
0.354355 0.354349 0.354344 0.354337 0.354331 0.354325 0.354319 0.354313 0.354307 
0.354301 0.354295 0.354289 0.354284 0.354278 0.354273 0.354268 0.354263 0.354259 
0.354254 0.35425 0.354246 0.354242 0.354239 0.354235 0.354232 0.35423 0.354227 
0.354225 0.354223 0.354222 0.35422 0.354219 0.354219 0.354218 0.354218 0.354218 
0.354219 0.35422 0.354221 0.354222 0.354224 0.354226 0.354228 0.354231 0.354234 
0.354237 0.354241 0.354243 0.353682 0.34798 0.339964 0.33989 0.339815 0.339741 
0.339667 0.339593 0.339519 0.339445 0.339371 0.339298 0.339225 0.339151 0.339078 
0.339004 0.33893 0.338856 0.33878 0.338705 0.338628 0.338549 0.33847 0.338389 
0.338307 0.338223 0.338136 0.338048 0.337958 0.337866 0.337771 0.337675 0.337577 
0.337478 0.337377 0.337276 0.337176 0.337076 0.336978 0.336884 0.336793 0.336709 
0.336632 0.336563 0.336504 0.336456 0.336421 0.336399 0.336391 0.336398 0.33642 
0.336458 0.336511 0.336578 0.336658 0.336752 0.336858 0.336975 0.3371 0.337234 
0.337374 0.337519 0.337666 0.337816 0.337966 0.338116 0.338264 0.338411 0.338555 
0.338696 0.338835 0.338972 0.339106 0.33924 0.339373 0.339507 0.339642 0.339779 
0.33992 0.340063 0.34021 0.340359 0.340511 0.340663 0.340815 0.340964 0.341109 
0.341248 0.341379 0.341499 0.341607 0.341702 0.341782 0.341846 0.341895 0.341926 
0.34194 0.341936 0.341914 0.341874 0.341816 0.341739 0.341644 0.341529 0.341395 
0.341242 0.341068 0.340874 0.34066 0.340424 0.340168 0.339892 0.339598 0.339286 
0.33896 0.338622 0.338276 0.337927 0.337578 0.337235 0.336904 0.336588 0.336294 
0.336024 0.335783 0.335573 0.335396 0.335252 0.335142 0.335064 0.335016 0.334995 
0.334998 0.335021 0.335059 0.335106 0.335159 0.335215 0.33527 0.335321 0.335366 
0.335406 0.335438 0.335465 0.335487 0.335507 0.335525 0.335544 0.335566 0.335592 
0.335622 0.335658 0.335697 0.335738 0.335781 0.335823 0.335862 0.335897 0.335928 
0.335954 0.335975 0.335991 0.336004 0.336014 0.336022 0.336028 0.336035 0.336042 
0.33605 0.336059 0.336071 0.336085 0.336102 0.336123 0.336147 0.336177 0.336211 
0.336252 0.3363 0.336356 0.336422 0.336498 0.336587 0.33669 0.336809 0.336947 
0.337106 0.337289 0.337498 0.337738 0.33801 0.33832 0.338669 0.339061 0.339498 
0.339982 0.340516 0.341101 0.341738 0.3425 0.348845 0.349523 0.350076 0.35058 
0.351035 0.351443 0.351808 0.352132 0.35242 0.352674 0.352899 0.353097 0.353271 
0.353425 0.353559 0.353678 0.353781 0.353872 0.353951 0.354021 0.354081 0.354133 
0.354179 0.354218 0.354252 0.35428 0.354305 0.354326 0.354343 0.354357 0.354368 
0.354378 0.354385 0.35439 0.354393 0.354395 0.354396 0.354396 0.354395 0.354393 
0.35439 0.354386 0.354382 0.354378 0.354373 0.354367 0.354362 0.354356 0.35435 
0.354344 0.354338 0.354332 0.354326 0.354319 0.354313 0.354307 0.354301 0.354295 
0.35429 0.354284 0.354279 0.354273 0.354268 0.354263 0.354259 0.354254 0.35425 
0.354246 0.354242 0.354239 0.354235 0.354232 0.35423 0.354227 0.354225 0.354223 
0.354222 0.35422 0.354219 0.354219 0.354218 0.354218 0.354218 0.354219 0.35422 
0.354221 0.354222 0.354224 0.354226 0.354228 0.354231 0.354234 0.354237 0.354241 
0.354243 0.353682 0.34798 0.339964 0.339889 0.339815 0.33974 0.339666 0.339592 
0.339518 0.339444 0.339371 0.339297 0.339224 0.339151 0.339078 0.339005 0.338931 
0.338857 0.338782 0.338706 0.33863 0.338552 0.338473 0.338392 0.338309 0.338225 
0.338139 0.33805 0.337959 0.337866 0.337771 0.337674 0.337574 0.337473 0.337371 
0.337267 0.337164 0.337061 0.33696 0.336863 0.336769 0.336681 0.336601 0.336529 
0.336468 0.336418 0.336381 0.336357 0.336348 0.336355 0.336378 0.336416 0.33647 
0.336538 0.336621 0.336717 0.336826 0.336946 0.337075 0.337212 0.337355 0.337503 
0.337655 0.337808 0.337961 0.338113 0.338263 0.338411 0.338556 0.338697 0.338836 
0.338971 0.339104 0.339235 0.339366 0.339497 0.339629 0.339764 0.339902 0.340044 
0.34019 0.34034 0.340493 0.340648 0.340803 0.340956 0.341106 0.34125 0.341385 
0.341511 0.341624 0.341724 0.341809 0.341878 0.341931 0.341966 0.341984 0.341982 
0.341963 0.341925 0.341868 0.341792 0.341696 0.341581 0.341446 0.34129 0.341114 
0.340916 0.340697 0.340456 0.340193 0.339909 0.339606 0.339284 0.338947 0.338598 
0.338241 0.337879 0.337519 0.337166 0.336825 0.336501 0.3362 0.335926 0.335682 
0.335472 0.335296 0.335156 0.335051 0.334981 0.334941 0.334931 0.334946 0.33498 
0.335028 0.335087 0.33515 0.335214 0.335275 0.335331 0.33538 0.335419 0.335451 
0.335475 0.335493 0.335508 0.335521 0.335536 0.335555 0.335579 0.33561 0.335647 
0.335689 0.335735 0.335782 0.335827 0.33587 0.335908 0.33594 0.335966 0.335986 
0.336001 0.336011 0.336019 0.336025 0.336029 0.336034 0.336039 0.336045 0.336053 
0.336064 0.336077 0.336092 0.336112 0.336135 0.336162 0.336195 0.336233 0.336278 
0.336331 0.336393 0.336465 0.336548 0.336646 0.336758 0.336889 0.337039 0.337212 
0.337412 0.33764 0.337901 0.338197 0.338533 0.338912 0.339337 0.33981 0.340335 
0.340915 0.341551 0.342312 0.348853 0.349551 0.350118 0.350632 0.351092 0.351504 
0.351869 0.352192 0.352478 0.352729 0.352951 0.353145 0.353316 0.353465 0.353597 
0.353712 0.353812 0.3539 0.353977 0.354043 0.354102 0.354152 0.354195 0.354233 
0.354265 0.354293 0.354316 0.354335 0.354352 0.354365 0.354376 0.354384 0.35439 
0.354395 0.354398 0.3544 0.3544 0.354399 0.354398 0.354395 0.354392 0.354388 
0.354384 0.354379 0.354374 0.354369 0.354363 0.354357 0.354351 0.354345 0.354339 
0.354333 0.354326 0.35432 0.354314 0.354308 0.354302 0.354296 0.35429 0.354284 
0.354279 0.354274 0.354268 0.354264 0.354259 0.354254 0.35425 0.354246 0.354242 
0.354239 0.354236 0.354233 0.35423 0.354227 0.354225 0.354223 0.354222 0.35422 
0.354219 0.354219 0.354218 0.354218 0.354218 0.354219 0.35422 0.354221 0.354222 
0.354224 0.354226 0.354228 0.354231 0.354234 0.354237 0.354241 0.354243 0.353682 
0.34798 0.339964 0.339889 0.339814 0.339739 0.339665 0.33959 0.339516 0.339443 
0.33937 0.339296 0.339224 0.339151 0.339078 0.339005 0.338932 0.338858 0.338784 
0.338709 0.338633 0.338555 0.338476 0.338395 0.338313 0.338229 0.338142 0.338053 
0.337962 0.337868 0.337771 0.337672 0.337571 0.337467 0.337362 0.337255 0.337148 
0.337042 0.336937 0.336835 0.336737 0.336644 0.33656 0.336484 0.336419 0.336366 
0.336326 0.336301 0.336291 0.336297 0.33632 0.336359 0.336414 0.336485 0.33657 
0.33667 0.336782 0.336906 0.33704 0.337182 0.337331 0.337484 0.337639 0.337797 
0.337954 0.338109 0.338262 0.338412 0.338558 0.3387 0.338837 0.338971 0.339101 
0.33923 0.339357 0.339484 0.339612 0.339743 0.339879 0.340019 0.340164 0.340314 
0.340468 0.340626 0.340785 0.340944 0.3411 0.34125 0.341393 0.341525 0.341646 
0.341753 0.341845 0.34192 0.341979 0.342019 0.342041 0.342044 0.342027 0.341992 
0.341937 0.341861 0.341766 0.341649 0.341512 0.341354 0.341174 0.340971 0.340745 
0.340497 0.340225 0.339931 0.339615 0.339281 0.338929 0.338565 0.338191 0.337814 
0.337438 0.337071 0.336716 0.336382 0.336072 0.335791 0.335544 0.335333 0.33516 
0.335025 0.334928 0.334867 0.334841 0.334845 0.334875 0.334925 0.334989 0.335062 
0.335139 0.335215 0.335286 0.335348 0.3354 0.335441 0.33547 0.33549 0.335502 
0.335509 0.335516 0.335524 0.335538 0.33556 0.335591 0.335631 0.335678 0.33573 
0.335783 0.335835 0.335882 0.335923 0.335957 0.335983 0.336001 0.336014 0.336022 
0.336026 0.336028 0.33603 0.336032 0.336035 0.336039 0.336046 0.336054 0.336066 
0.33608 0.336097 0.336118 0.336143 0.336173 0.336208 0.33625 0.336298 0.336355 
0.336421 0.336498 0.336588 0.336692 0.336812 0.336951 0.337112 0.337298 0.337511 
0.337755 0.338035 0.338353 0.338713 0.339121 0.339578 0.340089 0.34066 0.341292 
0.342053 0.348867 0.349593 0.350179 0.350704 0.351173 0.351587 0.351953 0.352274 
0.352556 0.352804 0.35302 0.353209 0.353375 0.35352 0.353646 0.353756 0.353853 
0.353937 0.35401 0.354073 0.354129 0.354176 0.354217 0.354253 0.354283 0.354308 
0.35433 0.354348 0.354363 0.354375 0.354385 0.354392 0.354398 0.354402 0.354404 
0.354405 0.354405 0.354404 0.354402 0.354399 0.354395 0.354391 0.354387 0.354382 
0.354376 0.354371 0.354365 0.354359 0.354353 0.354346 0.35434 0.354334 0.354327 
0.354321 0.354315 0.354308 0.354302 0.354296 0.35429 0.354285 0.354279 0.354274 
0.354269 0.354264 0.354259 0.354255 0.35425 0.354246 0.354242 0.354239 0.354236 
0.354233 0.35423 0.354227 0.354225 0.354223 0.354222 0.35422 0.354219 0.354219 
0.354218 0.354218 0.354218 0.354219 0.35422 0.354221 0.354222 0.354224 0.354226 
0.354228 0.354231 0.354234 0.354237 0.354241 0.354243 0.353682 0.34798 0.339963 
0.339888 0.339813 0.339738 0.339663 0.339589 0.339515 0.339441 0.339368 0.339295 
0.339223 0.339151 0.339078 0.339006 0.338934 0.33886 0.338787 0.338712 0.338636 
0.338559 0.338481 0.3384 0.338318 0.338233 0.338146 0.338057 0.337965 0.337869 
0.337771 0.33767 0.337566 0.33746 0.337351 0.337241 0.337129 0.337018 0.336907 
0.336799 0.336696 0.336598 0.336507 0.336426 0.336357 0.3363 0.336257 0.336229 
0.336218 0.336224 0.336247 0.336288 0.336344 0.336417 0.336506 0.33661 0.336727 
0.336857 0.336997 0.337145 0.3373 0.337459 0.337621 0.337784 0.337946 0.338106 
0.338262 0.338414 0.338562 0.338704 0.338841 0.338972 0.3391 0.339224 0.339346 
0.339468 0.339591 0.339718 0.339849 0.339986 0.340129 0.340279 0.340436 0.340597 
0.340762 0.340927 0.34109 0.341249 0.341401 0.341542 0.341672 0.341788 0.341888 
0.341971 0.342037 0.342083 0.342111 0.342118 0.342106 0.342074 0.34202 0.341946 
0.341851 0.341734 0.341595 0.341433 0.341248 0.341039 0.340806 0.340548 0.340265 
0.339957 0.339627 0.339275 0.338905 0.33852 0.338126 0.337728 0.337333 0.336946 
0.336575 0.336226 0.335905 0.335617 0.335365 0.335154 0.334984 0.334856 0.334769 
0.334722 0.334713 0.334736 0.334785 0.334856 0.33494 0.335034 0.335129 0.33522 
0.335303 0.335374 0.335431 0.335472 0.335498 0.335511 0.335514 0.335512 0.335507 
0.335507 0.335514 0.335532 0.335564 0.335608 0.335662 0.335722 0.335785 0.335846 
0.3359 0.335945 0.335981 0.336006 0.336022 0.336031 0.336035 0.336034 0.336033 
0.336031 0.336029 0.33603 0.336032 0.336036 0.336043 0.336052 0.336064 0.336079 
0.336098 0.33612 0.336147 0.336178 0.336215 0.336258 0.336309 0.336368 0.336437 
0.336517 0.336611 0.336719 0.336845 0.33699 0.337158 0.337352 0.337576 0.337833 
0.338128 0.338465 0.338849 0.339284 0.339776 0.340331 0.340955 0.341714 0.348889 
0.349651 0.35026 0.350801 0.351278 0.351696 0.352061 0.352379 0.352656 0.352897 
0.353107 0.35329 0.353448 0.353587 0.353707 0.353812 0.353903 0.353982 0.354051 
0.35411 0.354162 0.354206 0.354244 0.354277 0.354305 0.354328 0.354348 0.354364 
0.354377 0.354388 0.354396 0.354403 0.354407 0.35441 0.354412 0.354412 0.354411 
0.354409 0.354407 0.354403 0.354399 0.354395 0.35439 0.354385 0.354379 0.354373 
0.354367 0.354361 0.354354 0.354348 0.354341 0.354335 0.354328 0.354322 0.354315 
0.354309 0.354303 0.354297 0.354291 0.354285 0.35428 0.354274 0.354269 0.354264 
0.354259 0.354255 0.354251 0.354246 0.354243 0.354239 0.354236 0.354233 0.35423 
0.354228 0.354225 0.354223 0.354222 0.354221 0.35422 0.354219 0.354218 0.354218 
0.354218 0.354219 0.35422 0.354221 0.354222 0.354224 0.354226 0.354228 0.354231 
0.354234 0.354237 0.354241 0.354243 0.353682 0.34798 0.339963 0.339887 0.339811 
0.339736 0.339661 0.339586 0.339512 0.339439 0.339366 0.339294 0.339222 0.33915 
0.339079 0.339007 0.338935 0.338863 0.33879 0.338716 0.338641 0.338564 0.338486 
0.338406 0.338324 0.338239 0.338152 0.338061 0.337968 0.337872 0.337772 0.337668 
0.337562 0.337452 0.337339 0.337223 0.337106 0.336989 0.336871 0.336757 0.336646 
0.33654 0.336443 0.336356 0.33628 0.336218 0.336172 0.336142 0.336129 0.336135 
0.336159 0.336201 0.33626 0.336335 0.336429 0.336538 0.336662 0.336799 0.336946 
0.337102 0.337264 0.337431 0.3376 0.337769 0.337937 0.338103 0.338264 0.338419 
0.338568 0.338711 0.338847 0.338976 0.339099 0.339218 0.339335 0.33945 0.339567 
0.339687 0.339813 0.339946 0.340087 0.340238 0.340396 0.340562 0.340733 0.340906 
0.341078 0.341247 0.341409 0.341561 0.341701 0.341827 0.341937 0.342029 0.342103 
0.342157 0.342191 0.342205 0.342197 0.342168 0.342118 0.342046 0.34195 0.341833 
0.341691 0.341526 0.341336 0.34112 0.340878 0.340608 0.340311 0.339988 0.339639 
0.339266 0.338873 0.338464 0.338044 0.33762 0.3372 0.33679 0.336398 0.336031 
0.335696 0.335399 0.335142 0.334931 0.334765 0.334646 0.334573 0.334543 0.334555 
0.334601 0.334676 0.334773 0.334884 0.335002 0.335121 0.335232 0.335331 0.335413 
0.335475 0.335515 0.335537 0.335541 0.335532 0.335514 0.335495 0.335481 0.335478 
0.335492 0.335525 0.335575 0.335639 0.335713 0.335789 0.335861 0.335925 0.335977 
0.336014 0.336038 0.33605 0.336054 0.336051 0.336044 0.336037 0.33603 0.336025 
0.336022 0.336022 0.336024 0.336029 0.336036 0.336046 0.336059 0.336075 0.336094 
0.336116 0.336143 0.336175 0.336212 0.336256 0.336307 0.336366 0.336436 0.336517 
0.336611 0.33672 0.336847 0.336995 0.337166 0.337364 0.337594 0.33786 0.338167 
0.338521 0.338926 0.339391 0.339921 0.340531 0.341281 0.348922 0.349731 0.350368 
0.350926 0.351411 0.351831 0.352194 0.352507 0.352777 0.35301 0.353212 0.353386 
0.353536 0.353667 0.35378 0.353877 0.353962 0.354036 0.354099 0.354154 0.354201 
0.354241 0.354276 0.354305 0.35433 0.354351 0.354368 0.354383 0.354394 0.354403 
0.35441 0.354415 0.354418 0.35442 0.35442 0.35442 0.354418 0.354416 0.354412 
0.354408 0.354404 0.354399 0.354394 0.354388 0.354382 0.354376 0.354369 0.354363 
0.354356 0.35435 0.354343 0.354336 0.35433 0.354323 0.354317 0.35431 0.354304 
0.354298 0.354292 0.354286 0.35428 0.354275 0.35427 0.354265 0.35426 0.354255 
0.354251 0.354247 0.354243 0.354239 0.354236 0.354233 0.35423 0.354228 0.354225 
0.354224 0.354222 0.354221 0.35422 0.354219 0.354218 0.354218 0.354219 0.354219 
0.35422 0.354221 0.354222 0.354224 0.354226 0.354228 0.354231 0.354234 0.354237 
0.354241 0.354243 0.353682 0.34798 0.339963 0.339886 0.33981 0.339734 0.339658 
0.339583 0.339509 0.339436 0.339363 0.339292 0.33922 0.339149 0.339079 0.339008 
0.338937 0.338865 0.338793 0.33872 0.338646 0.33857 0.338492 0.338412 0.33833 
0.338246 0.338158 0.338067 0.337973 0.337875 0.337773 0.337667 0.337556 0.337442 
0.337324 0.337203 0.337079 0.336954 0.336829 0.336706 0.336586 0.336472 0.336367 
0.336272 0.33619 0.336123 0.336072 0.336039 0.336026 0.336031 0.336057 0.336101 
0.336163 0.336243 0.336343 0.336459 0.336591 0.336736 0.336891 0.337055 0.337226 
0.337401 0.337578 0.337755 0.33793 0.338101 0.338267 0.338426 0.338578 0.338721 
0.338855 0.338982 0.339101 0.339214 0.339324 0.339432 0.339541 0.339654 0.339773 
0.339902 0.340041 0.340192 0.340353 0.340524 0.340702 0.340884 0.341066 0.341246 
0.341419 0.341582 0.341734 0.341871 0.341991 0.342093 0.342176 0.342239 0.342281 
0.342301 0.342299 0.342274 0.342227 0.342157 0.342062 0.341944 0.341801 0.341632 
0.341436 0.341212 0.340959 0.340677 0.340364 0.340022 0.339651 0.339253 0.338833 
0.338393 0.337942 0.337487 0.337035 0.336596 0.336179 0.335791 0.33544 0.335131 
0.33487 0.334658 0.334499 0.334391 0.334335 0.334328 0.334366 0.334441 0.334546 
0.334675 0.33482 0.33497 0.335118 0.335255 0.335373 0.335468 0.335536 0.335577 
0.335591 0.335582 0.335555 0.335517 0.335476 0.335443 0.335427 0.335434 0.335469 