# vtk DataFile Version 5.1
vtk output
ASCII
DATASET UNSTRUCTURED_GRID
POINTS 9486 double
0.1016 1.5 0 0.1016 1.45 0 0.1016 1.4 0 
0.1016 1.35 0 0.1016 1.3 0 0.1016 1.25 0 
0.1016 1.2 0 0.1016 1.15 0 0.1016 1.1 0 
0.1016 1.05 0 0.1016 1 0 0.1016 0.95 0 
0.1016 0.9 0 0.1016 0.85 0 0.1016 0.8 0 
0.1016 0.75 0 0.1016 0.7 0 0.1016 0.65 0 
0.1016 0.6 0 0.1016 0.55 0 0.1016 0.5 0 
0.1016 0.45 0 0.1016 0.4 0 0.1016 0.35 0 
0.1016 0.3 0 0.1016 0.25 0 0.1016 0.2 0 
0.1016 0.15 0 0.1016 0.1 0 0.1016 0.05 0 
0.1016 0 0 5.08 1.5 0 5.08 1.45 0 
5.08 1.4 0 5.08 1.35 0 5.08 1.3 0 
5.08 1.25 0 5.08 1.2 0 5.08 1.15 0 
5.08 1.1 0 5.08 1.05 0 5.08 1 0 
5.08 0.95 0 5.08 0.9 0 5.08 0.85 0 
5.08 0.8 0 5.08 0.75 0 5.08 0.7 0 
5.08 0.65 0 5.08 0.6 0 5.08 0.55 0 
5.08 0.5 0 5.08 0.45 0 5.08 0.4 0 
5.08 0.35 0 5.08 0.3 0 5.08 0.25 0 
5.08 0.2 0 5.08 0.15 0 5.08 0.1 0 
5.08 0.05 0 5.08 0 0 0.151384 1.5 0 
0.151384 1.45 0 0.151384 1.4 0 0.151384 1.35 0 
0.151384 1.3 0 0.151384 1.25 0 0.151384 1.2 0 
0.151384 1.15 0 0.151384 1.1 0 0.151384 1.05 0 
0.151384 1 0 0.151384 0.95 0 0.151384 0.9 0 
0.151384 0.85 0 0.151384 0.8 0 0.151384 0.75 0 
0.151384 0.7 0 0.151384 0.65 0 0.151384 0.6 0 
0.151384 0.55 0 0.151384 0.5 0 0.151384 0.45 0 
0.151384 0.4 0 0.151384 0.35 0 0.151384 0.3 0 
0.151384 0.25 0 0.151384 0.2 0 0.151384 0.15 0 
0.151384 0.1 0 0.151384 0.05 0 0.151384 0 0 
0.201168 1.5 0 0.201168 1.45 0 0.201168 1.4 0 
0.201168 1.35 0 0.201168 1.3 0 0.201168 1.25 0 
0.201168 1.2 0 0.201168 1.15 0 0.201168 1.1 0 
0.201168 1.05 0 0.201168 1 0 0.201168 0.95 0 
0.201168 0.9 0 0.201168 0.85 0 0.201168 0.8 0 
0.201168 0.75 0 0.201168 0.7 0 0.201168 0.65 0 
0.201168 0.6 0 0.201168 0.55 0 0.201168 0.5 0 
0.201168 0.45 0 0.201168 0.4 0 0.201168 0.35 0 
0.201168 0.3 0 0.201168 0.25 0 0.201168 0.2 0 
0.201168 0.15 0 0.201168 0.1 0 0.201168 0.05 0 
0.201168 0 0 0.250952 1.5 0 0.250952 1.45 0 
0.250952 1.4 0 0.250952 1.35 0 0.250952 1.3 0 
0.250952 1.25 0 0.250952 1.2 0 0.250952 1.15 0 
0.250952 1.1 0 0.250952 1.05 0 0.250952 1 0 
0.250952 0.95 0 0.250952 0.9 0 0.250952 0.85 0 
0.250952 0.8 0 0.250952 0.75 0 0.250952 0.7 0 
0.250952 0.65 0 0.250952 0.6 0 0.250952 0.55 0 
0.250952 0.5 0 0.250952 0.45 0 0.250952 0.4 0 
0.250952 0.35 0 0.250952 0.3 0 0.250952 0.25 0 
0.250952 0.2 0 0.250952 0.15 0 0.250952 0.1 0 
0.250952 0.05 0 0.250952 0 0 0.300736 1.5 0 
0.300736 1.45 0 0.300736 1.4 0 0.300736 1.35 0 
0.300736 1.3 0 0.300736 1.25 0 0.300736 1.2 0 
0.300736 1.15 0 0.300736 1.1 0 0.300736 1.05 0 
0.300736 1 0 0.300736 0.95 0 0.300736 0.9 0 
0.300736 0.85 0 0.300736 0.8 0 0.300736 0.75 0 
0.300736 0.7 0 0.300736 0.65 0 0.300736 0.6 0 
0.300736 0.55 0 0.300736 0.5 0 0.300736 0.45 0 
0.300736 0.4 0 0.300736 0.35 0 0.300736 0.3 0 
0.300736 0.25 0 0.300736 0.2 0 0.300736 0.15 0 
0.300736 0.1 0 0.300736 0.05 0 0.300736 0 0 
0.35052 1.5 0 0.35052 1.45 0 0.35052 1.4 0 
0.35052 1.35 0 0.35052 1.3 0 0.35052 1.25 0 
0.35052 1.2 0 0.35052 1.15 0 0.35052 1.1 0 
0.35052 1.05 0 0.35052 1 0 0.35052 0.95 0 
0.35052 0.9 0 0.35052 0.85 0 0.35052 0.8 0 
0.35052 0.75 0 0.35052 0.7 0 0.35052 0.65 0 
0.35052 0.6 0 0.35052 0.55 0 0.35052 0.5 0 
0.35052 0.45 0 0.35052 0.4 0 0.35052 0.35 0 
0.35052 0.3 0 0.35052 0.25 0 0.35052 0.2 0 
0.35052 0.15 0 0.35052 0.1 0 0.35052 0.05 0 
0.35052 0 0 0.400304 1.5 0 0.400304 1.45 0 
0.400304 1.4 0 0.400304 1.35 0 0.400304 1.3 0 
0.400304 1.25 0 0.400304 1.2 0 0.400304 1.15 0 
0.400304 1.1 0 0.400304 1.05 0 0.400304 1 0 
0.400304 0.95 0 0.400304 0.9 0 0.400304 0.85 0 
0.400304 0.8 0 0.400304 0.75 0 0.400304 0.7 0 
0.400304 0.65 0 0.400304 0.6 0 0.400304 0.55 0 
0.400304 0.5 0 0.400304 0.45 0 0.400304 0.4 0 
0.400304 0.35 0 0.400304 0.3 0 0.400304 0.25 0 
0.400304 0.2 0 0.400304 0.15 0 0.400304 0.1 0 
0.400304 0.05 0 0.400304 0 0 0.450088 1.5 0 
0.450088 1.45 0 0.450088 1.4 0 0.450088 1.35 0 
0.450088 1.3 0 0.450088 1.25 0 0.450088 1.2 0 
0.450088 1.15 0 0.450088 1.1 0 0.450088 1.05 0 
0.450088 1 0 0.450088 0.95 0 0.450088 0.9 0 
0.450088 0.85 0 0.450088 0.8 0 0.450088 0.75 0 
0.450088 0.7 0 0.450088 0.65 0 0.450088 0.6 0 
0.450088 0.55 0 0.450088 0.5 0 0.450088 0.45 0 
0.450088 0.4 0 0.450088 0.35 0 0.450088 0.3 0 
0.450088 0.25 0 0.450088 0.2 0 0.450088 0.15 0 
0.450088 0.1 0 0.450088 0.05 0 0.450088 0 0 
0.499872 1.5 0 0.499872 1.45 0 0.499872 1.4 0 
0.499872 1.35 0 0.499872 1.3 0 0.499872 1.25 0 
0.499872 1.2 0 0.499872 1.15 0 0.499872 1.1 0 
0.499872 1.05 0 0.499872 1 0 0.499872 0.95 0 
0.499872 0.9 0 0.499872 0.85 0 0.499872 0.8 0 
0.499872 0.75 0 0.499872 0.7 0 0.499872 0.65 0 
0.499872 0.6 0 0.499872 0.55 0 0.499872 0.5 0 
0.499872 0.45 0 0.499872 0.4 0 0.499872 0.35 0 
0.499872 0.3 0 0.499872 0.25 0 0.499872 0.2 0 
0.499872 0.15 0 0.499872 0.1 0 0.499872 0.05 0 
0.499872 0 0 0.549656 1.5 0 0.549656 1.45 0 
0.549656 1.4 0 0.549656 1.35 0 0.549656 1.3 0 
0.549656 1.25 0 0.549656 1.2 0 0.549656 1.15 0 
0.549656 1.1 0 0.549656 1.05 0 0.549656 1 0 
0.549656 0.95 0 0.549656 0.9 0 0.549656 0.85 0 
0.549656 0.8 0 0.549656 0.75 0 0.549656 0.7 0 
0.549656 0.65 0 0.549656 0.6 0 0.549656 0.55 0 
0.549656 0.5 0 0.549656 0.45 0 0.549656 0.4 0 
0.549656 0.35 0 0.549656 0.3 0 0.549656 0.25 0 
0.549656 0.2 0 0.549656 0.15 0 0.549656 0.1 0 
0.549656 0.05 0 0.549656 0 0 0.59944 1.5 0 
0.59944 1.45 0 0.59944 1.4 0 0.59944 1.35 0 
0.59944 1.3 0 0.59944 1.25 0 0.59944 1.2 0 
0.59944 1.15 0 0.59944 1.1 0 0.59944 1.05 0 
0.59944 1 0 0.59944 0.95 0 0.59944 0.9 0 
0.59944 0.85 0 0.59944 0.8 0 0.59944 0.75 0 
0.59944 0.7 0 0.59944 0.65 0 0.59944 0.6 0 
0.59944 0.55 0 0.59944 0.5 0 0.59944 0.45 0 
0.59944 0.4 0 0.59944 0.35 0 0.59944 0.3 0 
0.59944 0.25 0 0.59944 0.2 0 0.59944 0.15 0 
0.59944 0.1 0 0.59944 0.05 0 0.59944 0 0 
0.649224 1.5 0 0.649224 1.45 0 0.649224 1.4 0 
0.649224 1.35 0 0.649224 1.3 0 0.649224 1.25 0 
0.649224 1.2 0 0.649224 1.15 0 0.649224 1.1 0 
0.649224 1.05 0 0.649224 1 0 0.649224 0.95 0 
0.649224 0.9 0 0.649224 0.85 0 0.649224 0.8 0 
0.649224 0.75 0 0.649224 0.7 0 0.649224 0.65 0 
0.649224 0.6 0 0.649224 0.55 0 0.649224 0.5 0 
0.649224 0.45 0 0.649224 0.4 0 0.649224 0.35 0 
0.649224 0.3 0 0.649224 0.25 0 0.649224 0.2 0 
0.649224 0.15 0 0.649224 0.1 0 0.649224 0.05 0 
0.649224 0 0 0.699008 1.5 0 0.699008 1.45 0 
0.699008 1.4 0 0.699008 1.35 0 0.699008 1.3 0 
0.699008 1.25 0 0.699008 1.2 0 0.699008 1.15 0 
0.699008 1.1 0 0.699008 1.05 0 0.699008 1 0 
0.699008 0.95 0 0.699008 0.9 0 0.699008 0.85 0 
0.699008 0.8 0 0.699008 0.75 0 0.699008 0.7 0 
0.699008 0.65 0 0.699008 0.6 0 0.699008 0.55 0 
0.699008 0.5 0 0.699008 0.45 0 0.699008 0.4 0 
0.699008 0.35 0 0.699008 0.3 0 0.699008 0.25 0 
0.699008 0.2 0 0.699008 0.15 0 0.699008 0.1 0 
0.699008 0.05 0 0.699008 0 0 0.748792 1.5 0 
0.748792 1.45 0 0.748792 1.4 0 0.748792 1.35 0 
0.748792 1.3 0 0.748792 1.25 0 0.748792 1.2 0 
0.748792 1.15 0 0.748792 1.1 0 0.748792 1.05 0 
0.748792 1 0 0.748792 0.95 0 0.748792 0.9 0 
0.748792 0.85 0 0.748792 0.8 0 0.748792 0.75 0 
0.748792 0.7 0 0.748792 0.65 0 0.748792 0.6 0 
0.748792 0.55 0 0.748792 0.5 0 0.748792 0.45 0 
0.748792 0.4 0 0.748792 0.35 0 0.748792 0.3 0 
0.748792 0.25 0 0.748792 0.2 0 0.748792 0.15 0 
0.748792 0.1 0 0.748792 0.05 0 0.748792 0 0 
0.798576 1.5 0 0.798576 1.45 0 0.798576 1.4 0 
0.798576 1.35 0 0.798576 1.3 0 0.798576 1.25 0 
0.798576 1.2 0 0.798576 1.15 0 0.798576 1.1 0 
0.798576 1.05 0 0.798576 1 0 0.798576 0.95 0 
0.798576 0.9 0 0.798576 0.85 0 0.798576 0.8 0 
0.798576 0.75 0 0.798576 0.7 0 0.798576 0.65 0 
0.798576 0.6 0 0.798576 0.55 0 0.798576 0.5 0 
0.798576 0.45 0 0.798576 0.4 0 0.798576 0.35 0 
0.798576 0.3 0 0.798576 0.25 0 0.798576 0.2 0 
0.798576 0.15 0 0.798576 0.1 0 0.798576 0.05 0 
0.798576 0 0 0.84836 1.5 0 0.84836 1.45 0 
0.84836 1.4 0 0.84836 1.35 0 0.84836 1.3 0 
0.84836 1.25 0 0.84836 1.2 0 0.84836 1.15 0 
0.84836 1.1 0 0.84836 1.05 0 0.84836 1 0 
0.84836 0.95 0 0.84836 0.9 0 0.84836 0.85 0 
0.84836 0.8 0 0.84836 0.75 0 0.84836 0.7 0 
0.84836 0.65 0 0.84836 0.6 0 0.84836 0.55 0 
0.84836 0.5 0 0.84836 0.45 0 0.84836 0.4 0 
0.84836 0.35 0 0.84836 0.3 0 0.84836 0.25 0 
0.84836 0.2 0 0.84836 0.15 0 0.84836 0.1 0 
0.84836 0.05 0 0.84836 0 0 0.898144 1.5 0 
0.898144 1.45 0 0.898144 1.4 0 0.898144 1.35 0 
0.898144 1.3 0 0.898144 1.25 0 0.898144 1.2 0 
0.898144 1.15 0 0.898144 1.1 0 0.898144 1.05 0 
0.898144 1 0 0.898144 0.95 0 0.898144 0.9 0 
0.898144 0.85 0 0.898144 0.8 0 0.898144 0.75 0 
0.898144 0.7 0 0.898144 0.65 0 0.898144 0.6 0 
0.898144 0.55 0 0.898144 0.5 0 0.898144 0.45 0 
0.898144 0.4 0 0.898144 0.35 0 0.898144 0.3 0 
0.898144 0.25 0 0.898144 0.2 0 0.898144 0.15 0 
0.898144 0.1 0 0.898144 0.05 0 0.898144 0 0 
0.947928 1.5 0 0.947928 1.45 0 0.947928 1.4 0 
0.947928 1.35 0 0.947928 1.3 0 0.947928 1.25 0 
0.947928 1.2 0 0.947928 1.15 0 0.947928 1.1 0 
0.947928 1.05 0 0.947928 1 0 0.947928 0.95 0 
0.947928 0.9 0 0.947928 0.85 0 0.947928 0.8 0 
0.947928 0.75 0 0.947928 0.7 0 0.947928 0.65 0 
0.947928 0.6 0 0.947928 0.55 0 0.947928 0.5 0 
0.947928 0.45 0 0.947928 0.4 0 0.947928 0.35 0 
0.947928 0.3 0 0.947928 0.25 0 0.947928 0.2 0 
0.947928 0.15 0 0.947928 0.1 0 0.947928 0.05 0 
0.947928 0 0 0.997712 1.5 0 0.997712 1.45 0 
0.997712 1.4 0 0.997712 1.35 0 0.997712 1.3 0 
0.997712 1.25 0 0.997712 1.2 0 0.997712 1.15 0 
0.997712 1.1 0 0.997712 1.05 0 0.997712 1 0 
0.997712 0.95 0 0.997712 0.9 0 0.997712 0.85 0 
0.997712 0.8 0 0.997712 0.75 0 0.997712 0.7 0 
0.997712 0.65 0 0.997712 0.6 0 0.997712 0.55 0 
0.997712 0.5 0 0.997712 0.45 0 0.997712 0.4 0 
0.997712 0.35 0 0.997712 0.3 0 0.997712 0.25 0 
0.997712 0.2 0 0.997712 0.15 0 0.997712 0.1 0 
0.997712 0.05 0 0.997712 0 0 1.047496 1.5 0 
1.047496 1.45 0 1.047496 1.4 0 1.047496 1.35 0 
1.047496 1.3 0 1.047496 1.25 0 1.047496 1.2 0 
1.047496 1.15 0 1.047496 1.1 0 1.047496 1.05 0 
1.047496 1 0 1.047496 0.95 0 1.047496 0.9 0 
1.047496 0.85 0 1.047496 0.8 0 1.047496 0.75 0 
1.047496 0.7 0 1.047496 0.65 0 1.047496 0.6 0 
1.047496 0.55 0 1.047496 0.5 0 1.047496 0.45 0 
1.047496 0.4 0 1.047496 0.35 0 1.047496 0.3 0 
1.047496 0.25 0 1.047496 0.2 0 1.047496 0.15 0 
[...]
CELL_DATA 9150
FIELD FieldData 7
B_Stress_n_p_m2 1 9150 float
1.24343 1.25962 1.2749 1.2896 1.30471 1.32071 1.33771 1.35527 1.37205 
1.38533 1.39016 1.37845 1.34201 1.27628 1.13595 0.795731 0.516471 0.359131 
0.272892 0.219547 0.18378 0.158808 0.140935 0.127965 0.118524 0.111721 0.106983 
0.103943 0.102172 0.100487 1.16945 1.18454 1.19742 1.20859 1.21891 1.22871 
1.23794 1.24612 1.25202 1.25333 1.24609 1.22425 1.18083 1.10486 0.963101 
0.731119 0.533212 0.397333 0.305463 0.241148 0.194812 0.160687 0.135134 0.115808 
0.101156 0.0901244 0.0820065 0.0762635 0.072287 0.0695421 1.09931 1.11329 1.124 
1.13202 1.13809 1.14239 1.14471 1.14445 1.1404 1.13052 1.11164 1.07943 
1.02864 0.951068 0.833033 0.678165 0.53636 0.424263 0.33958 0.276001 0.227987 
0.191402 0.163293 0.141582 0.124799 0.111898 0.102147 0.0949422 0.0895799 0.0860412 
1.0337 1.04663 1.05547 1.06086 1.06347 1.06337 1.06027 1.05355 1.04208 
1.02421 0.997568 0.959221 0.905792 0.833038 0.737357 0.625686 0.518902 0.427983 
0.354483 0.296222 0.250323 0.214187 0.185709 0.163263 0.145617 0.13185 0.121296 
0.113393 0.107559 0.104128 0.972991 0.984961 0.992263 0.995604 0.995592 0.992256 
0.985313 0.974196 0.958003 0.935468 0.904978 0.864704 0.812797 0.74762 0.669276 
0.583288 0.499892 0.425696 0.362742 0.310631 0.268052 0.233503 0.205588 0.183122 
0.165143 0.150894 0.139814 0.131416 0.125231 0.121725 0.917326 0.92843 0.934521 
0.936349 0.934484 0.928963 0.919552 0.905811 0.88707 0.862457 0.830958 0.791558 
0.743445 0.686343 0.621413 0.55249 0.485169 0.423515 0.369354 0.322995 0.283962 
0.251448 0.224575 0.202521 0.184567 0.170123 0.158738 0.150012 0.143566 0.139927 
0.866659 0.877001 0.88217 0.882947 0.879879 0.873027 0.862238 0.847208 0.827488 
0.80253 0.771763 0.734711 0.69117 0.641461 0.586873 0.530022 0.47423 0.422126 
0.375191 0.333965 0.298394 0.268094 0.242546 0.221204 0.203556 0.189157 0.177663 
0.168756 0.162143 0.158383 0.820814 0.83049 0.834983 0.835087 0.831328 0.823804 
0.812443 0.797067 0.777411 0.753173 0.724086 0.69001 0.65106 0.607763 0.561261 
0.513373 0.466219 0.42158 0.380617 0.343906 0.311591 0.28354 0.259475 0.239051 
0.221917 0.207756 0.196313 0.187348 0.180641 0.176772 0.779522 0.788622 0.79264 
0.792364 0.788303 0.78059 0.769224 0.754131 0.735191 0.712278 0.685322 0.654378 
0.619711 0.581883 0.541839 0.500877 0.460437 0.421777 0.3858 0.353042 0.323732 
0.297884 0.275371 0.255994 0.239527 0.22575 0.214487 0.205563 0.198823 0.194852 
0.742464 0.751069 0.754766 0.754332 0.750253 0.742689 0.731698 0.717289 0.699444 
0.67816 0.653489 0.625593 0.594794 0.56162 0.526835 0.491398 0.456334 0.422563 
0.390796 0.361503 0.33494 0.311198 0.290248 0.271991 0.25629 0.243004 0.232021 
0.223216 0.216492 0.212425 0.709292 0.717472 0.720971 0.720539 0.716638 0.70945 
0.699077 0.685586 0.669035 0.649496 0.627099 0.602055 0.574697 0.545496 0.51507 
0.484149 0.453492 0.423794 0.395619 0.369371 0.345305 0.323547 0.30413 0.287019 
0.272145 0.259423 0.24879 0.240164 0.233492 0.229336 0.679658 0.687474 0.690863 
0.690544 0.686953 0.680284 0.670669 0.658219 0.643039 0.625253 0.605027 0.582597 
0.558281 0.532491 0.505733 0.478575 0.451599 0.425344 0.400263 0.376702 0.354897 
0.33499 0.317047 0.301078 0.287057 0.274944 0.264708 0.256302 0.24971 0.245469 
0.653218 0.660722 0.664068 0.663936 0.660735 0.654665 0.645879 0.634516 0.620711 
0.604616 0.586419 0.566356 0.544725 0.521883 0.498248 0.474274 0.450419 0.427111 
0.404718 0.383533 0.363773 0.34558 0.329038 0.314181 0.301015 0.28953 0.279719 
0.271562 0.265068 0.260747 0.629649 0.636885 0.640233 0.640334 0.637567 0.632133 
0.6242 0.61392 0.601446 0.586947 0.570617 0.552685 0.533423 0.513144 0.492197 
0.47095 0.449773 0.429011 0.408968 0.389894 0.371981 0.355367 0.34014 0.326352 
0.314025 0.303169 0.293797 0.285904 0.279519 0.275121 0.608649 0.615654 0.619037 
0.619395 0.617079 0.61229 0.605197 0.595964 0.584753 0.571738 0.55711 0.54109 
0.523924 0.505885 0.487268 0.468379 0.449521 0.430978 0.413003 0.395808 0.379564 
0.364398 0.350398 0.337623 0.326106 0.315868 0.306934 0.299312 0.293042 0.288572 
0.589941 0.596748 0.600186 0.60081 0.598946 0.594786 0.588504 0.580264 0.570232 
0.558581 0.545499 0.531191 0.515881 0.499808 0.483226 0.466392 0.449558 0.432961 
0.416814 0.401297 0.38656 0.372717 0.359855 0.348032 0.337286 0.327647 0.319143 
0.31179 0.305638 0.301098 0.573276 0.57991 0.583416 0.584306 0.58288 0.579324 
0.573808 0.566497 0.557555 0.547151 0.535465 0.522689 0.509026 0.494687 0.479892 
0.46486 0.449804 0.434923 0.420396 0.40638 0.393003 0.38037 0.368557 0.357622 
0.347604 0.338535 0.330446 0.323358 0.317321 0.312716 0.558426 0.564912 0.568492 
0.56964 0.568632 0.565645 0.560845 0.554393 0.54645 0.53718 0.526754 0.515348 
0.503149 0.490344 0.477126 0.463682 0.450194 0.436832 0.423749 0.411077 0.39893 
0.387397 0.376549 0.366437 0.357102 0.348572 0.340879 0.334044 0.32812 0.323454 
0.545192 0.551548 0.555204 0.556598 0.555982 0.553525 0.549388 0.543726 0.536695 
0.528452 0.519159 0.50898 0.498085 0.486641 0.474818 0.462779 0.450681 0.438669 
0.426873 0.415408 0.404371 0.393839 0.383875 0.374525 0.365824 0.357799 0.35048 
0.343887 0.338071 0.333347 0.533392 0.539635 0.543368 0.544992 0.544741 0.542773 
0.539244 0.534304 0.528101 0.520787 0.512513 0.503432 0.493699 0.483466 0.472881 
0.46209 0.451227 0.440418 0.429774 0.419393 0.409358 0.399737 0.390581 0.381932 
0.373818 0.366265 0.359296 0.35293 0.347217 0.34244 0.522867 0.529011 0.532817 
0.534656 0.53474 0.533222 0.530249 0.525965 0.520513 0.514036 0.506678 0.49858 
0.489885 0.48073 0.471248 0.461567 0.451805 0.442069 0.432457 0.423052 0.413923 
0.405128 0.39671 0.388704 0.381132 0.374015 0.367373 0.361221 0.355603 0.350776 
0.513476 0.519532 0.523409 0.525444 0.525836 0.524728 0.52226 0.518571 0.513797 
0.508075 0.501538 0.494321 0.486554 0.478361 0.469863 0.461172 0.452393 0.443618 
0.434932 0.426404 0.418094 0.410048 0.402304 0.394886 0.387813 0.381099 0.37476 
0.368807 0.363279 0.358406 0.505092 0.511071 0.515013 0.517229 0.517901 0.517165 
0.515156 0.512005 0.507842 0.502798 0.497 0.490571 0.483633 0.476301 0.468681 
0.460876 0.452975 0.445062 0.437207 0.429469 0.421899 0.414534 0.407402 0.400522 
0.393907 0.387564 0.381505 0.375737 0.370292 0.365376 0.497604 0.503515 0.507518 
0.509898 0.510824 0.510426 0.50883 0.506164 0.502552 0.498118 0.492982 0.48726 
0.481065 0.474501 0.467668 0.460654 0.453541 0.4464 0.439292 0.432267 0.425366 
0.418617 0.412043 0.405654 0.399458 0.393457 0.387656 0.382058 0.376691 0.371736 
0.490914 0.496765 0.500823 0.503352 0.504508 0.504413 0.503191 0.500961 0.497845 
0.493958 0.489416 0.484328 0.478797 0.472923 0.466793 0.460488 0.454082 0.447634 
0.441199 0.434817 0.42852 0.422331 0.416263 0.410322 0.404509 0.398821 0.393258 
0.387817 0.382521 0.37753 0.484935 0.490732 0.494841 0.497504 0.498867 0.499046 
0.498159 0.496322 0.49365 0.490255 0.486245 0.481724 0.47679 0.471532 0.466033 
0.460364 0.454592 0.448768 0.442938 0.437136 0.431385 0.425703 0.420096 0.414563 
0.4091 0.403699 0.398355 0.393059 0.387829 0.382805 0.47959 0.485339 0.489494 
0.492277 0.493825 0.49425 0.493664 0.49218 0.489906 0.486952 0.48342 0.479408 
0.475007 0.470302 0.465368 0.460271 0.455067 0.449805 0.44452 0.439241 0.433986 
0.428763 0.423574 0.418414 0.41327 0.408132 0.402987 0.397825 0.392656 0.387603 
0.47481 0.480516 0.484712 0.487603 0.489318 0.489963 0.489647 0.488478 0.486562 
0.484002 0.480897 0.477341 0.47342 0.469211 0.464783 0.460199 0.455507 0.450749 
0.445957 0.44115 0.436342 0.431537 0.426728 0.421906 0.417055 0.412157 0.407196 
0.402156 0.397043 0.391963 0.470535 0.476202 0.480435 0.483422 0.485285 0.486127 
0.486053 0.485166 0.48357 0.481364 0.478642 0.475494 0.472002 0.468237 0.464265 
0.460141 0.45591 0.451607 0.447257 0.442878 0.438476 0.434048 0.429585 0.425072 
0.420487 0.415809 0.411016 0.406089 0.401027 0.395923 0.46671 0.472343 0.476608 
0.479681 0.481677 0.482694 0.482835 0.482201 0.480891 0.479001 0.476622 0.47384 
0.470732 0.467366 0.463803 0.460093 0.456276 0.452382 0.448433 0.44444 0.440404 
0.436319 0.432171 0.427939 0.423597 0.41912 0.414482 0.409658 0.404645 0.399519 
0.463289 0.468891 0.473184 0.476333 0.478446 0.47962 0.479953 0.479544 0.478489 
0.476881 0.47481 0.472355 0.469592 0.466584 0.463388 0.46005 0.456605 0.453081 
0.449493 0.445849 0.442146 0.438373 0.43451 0.430534 0.426415 0.422122 0.417625 
0.412897 0.407927 0.402782 0.460229 0.465802 0.47012 0.473336 0.475554 0.476866 
0.47737 0.477161 0.476334 0.474979 0.473181 0.47102 0.468565 0.465879 0.463012 
0.460009 0.4569 0.453708 0.450447 0.447119 0.443717 0.440226 0.436624 0.432882 
0.428966 0.424842 0.420475 0.415835 0.410906 0.405744 0.457492 0.463039 0.467378 
0.470653 0.472963 0.474398 0.475054 0.475023 0.474398 0.473268 0.471716 0.469817 
0.467639 0.46524 0.46267 0.459967 0.45716 0.45427 0.451303 0.448261 0.445132 
0.441899 0.438534 0.435005 0.431275 0.427305 0.423058 0.418499 0.413608 0.408431 
0.455044 0.460568 0.464925 0.468252 0.470642 0.472186 0.472976 0.473103 0.472658 
0.471729 0.470395 0.468731 0.4668 0.46466 0.462355 0.459923 0.457389 0.454769 
0.45207 0.449286 0.446406 0.443407 0.440258 0.436924 0.433364 0.429536 0.425399 
0.420914 0.41606 0.410869 0.452856 0.458357 0.462731 0.466102 0.468564 0.470203 
0.47111 0.471377 0.471093 0.470342 0.469203 0.467748 0.466039 0.46413 0.462065 
0.459876 0.457588 0.455213 0.452754 0.450206 0.447551 0.444764 0.441813 0.438657 
0.435254 0.431556 0.42752 0.423105 0.418283 0.413082 0.4509 0.456382 0.460768 
0.464178 0.466701 0.468424 0.469436 0.469826 0.469683 0.46909 0.468125 0.466857 
0.465347 0.463645 0.461794 0.459825 0.457758 0.455604 0.453364 0.451028 0.448578 
0.445986 0.443215 0.440222 0.436962 0.433385 0.429443 0.425092 0.420301 0.41509 
0.449153 0.454616 0.459013 0.462456 0.465033 0.466829 0.467931 0.46843 0.468412 
0.46796 0.467149 0.466048 0.464715 0.463199 0.461541 0.459769 0.457901 0.455947 
0.453905 0.451763 0.449499 0.447084 0.444477 0.441635 0.438507 0.435041 0.431186 
0.426894 0.422133 0.416913 0.447594 0.45304 0.457445 0.460916 0.463539 0.465397 
0.466579 0.467174 0.467266 0.466938 0.466264 0.465311 0.464136 0.462787 0.461302 
0.459707 0.45802 0.456246 0.454383 0.452417 0.450323 0.448069 0.445614 0.44291 
0.439904 0.43654 0.432765 0.42853 0.423796 0.418569 0.446204 0.451634 0.456045 
0.459539 0.462201 0.464114 0.465365 0.466042 0.46623 0.466012 0.465459 0.464638 
0.463605 0.462406 0.461076 0.45964 0.458115 0.456505 0.454805 0.452998 0.451059 
0.448954 0.446637 0.44406 0.441166 0.437897 0.434198 0.430015 0.425307 0.420074 
0.444965 0.45038 0.454795 0.458309 0.461004 0.462962 0.464272 0.465021 0.465294 
0.465172 0.464727 0.464023 0.463116 0.46205 0.46086 0.459568 0.45819 0.456727 
0.455174 0.453513 0.451716 0.449746 0.447557 0.445097 0.442307 0.439127 0.435498 
0.431363 0.426681 0.421443 0.443862 0.449263 0.453681 0.45721 0.459932 0.461929 
0.46329 0.464101 0.464447 0.464409 0.464059 0.463459 0.462665 0.461718 0.460652 
0.45949 0.458244 0.456916 0.455497 0.453968 0.4523 0.450455 0.448384 0.446032 
0.443338 0.440241 0.436677 0.432589 0.427931 0.422689 0.442883 0.44827 0.452689 
0.45623 0.458974 0.461003 0.462406 0.46327 0.46368 0.463715 0.463448 0.462941 
0.462246 0.461406 0.460453 0.459407 0.458281 0.457073 0.455776 0.454368 0.452819 
0.451088 0.449125 0.446874 0.444271 0.441251 0.437749 0.433704 0.429069 0.423825 
0.442014 0.447389 0.451807 0.455356 0.458117 0.460172 0.46161 0.462519 0.462984 
0.463083 0.462889 0.462463 0.461857 0.461112 0.460259 0.459319 0.4583 0.457203 
0.456016 0.454719 0.453278 0.451653 0.449791 0.447633 0.445114 0.442166 0.438722 
0.43472 0.430106 0.424861 0.441244 0.446607 0.451023 0.454578 0.457352 0.459428 
0.460894 0.461841 0.462352 0.462506 0.462376 0.462021 0.461494 0.460834 0.460071 
0.459225 0.458304 0.457307 0.456221 0.455024 0.453684 0.452156 0.450387 0.448316 
0.445876 0.442997 0.439608 0.435645 0.431053 0.425807 0.440565 0.445916 0.450329 
0.453886 0.456669 0.45876 0.46025 0.461227 0.461776 0.461978 0.461903 0.461611 
0.461154 0.46057 0.459888 0.459126 0.458294 0.457387 0.456393 0.455289 0.454041 
0.452603 0.450921 0.448932 0.446566 0.443751 0.440415 0.436489 0.431918 0.426672 
0.439967 0.445307 0.449715 0.453272 0.45606 0.458162 0.459669 0.460671 0.461253 
0.461495 0.461467 0.46123 0.460834 0.460318 0.459708 0.459023 0.45827 0.457446 
0.456536 0.455517 0.454353 0.452999 0.451398 0.449485 0.44719 0.444436 0.44115 
0.437261 0.43271 0.427465 0.439442 0.444771 0.449173 0.452729 0.455518 0.457626 
0.459146 0.460166 0.460774 0.46105 0.461064 0.460875 0.460533 0.460076 0.459531 
0.458915 0.458234 0.457485 0.456652 0.455711 0.454626 0.453349 0.451824 0.449983 
0.447754 0.445059 0.441821 0.437967 0.433437 0.428193 0.438984 0.444302 0.448697 
0.452248 0.455036 0.457147 0.458674 0.459708 0.460337 0.460641 0.460689 0.460542 
0.460248 0.459844 0.459357 0.458803 0.458188 0.457506 0.456744 0.455875 0.454862 
0.453658 0.452204 0.450431 0.448265 0.445626 0.442434 0.438615 0.434104 0.428862 
0.438585 0.443894 0.448281 0.451825 0.454608 0.456718 0.458249 0.459292 0.459937 
0.460263 0.46034 0.460229 0.459977 0.459621 0.459185 0.458687 0.458131 0.457511 
0.456813 0.45601 0.455065 0.453929 0.452542 0.450834 0.448728 0.446142 0.442995 
0.43921 0.434719 0.42948 0.438242 0.44354 0.447917 0.451453 0.454228 0.456334 
0.457865 0.458913 0.459569 0.459913 0.460015 0.459934 0.459719 0.459404 0.459015 
0.458567 0.458064 0.457501 0.456862 0.456121 0.455238 0.454166 0.452842 0.451195 
0.449147 0.446614 0.44351 0.439758 0.435286 0.430051 0.437947 0.443235 0.447602 
0.451127 0.453893 0.455992 0.457518 0.458568 0.459231 0.459588 0.45971 0.459656 
0.459472 0.459194 0.458846 0.458443 0.457989 0.457478 0.456893 0.456208 0.455385 
0.454372 0.453108 0.45152 0.449528 0.447044 0.443984 0.440263 0.435811 0.43058 
0.437697 0.442975 0.447331 0.450844 0.453598 0.455685 0.457205 0.458253 0.458919 
0.459285 0.459423 0.459391 0.459234 0.458989 0.458678 0.458316 0.457906 0.457441 
0.456907 0.456275 0.455506 0.454549 0.453343 0.451811 0.449872 0.447438 0.444419 
0.440731 0.436299 0.431071 0.437488 0.442756 0.4471 0.450599 0.453338 0.455413 
0.456922 0.457964 0.45863 0.459003 0.459153 0.459138 0.459006 0.458789 0.458511 
0.458185 0.457815 0.457394 0.456905 0.456322 0.455605 0.454702 0.453549 0.452072 
0.450186 0.447799 0.444822 0.441165 0.436753 0.43153 0.437317 0.442574 0.446905 
0.450388 0.45311 0.455169 0.456666 0.457699 0.458362 0.458737 0.458896 0.458897 
0.458784 0.458592 0.458344 0.458051 0.457717 0.457336 0.45689 0.456352 0.455683 
0.454831 0.45373 0.452306 0.45047 0.448131 0.445194 0.441569 0.437176 0.43196 
0.437179 0.442426 0.446743 0.450209 0.452912 0.454953 0.456433 0.457455 0.458112 
0.458488 0.458653 0.458665 0.45857 0.4584 0.458177 0.457914 0.457613 0.457268 
0.456861 0.456366 0.455743 0.454939 0.453888 0.452514 0.450729 0.448436 0.445539 
0.441946 0.437574 0.432363 0.437072 0.442309 0.446611 0.450058 0.45274 0.45476 
0.456223 0.457231 0.457879 0.458252 0.45842 0.458442 0.458361 0.45821 0.45801 
0.457774 0.457503 0.457191 0.456821 0.456366 0.455785 0.455027 0.454025 0.452701 
0.450964 0.448717 0.445861 0.442299 0.437948 0.432744 0.436994 0.442221 0.446506 
0.449932 0.452592 0.454589 0.456031 0.457023 0.45766 0.458028 0.458198 0.458226 
0.458157 0.458023 0.457844 0.457631 0.457388 0.457106 0.45677 0.456352 0.455812 
0.455098 0.454143 0.452867 0.451178 0.448977 0.446161 0.442631 0.438301 0.433105 
0.436942 0.442158 0.446426 0.44983 0.452465 0.454438 0.455857 0.45683 0.457455 
0.457815 0.457984 0.458017 0.457958 0.457838 0.457677 0.457486 0.457267 0.457014 
0.456709 0.456326 0.455825 0.455153 0.454243 0.453015 0.451373 0.449218 0.446442 
0.442945 0.438636 0.433448 0.436914 0.442119 0.446369 0.44975 0.452358 0.454303 
0.455698 0.456651 0.45726 0.457612 0.457778 0.457813 0.457762 0.457654 0.457509 
0.457338 0.457142 0.456915 0.456639 0.456289 0.455824 0.455193 0.454328 0.453145 
0.451551 0.449441 0.446707 0.443242 0.438956 0.433775 0.436908 0.442102 0.446333 
0.449688 0.452268 0.454185 0.455553 0.456483 0.457075 0.457417 0.457578 0.457615 
0.45757 0.457472 0.457342 0.457188 0.457013 0.456809 0.45656 0.456241 0.455812 
0.45522 0.454397 0.453261 0.451714 0.449649 0.446956 0.443525 0.439261 0.43409 
0.436923 0.442105 0.446317 0.449645 0.452195 0.45408 0.45542 0.456325 0.456899 
0.457228 0.457383 0.45742 0.45738 0.457291 0.457173 0.457035 0.456879 0.456697 
0.456474 0.456184 0.455788 0.455234 0.454454 0.453363 0.451862 0.449844 0.447192 
0.443796 0.439555 0.434393 0.436957 0.442127 0.446318 0.449618 0.452135 0.453988 
0.455297 0.456177 0.456731 0.457046 0.457194 0.457229 0.457192 0.457111 0.457004 
0.456881 0.456741 0.45658 0.45638 0.456118 0.455754 0.455237 0.454497 0.453451 
0.451998 0.450026 0.447417 0.444056 0.439839 0.434686 0.437009 0.442167 0.446335 
0.449606 0.452089 0.453907 0.455184 0.456036 0.456569 0.456869 0.457009 0.457041 
0.457007 0.456932 0.456835 0.456724 0.4566 0.456457 0.45628 0.456044 0.455711 
0.455229 0.45453 0.453528 0.452122 0.450197 0.447631 0.444306 0.440114 0.434972 
0.437078 0.442223 0.446368 0.449607 0.452054 0.453836 0.455078 0.455902 0.456412 
0.456697 0.456827 0.456856 0.456822 0.456753 0.456665 0.456565 0.456456 0.45633 
0.456174 0.455962 0.455658 0.455211 0.454552 0.453595 0.452236 0.450358 0.447837 
0.444548 0.440383 0.435252 0.437163 0.442295 0.446415 0.449621 0.45203 0.453773 
0.45498 0.455774 0.45626 0.456528 0.456648 0.456672 0.45664 0.456575 0.456494 
0.456405 0.456308 0.456198 0.456061 0.455873 0.455597 0.455184 0.454564 0.453651 
0.45234 0.45051 0.448034 0.444784 0.440645 0.435526 0.437263 0.442381 0.446475 
0.449646 0.452016 0.453719 0.454889 0.45565 0.456112 0.456362 0.456471 0.456491 
0.456458 0.456396 0.456322 0.456242 0.456158 0.456063 0.455943 0.455777 0.455529 
0.455148 0.454567 0.453698 0.452434 0.450654 0.448225 0.445014 0.440903 0.435797 
0.437377 0.442481 0.446548 0.449682 0.45201 0.453671 0.454802 0.455531 0.455966 
0.456199 0.456296 0.45631 0.456277 0.456218 0.45615 0.456078 0.456005 0.455923 
0.455821 0.455675 0.455453 0.455104 0.454561 0.453736 0.452521 0.450791 0.448409 
0.44524 0.441158 0.436065 0.437506 0.442594 0.446632 0.449727 0.452012 0.453629 
0.45472 0.455414 0.455824 0.456037 0.456123 0.456131 0.456096 0.45604 0.455977 
0.455913 0.455849 0.45578 0.455693 0.455568 0.45537 0.455052 0.454547 0.453766 
0.4526 0.450921 0.448589 0.445462 0.441411 0.436331 0.437647 0.44272 0.446728 
0.449782 0.452021 0.453591 0.454641 0.4553 0.455683 0.455877 0.455951 0.455953 
0.455916 0.455862 0.455803 0.455746 0.455691 0.455633 0.455561 0.455454 0.455281 
0.454993 0.454525 0.453789 0.452672 0.451046 0.448765 0.445682 0.441662 0.436597 
0.437802 0.442858 0.446834 0.449845 0.452036 0.453559 0.454565 0.455188 0.455543 
0.455718 0.455779 0.455775 0.455736 0.455683 0.455628 0.455577 0.45553 0.455483 
0.455425 0.455336 0.455185 0.454927 0.454496 0.453804 0.452738 0.451165 0.448936 
0.445899 0.441913 0.436864 0.437969 0.443008 0.44695 0.449916 0.452056 0.453529 
0.45449 0.455077 0.455404 0.455559 0.455608 0.455597 0.455556 0.455504 0.455453 
0.455407 0.455368 0.455331 0.455285 0.455212 0.455084 0.454855 0.45446 0.453812 
0.452797 0.451279 0.449105 0.446116 0.442164 0.437132 0.438149 0.44317 0.447075 
0.449994 0.452081 0.453503 0.454418 0.454967 0.455265 0.4554 0.455437 0.455419 
0.455376 0.455325 0.455277 0.455237 0.455204 0.455175 0.455141 0.455084 0.454977 
0.454776 0.454417 0.453813 0.45285 0.451388 0.449271 0.446332 0.442417 0.437403 
0.438342 0.443342 0.44721 0.450078 0.45211 0.453478 0.454346 0.454857 0.455126 
0.455241 0.455266 0.455242 0.455196 0.455146 0.455101 0.455065 0.455038 0.455017 
0.454994 0.454952 0.454865 0.45469 0.454367 0.453807 0.452897 0.451494 0.449434 
0.446548 0.442673 0.437677 0.438547 0.443527 0.447354 0.450169 0.452143 0.453455 
0.454274 0.454746 0.454986 0.455082 0.455094 0.455064 0.455016 0.454967 0.454924 
0.454892 0.454871 0.454857 0.454844 0.454816 0.454747 0.454599 0.45431 0.453795 