# vtk DataFile Version 5.1
vtk output
ASCII
DATASET UNSTRUCTURED_GRID
POINTS 693 double
0.1016 1.5 0 0.1016 1.3125 0 0.1016 1.125 0 
0.1016 0.9375 0 0.1016 0.75 0 0.1016 0.5625 0 
0.1016 0.375 0 0.1016 0.1875 0 0.1016 0 0 
5.08 1.5 0 5.08 1.3125 0 5.08 1.125 0 
5.08 0.9375 0 5.08 0.75 0 5.08 0.5625 0 
5.08 0.375 0 5.08 0.1875 0 5.08 0 0 
0.300736 1.5 0 0.300736 1.3125 0 0.300736 1.125 0 
0.300736 0.9375 0 0.300736 0.75 0 0.300736 0.5625 0 
0.300736 0.375 0 0.300736 0.1875 0 0.300736 0 0 
0.499872 1.5 0 0.499872 1.3125 0 0.499872 1.125 0 
0.499872 0.9375 0 0.499872 0.75 0 0.499872 0.5625 0 
0.499872 0.375 0 0.499872 0.1875 0 0.499872 0 0 
0.699008 1.5 0 0.699008 1.3125 0 0.699008 1.125 0 
0.699008 0.9375 0 0.699008 0.75 0 0.699008 0.5625 0 
0.699008 0.375 0 0.699008 0.1875 0 0.699008 0 0 
0.898144 1.5 0 0.898144 1.3125 0 0.898144 1.125 0 
0.898144 0.9375 0 0.898144 0.75 0 0.898144 0.5625 0 
0.898144 0.375 0 0.898144 0.1875 0 0.898144 0 0 
1.09728 1.5 0 1.09728 1.3125 0 1.09728 1.125 0 
1.09728 0.9375 0 1.09728 0.75 0 1.09728 0.5625 0 
1.09728 0.375 0 1.09728 0.1875 0 1.09728 0 0 
1.296416 1.5 0 1.296416 1.3125 0 1.296416 1.125 0 
1.296416 0.9375 0 1.296416 0.75 0 1.296416 0.5625 0 
1.296416 0.375 0 1.296416 0.1875 0 1.296416 0 0 
1.495552 1.5 0 1.495552 1.3125 0 1.495552 1.125 0 
1.495552 0.9375 0 1.495552 0.75 0 1.495552 0.5625 0 
1.495552 0.375 0 1.495552 0.1875 0 1.495552 0 0 
1.694688 1.5 0 1.694688 1.3125 0 1.694688 1.125 0 
1.694688 0.9375 0 1.694688 0.75 0 1.694688 0.5625 0 
1.694688 0.375 0 1.694688 0.1875 0 1.694688 0 0 
1.893824 1.5 0 1.893824 1.3125 0 1.893824 1.125 0 
1.893824 0.9375 0 1.893824 0.75 0 1.893824 0.5625 0 
1.893824 0.375 0 1.893824 0.1875 0 1.893824 0 0 
2.09296 1.5 0 2.09296 1.3125 0 2.09296 1.125 0 
2.09296 0.9375 0 2.09296 0.75 0 2.09296 0.5625 0 
2.09296 0.375 0 2.09296 0.1875 0 2.09296 0 0 
2.292096 1.5 0 2.292096 1.3125 0 2.292096 1.125 0 
2.292096 0.9375 0 2.292096 0.75 0 2.292096 0.5625 0 
2.292096 0.375 0 2.292096 0.1875 0 2.292096 0 0 
2.491232 1.5 0 2.491232 1.3125 0 2.491232 1.125 0 
2.491232 0.9375 0 2.491232 0.75 0 2.491232 0.5625 0 
2.491232 0.375 0 2.491232 0.1875 0 2.491232 0 0 
2.690368 1.5 0 2.690368 1.3125 0 2.690368 1.125 0 
2.690368 0.9375 0 2.690368 0.75 0 2.690368 0.5625 0 
2.690368 0.375 0 2.690368 0.1875 0 2.690368 0 0 
2.889504 1.5 0 2.889504 1.3125 0 2.889504 1.125 0 
2.889504 0.9375 0 2.889504 0.75 0 2.889504 0.5625 0 
2.889504 0.375 0 2.889504 0.1875 0 2.889504 0 0 
3.08864 1.5 0 3.08864 1.3125 0 3.08864 1.125 0 
3.08864 0.9375 0 3.08864 0.75 0 3.08864 0.5625 0 
3.08864 0.375 0 3.08864 0.1875 0 3.08864 0 0 
3.287776 1.5 0 3.287776 1.3125 0 3.287776 1.125 0 
3.287776 0.9375 0 3.287776 0.75 0 3.287776 0.5625 0 
3.287776 0.375 0 3.287776 0.1875 0 3.287776 0 0 
3.486912 1.5 0 3.486912 1.3125 0 3.486912 1.125 0 
3.486912 0.9375 0 3.486912 0.75 0 3.486912 0.5625 0 
3.486912 0.375 0 3.486912 0.1875 0 3.486912 0 0 
3.686048 1.5 0 3.686048 1.3125 0 3.686048 1.125 0 
3.686048 0.9375 0 3.686048 0.75 0 3.686048 0.5625 0 
3.686048 0.375 0 3.686048 0.1875 0 3.686048 0 0 
3.885184 1.5 0 3.885184 1.3125 0 3.885184 1.125 0 
3.885184 0.9375 0 3.885184 0.75 0 3.885184 0.5625 0 
3.885184 0.375 0 3.885184 0.1875 0 3.885184 0 0 
4.08432 1.5 0 4.08432 1.3125 0 4.08432 1.125 0 
4.08432 0.9375 0 4.08432 0.75 0 4.08432 0.5625 0 
4.08432 0.375 0 4.08432 0.1875 0 4.08432 0 0 
4.283456 1.5 0 4.283456 1.3125 0 4.283456 1.125 0 
4.283456 0.9375 0 4.283456 0.75 0 4.283456 0.5625 0 
4.283456 0.375 0 4.283456 0.1875 0 4.283456 0 0 
4.482592 1.5 0 4.482592 1.3125 0 4.482592 1.125 0 
4.482592 0.9375 0 4.482592 0.75 0 4.482592 0.5625 0 
4.482592 0.375 0 4.482592 0.1875 0 4.482592 0 0 
4.681728 1.5 0 4.681728 1.3125 0 4.681728 1.125 0 
4.681728 0.9375 0 4.681728 0.75 0 4.681728 0.5625 0 
4.681728 0.375 0 4.681728 0.1875 0 4.681728 0 0 
4.880864 1.5 0 4.880864 1.3125 0 4.880864 1.125 0 
4.880864 0.9375 0 4.880864 0.75 0 4.880864 0.5625 0 
4.880864 0.375 0 4.880864 0.1875 0 4.880864 0 0 
-0.1 1.5 0 -0.1 1.3125 0 -0.1 1.125 0 
-0.1 0.9375 0 -0.1 0.75 0 -0.1 0.5625 0 
-0.1 0.375 0 -0.1 0.1875 0 -0.1 0 0 
-10.16 1.5 0 -10.16 1.3125 0 -10.16 1.125 0 
-10.16 0.9375 0 -10.16 0.75 0 -10.16 0.5625 0 
-10.16 0.375 0 -10.16 0.1875 0 -10.16 0 0 
-9.9588 1.5 0 -9.9588 1.3125 0 -9.9588 1.125 0 
-9.9588 0.9375 0 -9.9588 0.75 0 -9.9588 0.5625 0 
-9.9588 0.375 0 -9.9588 0.1875 0 -9.9588 0 0 
-9.7576 1.5 0 -9.7576 1.3125 0 -9.7576 1.125 0 
-9.7576 0.9375 0 -9.7576 0.75 0 -9.7576 0.5625 0 
-9.7576 0.375 0 -9.7576 0.1875 0 -9.7576 0 0 
-9.5564 1.5 0 -9.5564 1.3125 0 -9.5564 1.125 0 
-9.5564 0.9375 0 -9.5564 0.75 0 -9.5564 0.5625 0 
-9.5564 0.375 0 -9.5564 0.1875 0 -9.5564 0 0 
-9.3552 1.5 0 -9.3552 1.3125 0 -9.3552 1.125 0 
-9.3552 0.9375 0 -9.3552 0.75 0 -9.3552 0.5625 0 
-9.3552 0.375 0 -9.3552 0.1875 0 -9.3552 0 0 
-9.154 1.5 0 -9.154 1.3125 0 -9.154 1.125 0 
-9.154 0.9375 0 -9.154 0.75 0 -9.154 0.5625 0 
-9.154 0.375 0 -9.154 0.1875 0 -9.154 0 0 
-8.9528 1.5 0 -8.9528 1.3125 0 -8.9528 1.125 0 
-8.9528 0.9375 0 -8.9528 0.75 0 -8.9528 0.5625 0 
-8.9528 0.375 0 -8.9528 0.1875 0 -8.9528 0 0 
-8.7516 1.5 0 -8.7516 1.3125 0 -8.7516 1.125 0 
-8.7516 0.9375 0 -8.7516 0.75 0 -8.7516 0.5625 0 
-8.7516 0.375 0 -8.7516 0.1875 0 -8.7516 0 0 
-8.5504 1.5 0 -8.5504 1.3125 0 -8.5504 1.125 0 
-8.5504 0.9375 0 -8.5504 0.75 0 -8.5504 0.5625 0 
-8.5504 0.375 0 -8.5504 0.1875 0 -8.5504 0 0 
-8.3492 1.5 0 -8.3492 1.3125 0 -8.3492 1.125 0 
-8.3492 0.9375 0 -8.3492 0.75 0 -8.3492 0.5625 0 
-8.3492 0.375 0 -8.3492 0.1875 0 -8.3492 0 0 
-8.148 1.5 0 -8.148 1.3125 0 -8.148 1.125 0 
-8.148 0.9375 0 -8.148 0.75 0 -8.148 0.5625 0 
-8.148 0.375 0 -8.148 0.1875 0 -8.148 0 0 
-7.9468 1.5 0 -7.9468 1.3125 0 -7.9468 1.125 0 
-7.9468 0.9375 0 -7.9468 0.75 0 -7.9468 0.5625 0 
-7.9468 0.375 0 -7.9468 0.1875 0 -7.9468 0 0 
-7.7456 1.5 0 -7.7456 1.3125 0 -7.7456 1.125 0 
-7.7456 0.9375 0 -7.7456 0.75 0 -7.7456 0.5625 0 
-7.7456 0.375 0 -7.7456 0.1875 0 -7.7456 0 0 
-7.5444 1.5 0 -7.5444 1.3125 0 -7.5444 1.125 0 
-7.5444 0.9375 0 -7.5444 0.75 0 -7.5444 0.5625 0 
-7.5444 0.375 0 -7.5444 0.1875 0 -7.5444 0 0 
-7.3432 1.5 0 -7.3432 1.3125 0 -7.3432 1.125 0 
-7.3432 0.9375 0 -7.3432 0.75 0 -7.3432 0.5625 0 
-7.3432 0.375 0 -7.3432 0.1875 0 -7.3432 0 0 
-7.142 1.5 0 -7.142 1.3125 0 -7.142 1.125 0 
-7.142 0.9375 0 -7.142 0.75 0 -7.142 0.5625 0 
-7.142 0.375 0 -7.142 0.1875 0 -7.142 0 0 
-6.9408 1.5 0 -6.9408 1.3125 0 -6.9408 1.125 0 
-6.9408 0.9375 0 -6.9408 0.75 0 -6.9408 0.5625 0 
-6.9408 0.375 0 -6.9408 0.1875 0 -6.9408 0 0 
-6.7396 1.5 0 -6.7396 1.3125 0 -6.7396 1.125 0 
-6.7396 0.9375 0 -6.7396 0.75 0 -6.7396 0.5625 0 
-6.7396 0.375 0 -6.7396 0.1875 0 -6.7396 0 0 
-6.5384 1.5 0 -6.5384 1.3125 0 -6.5384 1.125 0 
-6.5384 0.9375 0 -6.5384 0.75 0 -6.5384 0.5625 0 
-6.5384 0.375 0 -6.5384 0.1875 0 -6.5384 0 0 
-6.3372 1.5 0 -6.3372 1.3125 0 -6.3372 1.125 0 
-6.3372 0.9375 0 -6.3372 0.75 0 -6.3372 0.5625 0 
-6.3372 0.375 0 -6.3372 0.1875 0 -6.3372 0 0 
-6.136 1.5 0 -6.136 1.3125 0 -6.136 1.125 0 
-6.136 0.9375 0 -6.136 0.75 0 -6.136 0.5625 0 
-6.136 0.375 0 -6.136 0.1875 0 -6.136 0 0 
-5.9348 1.5 0 -5.9348 1.3125 0 -5.9348 1.125 0 
-5.9348 0.9375 0 -5.9348 0.75 0 -5.9348 0.5625 0 
-5.9348 0.375 0 -5.9348 0.1875 0 -5.9348 0 0 
-5.7336 1.5 0 -5.7336 1.3125 0 -5.7336 1.125 0 
-5.7336 0.9375 0 -5.7336 0.75 0 -5.7336 0.5625 0 
-5.7336 0.375 0 -5.7336 0.1875 0 -5.7336 0 0 
-5.5324 1.5 0 -5.5324 1.3125 0 -5.5324 1.125 0 
-5.5324 0.9375 0 -5.5324 0.75 0 -5.5324 0.5625 0 
-5.5324 0.375 0 -5.5324 0.1875 0 -5.5324 0 0 
-5.3312 1.5 0 -5.3312 1.3125 0 -5.3312 1.125 0 
-5.3312 0.9375 0 -5.3312 0.75 0 -5.3312 0.5625 0 
-5.3312 0.375 0 -5.3312 0.1875 0 -5.3312 0 0 
-5.13 1.5 0 -5.13 1.3125 0 -5.13 1.125 0 
-5.13 0.9375 0 -5.13 0.75 0 -5.13 0.5625 0 
-5.13 0.375 0 -5.13 0.1875 0 -5.13 0 0 
-4.9288 1.5 0 -4.9288 1.3125 0 -4.9288 1.125 0 
-4.9288 0.9375 0 -4.9288 0.75 0 -4.9288 0.5625 0 
-4.9288 0.375 0 -4.9288 0.1875 0 -4.9288 0 0 
-4.7276 1.5 0 -4.7276 1.3125 0 -4.7276 1.125 0 
-4.7276 0.9375 0 -4.7276 0.75 0 -4.7276 0.5625 0 
-4.7276 0.375 0 -4.7276 0.1875 0 -4.7276 0 0 
-4.5264 1.5 0 -4.5264 1.3125 0 -4.5264 1.125 0 
-4.5264 0.9375 0 -4.5264 0.75 0 -4.5264 0.5625 0 
-4.5264 0.375 0 -4.5264 0.1875 0 -4.5264 0 0 
-4.3252 1.5 0 -4.3252 1.3125 0 -4.3252 1.125 0 
-4.3252 0.9375 0 -4.3252 0.75 0 -4.3252 0.5625 0 
-4.3252 0.375 0 -4.3252 0.1875 0 -4.3252 0 0 
-4.124 1.5 0 -4.124 1.3125 0 -4.124 1.125 0 
-4.124 0.9375 0 -4.124 0.75 0 -4.124 0.5625 0 
-4.124 0.375 0 -4.124 0.1875 0 -4.124 0 0 
-3.9228 1.5 0 -3.9228 1.3125 0 -3.9228 1.125 0 
-3.9228 0.9375 0 -3.9228 0.75 0 -3.9228 0.5625 0 
-3.9228 0.375 0 -3.9228 0.1875 0 -3.9228 0 0 
-3.7216 1.5 0 -3.7216 1.3125 0 -3.7216 1.125 0 
-3.7216 0.9375 0 -3.7216 0.75 0 -3.7216 0.5625 0 
-3.7216 0.375 0 -3.7216 0.1875 0 -3.7216 0 0 
-3.5204 1.5 0 -3.5204 1.3125 0 -3.5204 1.125 0 
-3.5204 0.9375 0 -3.5204 0.75 0 -3.5204 0.5625 0 
-3.5204 0.375 0 -3.5204 0.1875 0 -3.5204 0 0 
-3.3192 1.5 0 -3.3192 1.3125 0 -3.3192 1.125 0 
-3.3192 0.9375 0 -3.3192 0.75 0 -3.3192 0.5625 0 
-3.3192 0.375 0 -3.3192 0.1875 0 -3.3192 0 0 
-3.118 1.5 0 -3.118 1.3125 0 -3.118 1.125 0 
-3.118 0.9375 0 -3.118 0.75 0 -3.118 0.5625 0 
-3.118 0.375 0 -3.118 0.1875 0 -3.118 0 0 
-2.9168 1.5 0 -2.9168 1.3125 0 -2.9168 1.125 0 
-2.9168 0.9375 0 -2.9168 0.75 0 -2.9168 0.5625 0 
-2.9168 0.375 0 -2.9168 0.1875 0 -2.9168 0 0 
-2.7156 1.5 0 -2.7156 1.3125 0 -2.7156 1.125 0 
-2.7156 0.9375 0 -2.7156 0.75 0 -2.7156 0.5625 0 
-2.7156 0.375 0 -2.7156 0.1875 0 -2.7156 0 0 
-2.5144 1.5 0 -2.5144 1.3125 0 -2.5144 1.125 0 
-2.5144 0.9375 0 -2.5144 0.75 0 -2.5144 0.5625 0 
-2.5144 0.375 0 -2.5144 0.1875 0 -2.5144 0 0 
-2.3132 1.5 0 -2.3132 1.3125 0 -2.3132 1.125 0 
-2.3132 0.9375 0 -2.3132 0.75 0 -2.3132 0.5625 0 
-2.3132 0.375 0 -2.3132 0.1875 0 -2.3132 0 0 
-2.112 1.5 0 -2.112 1.3125 0 -2.112 1.125 0 
-2.112 0.9375 0 -2.112 0.75 0 -2.112 0.5625 0 
-2.112 0.375 0 -2.112 0.1875 0 -2.112 0 0 
-1.9108 1.5 0 -1.9108 1.3125 0 -1.9108 1.125 0 
[...]
CELL_DATA 608
FIELD FieldData 7
B_Stress_n_p_m2 1 608 float
0.918453 0.939474 0.956638 0.966782 0.743046 0.478196 0.420416 0.404428 0.762527 
0.765738 0.730391 0.628336 0.400384 0.27386 0.21417 0.194336 0.659036 0.661873 
0.630742 0.563958 0.454433 0.374076 0.323299 0.302609 0.58948 0.592999 0.56742 
0.519184 0.453586 0.39928 0.360617 0.343011 0.54411 0.549398 0.531974 0.500235 
0.459704 0.423474 0.394741 0.379058 0.514425 0.521213 0.510376 0.489788 0.463867 
0.439296 0.417984 0.403902 0.495015 0.502897 0.496903 0.483766 0.466906 0.45008 
0.434115 0.421237 0.482313 0.490909 0.488264 0.48004 0.468967 0.457305 0.445111 
0.433142 0.474012 0.483024 0.482603 0.477596 0.470286 0.462092 0.452549 0.441277 
0.46861 0.47782 0.478822 0.475902 0.471062 0.465218 0.457553 0.446837 0.465129 
0.474379 0.476244 0.47466 0.471453 0.467219 0.46091 0.450661 0.462928 0.472101 
0.474443 0.473697 0.471571 0.468457 0.463157 0.453324 0.461587 0.470592 0.473146 
0.472906 0.471497 0.469179 0.464659 0.455222 0.460831 0.469592 0.472175 0.47222 
0.471289 0.46955 0.465663 0.45662 0.460478 0.468927 0.471411 0.471598 0.470983 
0.469679 0.466332 0.457699 0.460409 0.468481 0.470778 0.47101 0.470606 0.469639 
0.466775 0.458582 0.460548 0.468178 0.470222 0.47044 0.470176 0.469478 0.467062 
0.459355 0.460847 0.467961 0.469709 0.469876 0.469705 0.469227 0.467238 0.460074 
0.461275 0.467793 0.469215 0.469312 0.469203 0.468907 0.467331 0.460783 0.461817 
0.467642 0.468723 0.468746 0.468678 0.468532 0.467354 0.461511 0.462462 0.467486 
0.468226 0.468179 0.468138 0.468111 0.467312 0.462279 0.463204 0.4673 0.467715 
0.467614 0.467591 0.467651 0.467202 0.463102 0.464039 0.467056 0.467183 0.467055 
0.467044 0.467151 0.467007 0.463989 0.464914 0.466739 0.466663 0.466551 0.466547 
0.466651 0.466719 0.464895 0.465634 0.466416 0.466301 0.466241 0.466239 0.466298 
0.466411 0.465631 1.10674 1.13555 1.13187 0.974793 0.000318746 0.000255142 0.000247177 
0.000245117 0.717882 0.705122 0.656026 0.580246 0.488652 0.394452 0.312071 0.258438 
0.726186 0.712239 0.661265 0.5828 0.488309 0.391228 0.306566 0.251316 0.732429 
0.717688 0.665237 0.584779 0.488113 0.388934 0.302555 0.246188 0.739289 0.723724 
0.669632 0.586969 0.487883 0.386374 0.298068 0.240511 0.746508 0.730082 0.674252 
0.589268 0.487642 0.383719 0.293437 0.234687 0.754074 0.736749 0.67909 0.591669 
0.487389 0.380966 0.288657 0.228699 0.761982 0.743718 0.684141 0.59417 0.487125 
0.378122 0.283744 0.222567 0.770231 0.750987 0.689403 0.596769 0.486851 0.375192 
0.278709 0.216303 0.778827 0.758561 0.69488 0.599467 0.486567 0.372176 0.273556 
0.209915 0.78778 0.766447 0.700577 0.602265 0.486271 0.369073 0.268289 0.203412 
0.7971 0.774656 0.7065 0.605167 0.485962 0.365883 0.262911 0.1968 0.806803 
0.7832 0.712658 0.608175 0.485637 0.362601 0.257423 0.190088 0.816905 0.792094 
0.719063 0.611291 0.485293 0.359223 0.251825 0.183284 0.827425 0.801355 0.725723 
0.614519 0.484926 0.355743 0.246119 0.176396 0.838381 0.810998 0.732652 0.617862 
0.48453 0.352156 0.240305 0.169436 0.849792 0.821044 0.739862 0.621322 0.484101 
0.348452 0.234384 0.162416 0.861681 0.83151 0.747366 0.624902 0.483631 0.344624 
0.228356 0.155351 0.874067 0.842416 0.755176 0.628603 0.48311 0.340662 0.222222 
0.148258 0.886973 0.853783 0.763307 0.632426 0.482528 0.336554 0.215985 0.141159 
0.900418 0.86563 0.771772 0.636372 0.481872 0.332286 0.209647 0.134076 0.914423 
0.877976 0.780584 0.640438 0.481128 0.327843 0.203209 0.127037 0.929006 0.890842 
0.789755 0.64462 0.480275 0.323207 0.196675 0.120073 0.944183 0.904244 0.799297 
0.648913 0.479291 0.318357 0.19005 0.113223 0.95997 0.9182 0.80922 0.653306 
0.478148 0.313269 0.183338 0.106526 0.976376 0.932722 0.819532 0.657787 0.476812 
0.307913 0.176544 0.10003 0.993408 0.947823 0.830238 0.662337 0.475243 0.302255 
0.169674 0.0937872 1.01107 0.963511 0.841342 0.666934 0.473392 0.296257 0.162737 
0.0878555 1.02935 0.979789 0.852845 0.671547 0.471198 0.289873 0.155741 0.0822978 
1.04825 0.99666 0.864744 0.676141 0.468592 0.283049 0.148699 0.0771808 1.06775 
1.01412 0.877036 0.680674 0.465492 0.275727 0.141625 0.0725743 1.08782 1.03217 
0.889718 0.685099 0.461802 0.267844 0.134542 0.0685488 1.10845 1.0508 0.902786 
0.689364 0.457412 0.259331 0.127484 0.0651722 1.1296 1.07 0.916244 0.693413 
0.452198 0.250125 0.1205 0.062507 1.15123 1.08976 0.930099 0.697191 0.446021 
0.240168 0.113663 0.0606049 1.17332 1.11008 0.944373 0.700646 0.438722 0.229419 
0.107077 0.0594992 1.19581 1.13095 0.959099 0.703729 0.430124 0.217867 0.100883 
0.0591975 1.21864 1.15236 0.974327 0.706394 0.420019 0.205539 0.0952576 0.0596932 
1.24176 1.17428 0.990124 0.7086 0.408165 0.192513 0.0905136 0.0608404 1.26507 
1.19667 1.00657 0.710312 0.394284 0.17893 0.0868039 0.0626231 1.28841 1.21943 
1.02378 0.711497 0.378044 0.164963 0.0843487 0.0650366 1.31156 1.24242 1.04183 
0.712139 0.359059 0.15125 0.0830196 0.0681258 1.33418 1.26538 1.06084 0.712268 
0.336868 0.138417 0.082797 0.0719515 1.35573 1.2879 1.08085 0.711999 0.310943 
0.127017 0.0837433 0.0765203 1.37531 1.30933 1.10191 0.711714 0.280693 0.117841 
0.0858757 0.0818095 1.39127 1.32848 1.12388 0.712442 0.247061 0.111437 0.0897504 
0.0883778 1.40097 1.34315 1.14551 0.715193 0.211785 0.108606 0.0965939 0.0973196 
1.40133 1.35052 1.16389 0.719156 0.171993 0.105902 0.102194 0.10369 1.38825 
1.3483 1.17931 0.730983 0.124952 0.0965347 0.100073 0.101006 1.3499 1.33086 
1.19869 0.788129 0.120089 0.131578 0.145922 0.147204 1.26118 1.27133 1.20468 
0.922023 0.252968 0.31282 0.323255 0.32125 
Froude 1 608 float
0.220097 0.222612 0.2246 0.225649 0.196928 0.15777 0.147864 0.145029 0.200324 
0.200747 0.196005 0.181698 0.144834 0.119681 0.105785 0.100759 0.18609 0.186484 
0.181989 0.171997 0.154271 0.139886 0.129997 0.125762 0.175905 0.176423 0.172534 
0.164981 0.154135 0.14456 0.137345 0.133945 0.168941 0.169755 0.167012 0.161915 
0.155172 0.148896 0.143729 0.14084 0.164228 0.165304 0.163557 0.160199 0.155873 
0.151665 0.147921 0.145405 0.161073 0.162348 0.161363 0.159199 0.156382 0.153522 
0.150762 0.148506 0.158973 0.160382 0.15994 0.158576 0.156725 0.154753 0.152667 
0.150599 0.157585 0.159075 0.158999 0.158165 0.156942 0.155561 0.153941 0.15201 
0.156673 0.158205 0.158366 0.157878 0.157068 0.156086 0.15479 0.152966 0.156081 
0.157625 0.157932 0.157666 0.157129 0.156418 0.155356 0.153619 0.155704 0.157239 
0.157627 0.1575 0.157144 0.156622 0.155732 0.15407 0.155472 0.156981 0.157405 
0.157364 0.157127 0.156739 0.155981 0.154389 0.155338 0.156808 0.157238 0.157244 
0.157088 0.156797 0.156146 0.154622 0.155273 0.156691 0.157105 0.157136 0.157032 
0.156814 0.156254 0.154801 0.155256 0.156611 0.156994 0.157033 0.156965 0.156803 
0.156324 0.154946 0.155275 0.156555 0.156897 0.156933 0.156888 0.156772 0.156367 
0.155072 0.15532 0.156514 0.156806 0.156834 0.156805 0.156725 0.156392 0.155189 
0.155387 0.156481 0.156719 0.156735 0.156716 0.156667 0.156403 0.155304 0.155474 
0.156451 0.156632 0.156635 0.156624 0.156599 0.156402 0.155422 0.155577 0.15642 
0.156544 0.156536 0.156529 0.156524 0.156391 0.155546 0.155697 0.156384 0.156453 
0.156437 0.156433 0.156443 0.156367 0.15568 0.155833 0.156338 0.15636 0.156338 
0.156336 0.156354 0.15633 0.155824 0.155974 0.15628 0.156268 0.156249 0.156249 
0.156266 0.156277 0.155971 0.156089 0.156222 0.156203 0.156193 0.156193 0.156202 
0.156221 0.156089 0.242014 0.245228 0.245015 0.227929 0.00411359 0.00366598 0.00360806 
0.00359312 0.195723 0.193975 0.187099 0.17596 0.161474 0.145076 0.129039 0.117428 
0.196845 0.194945 0.187839 0.176342 0.161414 0.144479 0.127895 0.115797 0.197685 
0.195685 0.188398 0.176637 0.161378 0.144052 0.127053 0.114608 0.198605 0.196502 
0.189016 0.176964 0.161337 0.143575 0.126105 0.113276 0.199568 0.197359 0.189663 
0.177307 0.161294 0.143078 0.125119 0.111895 0.200573 0.198255 0.190339 0.177665 
0.16125 0.142562 0.124094 0.110456 0.201619 0.199187 0.191042 0.178037 0.161204 
0.142026 0.123032 0.108964 0.202705 0.200155 0.191773 0.178423 0.161156 0.141473 
0.121933 0.107418 0.20383 0.201159 0.192531 0.178824 0.161107 0.140901 0.120799 
0.105818 0.204996 0.2022 0.193316 0.179239 0.161056 0.140311 0.119629 0.104165 
0.206203 0.203277 0.194129 0.179668 0.161003 0.139702 0.118423 0.102457 0.207452 
0.204393 0.194972 0.180112 0.160948 0.139073 0.117179 0.100694 0.208745 0.205549 
0.195844 0.180572 0.160889 0.138422 0.115897 0.0988742 0.210084 0.206746 0.196748 
0.181047 0.160828 0.137749 0.114576 0.096998 0.211469 0.207985 0.197684 0.181538 
0.160761 0.137052 0.113214 0.0950647 0.212903 0.209269 0.198654 0.182045 0.16069 
0.13633 0.11181 0.0930744 0.214387 0.210599 0.199659 0.182569 0.160612 0.135579 
0.110363 0.0910275 0.215923 0.211976 0.2007 0.183109 0.160526 0.134797 0.108871 
0.0889255 0.217513 0.213402 0.201779 0.183666 0.16043 0.133983 0.107333 0.0867706 
0.219156 0.214879 0.202896 0.184239 0.160322 0.133131 0.105747 0.0845662 0.220856 
0.216408 0.204053 0.184829 0.160199 0.13224 0.104112 0.0823171 0.222613 0.21799 
0.20525 0.185433 0.160059 0.131303 0.102426 0.0800303 0.224427 0.219627 0.206489 
0.186052 0.159897 0.130316 0.100687 0.0777149 0.226299 0.221318 0.207771 0.186684 
0.159709 0.129272 0.0988949 0.0753829 0.228229 0.223066 0.209094 0.187327 0.159489 
0.128165 0.0970472 0.0730499 0.230216 0.224869 0.21046 0.187978 0.15923 0.126985 
0.0951426 0.0707354 0.232259 0.226727 0.211868 0.188633 0.158923 0.125722 0.0931798 
0.0684638 0.234355 0.22864 0.213316 0.18929 0.158559 0.124364 0.0911576 0.0662649 
0.236503 0.230607 0.214805 0.189941 0.158125 0.122895 0.0890754 0.0641738 0.238699 
0.232625 0.216333 0.190583 0.157606 0.121299 0.0869337 0.0622314 0.24094 0.234693 
0.217898 0.191207 0.156985 0.119556 0.084735 0.060483 0.243221 0.236808 0.219499 
0.191808 0.156242 0.117645 0.0824854 0.0589767 0.245538 0.238969 0.221137 0.192377 
0.155354 0.115542 0.0801972 0.0577603 0.247887 0.241174 0.22281 0.192907 0.154295 
0.113223 0.0778918 0.0568768 0.250261 0.24342 0.22452 0.193391 0.153033 0.110665 
0.0756042 0.0563577 0.252656 0.245706 0.226272 0.193822 0.151531 0.107846 0.0733874 
0.0562167 0.255066 0.248028 0.228068 0.194196 0.149746 0.104755 0.0713147 0.0564535 
0.257482 0.250383 0.229917 0.194505 0.147622 0.101385 0.0695187 0.0569956 0.259894 
0.252766 0.231827 0.194746 0.145096 0.0977464 0.0680815 0.0578266 0.262287 0.255165 
0.233806 0.194915 0.142081 0.0938578 0.0671141 0.0589326 0.264638 0.257565 0.235866 
0.195009 0.138473 0.0898754 0.0665857 0.0603184 0.266913 0.259937 0.238013 0.195032 
0.134131 0.0859816 0.0664991 0.0619914 0.269059 0.26224 0.24025 0.195 0.128872 
0.0823675 0.0668809 0.0639321 0.270988 0.264408 0.242581 0.194966 0.12245 0.079339 
0.0677303 0.0661078 0.272537 0.266322 0.244984 0.195072 0.114889 0.0771567 0.0692457 
0.0687145 0.273448 0.26776 0.247315 0.195454 0.106383 0.0761754 0.0718435 0.072113 
0.273421 0.268445 0.249255 0.19599 0.0958782 0.0752218 0.0738982 0.0744359 0.272044 
0.268149 0.250852 0.1976 0.0817252 0.071811 0.0731218 0.0734599 0.268082 0.26628 
0.252858 0.205304 0.0801967 0.0839106 0.0883801 0.0887669 0.258806 0.259973 0.253315 
0.222256 0.116664 0.129612 0.131756 0.131337 
Vel_Mag_m_p_s 1 608 float
0.40542 0.410024 0.413786 0.416101 0.365618 0.293503 0.275263 0.269975 0.369611 
0.370387 0.361787 0.335652 0.268128 0.221847 0.196235 0.186936 0.343748 0.344492 
0.336345 0.318123 0.28568 0.25927 0.241077 0.233242 0.325187 0.326161 0.319088 
0.305278 0.285407 0.267827 0.254564 0.248278 0.312477 0.313996 0.309004 0.29968 
0.287324 0.275803 0.266307 0.260967 0.30387 0.305872 0.302694 0.296549 0.288622 
0.280896 0.274015 0.269363 0.298107 0.300474 0.29869 0.294731 0.289567 0.284316 
0.27924 0.275069 0.294276 0.296888 0.296096 0.293602 0.290207 0.286586 0.282748 
0.278922 0.291746 0.294507 0.294385 0.29286 0.290618 0.288081 0.285097 0.281525 
0.290089 0.292927 0.293237 0.292346 0.290861 0.289055 0.286668 0.283292 0.289018 
0.291878 0.292454 0.29197 0.290985 0.289679 0.287719 0.284502 0.28834 0.291183 
0.291906 0.291679 0.291025 0.290065 0.288421 0.285343 0.287928 0.290724 0.291513 
0.29144 0.291007 0.290292 0.288891 0.285943 0.287698 0.29042 0.291218 0.291233 
0.290947 0.29041 0.289207 0.286385 0.287593 0.290219 0.290988 0.291046 0.290857 
0.290454 0.289418 0.286727 0.287576 0.290087 0.290797 0.290869 0.290745 0.290446 
0.28956 0.287007 0.287625 0.289997 0.29063 0.290698 0.290616 0.290401 0.289653 
0.287253 0.287722 0.289935 0.290476 0.290528 0.290475 0.290327 0.289712 0.287482 
0.287861 0.289887 0.290328 0.290358 0.290324 0.290233 0.289745 0.287708 0.288034 
0.289845 0.29018 0.290187 0.290166 0.290121 0.289756 0.287939 0.28824 0.289801 
0.290031 0.290016 0.290003 0.289995 0.289748 0.288183 0.288476 0.289748 0.289877 
0.289845 0.289838 0.289857 0.289718 0.288444 0.28874 0.289677 0.289716 0.289677 
0.289673 0.289707 0.289662 0.288725 0.289017 0.289583 0.289559 0.289525 0.289523 
0.289556 0.289577 0.289011 0.289246 0.289487 0.289451 0.289432 0.289432 0.28945 
0.289486 0.289245 0.444667 0.450339 0.449441 0.416586 0.00754037 0.00675945 0.00665333 
0.00662543 0.357387 0.354198 0.341645 0.321309 0.294862 0.264922 0.23564 0.214438 
0.359454 0.355986 0.343012 0.322019 0.294761 0.263839 0.233554 0.211464 0.361 
0.35735 0.344044 0.322569 0.294705 0.263067 0.232023 0.209297 0.36269 0.358853 
0.345182 0.323176 0.294638 0.262202 0.230298 0.206872 0.36446 0.360429 0.346374 
0.323811 0.294568 0.261302 0.228504 0.204353 0.366306 0.362074 0.347618 0.324473 
0.294494 0.260365 0.226637 0.201731 0.368224 0.363786 0.348911 0.32516 0.294417 
0.259394 0.224702 0.19901 0.370215 0.365562 0.350253 0.325873 0.294336 0.258389 
0.222701 0.196191 0.372278 0.367403 0.351644 0.326611 0.294252 0.25735 0.220634 
0.193274 0.374413 0.36931 0.353084 0.327375 0.294165 0.256276 0.218501 0.190257 
0.376624 0.371285 0.354575 0.328164 0.294073 0.255168 0.216301 0.187141 0.378911 
0.373329 0.356119 0.32898 0.293976 0.254022 0.214033 0.183923 0.381277 0.375444 
0.357717 0.329823 0.293873 0.252837 0.211694 0.180601 0.383725 0.377633 0.359371 
0.330694 0.293762 0.25161 0.209282 0.177176 0.386258 0.379899 0.361083 0.331593 
0.293643 0.250338 0.206796 0.173646 0.388878 0.382245 0.362856 0.33252 0.293513 
0.249019 0.204232 0.170011 0.391589 0.384674 0.364691 0.333477 0.293371 0.247647 
0.201589 0.166272 0.394393 0.387188 0.366591 0.334462 0.293212 0.246219 0.198863 
0.162432 0.397293 0.389791 0.368559 0.335477 0.293035 0.24473 0.196052 0.158495 
0.400291 0.392484 0.370596 0.336521 0.292835 0.243172 0.193153 0.154466 0.40339 
0.395272 0.372704 0.337593 0.292607 0.24154 0.190163 0.150356 0.406592 0.398155 
0.374885 0.338691 0.292346 0.239825 0.18708 0.146177 0.409897 0.401136 0.37714 
0.339815 0.292044 0.238017 0.183901 0.141944 0.413306 0.404217 0.379471 0.34096 
0.291694 0.236105 0.180623 0.137681 0.416819 0.407397 0.381877 0.342124 0.291283 
0.234075 0.177242 0.133416 0.420434 0.410677 0.384359 0.343302 0.2908 0.231912 
0.173758 0.129184 0.42415 0.414057 0.386917 0.344487 0.290229 0.229597 0.170167 
0.125031 0.427962 0.417535 0.389547 0.345672 0.289552 0.227106 0.166466 0.121009 
0.431867 0.421109 0.39225 0.346847 0.288746 0.224414 0.162656 0.117185 0.435858 
0.424776 0.395022 0.348003 0.287785 0.221489 0.158738 0.113632 0.43993 0.428532 
0.397862 0.349127 0.286637 0.218296 0.154715 0.110434 0.444074 0.432375 0.400767 
0.350206 0.285267 0.214795 0.150599 0.107678 0.448284 0.4363 0.403736 0.351227 
0.283632 0.210944 0.146414 0.105451 0.452549 0.440304 0.406771 0.352176 0.281683 
0.206699 0.142197 0.103832 0.456862 0.444383 0.409873 0.353042 0.279364 0.202017 
0.138013 0.102879 0.461212 0.448534 0.41305 0.353812 0.276608 0.196862 0.133959 
0.102616 0.465588 0.452752 0.416309 0.354475 0.273335 0.191207 0.130168 0.103043 
0.469977 0.457031 0.419664 0.355022 0.269445 0.185046 0.126883 0.104026 0.474359 
0.46136 0.423129 0.355445 0.264819 0.178394 0.124254 0.105538 0.478709 0.465722 
0.426723 0.355736 0.259304 0.171287 0.122482 0.10755 0.482986 0.470087 0.430464 
0.355891 0.252704 0.16401 0.121511 0.110073 0.48713 0.474408 0.434367 0.355918 
0.244766 0.156896 0.121345 0.113119 0.491049 0.47861 0.438442 0.355846 0.235153 
0.150293 0.122034 0.116652 0.49459 0.48258 0.442691 0.35577 0.223416 0.14476 
0.123575 0.120614 0.497469 0.486108 0.447087 0.355946 0.209597 0.140769 0.126328 
0.125358 0.499234 0.488811 0.451382 0.356628 0.194046 0.138964 0.13105 0.131542 
0.499354 0.490195 0.455023 0.357619 0.174861 0.137223 0.134795 0.135778 0.497108 
0.489859 0.45807 0.360543 0.149038 0.13102 0.133394 0.134016 0.490355 0.4868 
0.461861 0.374257 0.146039 0.152897 0.161003 0.161709 0.47426 0.476047 0.463171 
0.404622 0.211714 0.235542 0.239438 0.238703 
Water_Depth_m 1 608 float
0.345977 0.345927 0.346096 0.346732 0.351483 0.352889 0.353373 0.353345 0.347127 
0.347119 0.347406 0.34797 0.349466 0.350364 0.350883 0.350977 0.347936 0.347967 
0.348292 0.348827 0.349667 0.350283 0.35068 0.350735 0.348477 0.348511 0.348765 
0.349131 0.349617 0.350008 0.350292 0.350339 0.348844 0.348873 0.349059 0.349306 
0.349608 0.349864 0.350061 0.350094 0.349096 0.349119 0.349248 0.349413 0.349606 
0.349774 0.349908 0.349931 0.349274 0.34929 0.349378 0.349488 0.349614 0.349724 
0.349814 0.349831 0.349402 0.349413 0.349473 0.349546 0.349628 0.349701 0.349762 
0.349773 0.349497 0.349505 0.349545 0.349594 0.349648 0.349697 0.349737 0.349744 
0.349571 0.349577 0.349604 0.349636 0.349672 0.349704 0.349731 0.349736 0.349632 
0.349635 0.349653 0.349675 0.349699 0.34972 0.349738 0.349741 0.349682 0.349685 
0.349697 0.349711 0.349727 0.349741 0.349753 0.349755 0.349727 0.349729 0.349737 
0.349746 0.349757 0.349766 0.349774 0.349776 0.349768 0.349769 0.349774 0.34978 
0.349788 0.349794 0.349799 0.3498 0.349805 0.349806 0.34981 0.349814 0.349819 
0.349823 0.349827 0.349827 0.349841 0.349842 0.349844 0.349847 0.34985 0.349853 
0.349856 0.349856 0.349876 0.349877 0.349878 0.34988 0.349882 0.349884 0.349886 
0.349885 0.34991 0.349911 0.349911 0.349913 0.349914 0.349915 0.349917 0.349916 
0.349943 0.349944 0.349944 0.349945 0.349946 0.349947 0.349948 0.349947 0.349976 
0.349977 0.349977 0.349978 0.349978 0.349979 0.34998 0.349979 0.350009 0.35001 
0.35001 0.35001 0.35001 0.350011 0.350012 0.350011 0.350042 0.350043 0.350042 
0.350042 0.350042 0.350043 0.350044 0.350044 0.350075 0.350076 0.350074 0.350074 
0.350074 0.350075 0.350076 0.350076 0.35011 0.350108 0.350106 0.350105 0.350105 
0.350106 0.350109 0.350111 0.350148 0.350139 0.350135 0.350133 0.350133 0.350135 
0.35014 0.350149 0.344232 0.343876 0.343103 0.340625 0.342616 0.346663 0.346732 
0.346696 0.339982 0.339988 0.339994 0.340004 0.340014 0.340024 0.340031 0.340038 
0.340017 0.340022 0.340024 0.34003 0.340034 0.34004 0.340041 0.340046 0.340039 
0.340045 0.340046 0.340051 0.340055 0.34006 0.340061 0.340066 0.340061 0.340067 
0.340067 0.340071 0.340074 0.340079 0.340079 0.340084 0.34008 0.340087 0.340086 
0.34009 0.340093 0.340097 0.340097 0.340102 0.340098 0.340105 0.340104 0.340108 
0.34011 0.340114 0.340114 0.340119 0.340115 0.340121 0.340121 0.340124 0.340126 
0.34013 0.340129 0.340135 0.34013 0.340137 0.340136 0.340139 0.340141 0.340145 
0.340144 0.34015 0.340144 0.340151 0.34015 0.340153 0.340155 0.340158 0.340158 
0.340164 0.340156 0.340163 0.340162 0.340165 0.340167 0.340171 0.34017 0.340176 
0.340166 0.340174 0.340173 0.340176 0.340178 0.340182 0.340181 0.340187 0.340175 
0.340183 0.340182 0.340185 0.340187 0.340191 0.340191 0.340197 0.340182 0.340191 
0.340189 0.340193 0.340195 0.340199 0.340198 0.340205 0.340188 0.340196 0.340195 
0.340199 0.340201 0.340205 0.340204 0.340211 0.340192 0.3402 0.340199 0.340203 
0.340205 0.340209 0.340209 0.340215 0.340193 0.340202 0.340201 0.340205 0.340207 
0.340211 0.340211 0.340217 0.340193 0.340203 0.340201 0.340205 0.340207 0.340211 
0.340211 0.340217 0.34019 0.3402 0.340199 0.340203 0.340205 0.340209 0.340209 
0.340215 0.340186 0.340196 0.340194 0.340198 0.3402 0.340204 0.340204 0.340211 
0.340179 0.34019 0.340187 0.340192 0.340193 0.340197 0.340197 0.340203 0.340169 