# vtk DataFile Version 5.1
vtk output
ASCII
DATASET UNSTRUCTURED_GRID
POINTS 9424 double
0.1016 1.5 0 0.1016 1.45 0 0.1016 1.4 0 
0.1016 1.35 0 0.1016 1.3 0 0.1016 1.25 0 
0.1016 1.2 0 0.1016 1.15 0 0.1016 1.1 0 
0.1016 1.05 0 0.1016 1 0 0.1016 0.95 0 
0.1016 0.9 0 0.1016 0.85 0 0.1016 0.8 0 
0.1016 0.75 0 0.1016 0.7 0 0.1016 0.65 0 
0.1016 0.6 0 0.1016 0.55 0 0.1016 0.5 0 
0.1016 0.45 0 0.1016 0.4 0 0.1016 0.35 0 
0.1016 0.3 0 0.1016 0.25 0 0.1016 0.2 0 
0.1016 0.15 0 0.1016 0.1 0 0.1016 0.05 0 
0.1016 0 0 5.08 1.5 0 5.08 1.45 0 
5.08 1.4 0 5.08 1.35 0 5.08 1.3 0 
5.08 1.25 0 5.08 1.2 0 5.08 1.15 0 
5.08 1.1 0 5.08 1.05 0 5.08 1 0 
5.08 0.95 0 5.08 0.9 0 5.08 0.85 0 
5.08 0.8 0 5.08 0.75 0 5.08 0.7 0 
5.08 0.65 0 5.08 0.6 0 5.08 0.55 0 
5.08 0.5 0 5.08 0.45 0 5.08 0.4 0 
5.08 0.35 0 5.08 0.3 0 5.08 0.25 0 
5.08 0.2 0 5.08 0.15 0 5.08 0.1 0 
5.08 0.05 0 5.08 0 0 0.151384 1.5 0 
0.151384 1.45 0 0.151384 1.4 0 0.151384 1.35 0 
0.151384 1.3 0 0.151384 1.25 0 0.151384 1.2 0 
0.151384 1.15 0 0.151384 1.1 0 0.151384 1.05 0 
0.151384 1 0 0.151384 0.95 0 0.151384 0.9 0 
0.151384 0.85 0 0.151384 0.8 0 0.151384 0.75 0 
0.151384 0.7 0 0.151384 0.65 0 0.151384 0.6 0 
0.151384 0.55 0 0.151384 0.5 0 0.151384 0.45 0 
0.151384 0.4 0 0.151384 0.35 0 0.151384 0.3 0 
0.151384 0.25 0 0.151384 0.2 0 0.151384 0.15 0 
0.151384 0.1 0 0.151384 0.05 0 0.151384 0 0 
0.201168 1.5 0 0.201168 1.45 0 0.201168 1.4 0 
0.201168 1.35 0 0.201168 1.3 0 0.201168 1.25 0 
0.201168 1.2 0 0.201168 1.15 0 0.201168 1.1 0 
0.201168 1.05 0 0.201168 1 0 0.201168 0.95 0 
0.201168 0.9 0 0.201168 0.85 0 0.201168 0.8 0 
0.201168 0.75 0 0.201168 0.7 0 0.201168 0.65 0 
0.201168 0.6 0 0.201168 0.55 0 0.201168 0.5 0 
0.201168 0.45 0 0.201168 0.4 0 0.201168 0.35 0 
0.201168 0.3 0 0.201168 0.25 0 0.201168 0.2 0 
0.201168 0.15 0 0.201168 0.1 0 0.201168 0.05 0 
0.201168 0 0 0.250952 1.5 0 0.250952 1.45 0 
0.250952 1.4 0 0.250952 1.35 0 0.250952 1.3 0 
0.250952 1.25 0 0.250952 1.2 0 0.250952 1.15 0 
0.250952 1.1 0 0.250952 1.05 0 0.250952 1 0 
0.250952 0.95 0 0.250952 0.9 0 0.250952 0.85 0 
0.250952 0.8 0 0.250952 0.75 0 0.250952 0.7 0 
0.250952 0.65 0 0.250952 0.6 0 0.250952 0.55 0 
0.250952 0.5 0 0.250952 0.45 0 0.250952 0.4 0 
0.250952 0.35 0 0.250952 0.3 0 0.250952 0.25 0 
0.250952 0.2 0 0.250952 0.15 0 0.250952 0.1 0 
0.250952 0.05 0 0.250952 0 0 0.300736 1.5 0 
0.300736 1.45 0 0.300736 1.4 0 0.300736 1.35 0 
0.300736 1.3 0 0.300736 1.25 0 0.300736 1.2 0 
0.300736 1.15 0 0.300736 1.1 0 0.300736 1.05 0 
0.300736 1 0 0.300736 0.95 0 0.300736 0.9 0 
0.300736 0.85 0 0.300736 0.8 0 0.300736 0.75 0 
0.300736 0.7 0 0.300736 0.65 0 0.300736 0.6 0 
0.300736 0.55 0 0.300736 0.5 0 0.300736 0.45 0 
0.300736 0.4 0 0.300736 0.35 0 0.300736 0.3 0 
0.300736 0.25 0 0.300736 0.2 0 0.300736 0.15 0 
0.300736 0.1 0 0.300736 0.05 0 0.300736 0 0 
0.35052 1.5 0 0.35052 1.45 0 0.35052 1.4 0 
0.35052 1.35 0 0.35052 1.3 0 0.35052 1.25 0 
0.35052 1.2 0 0.35052 1.15 0 0.35052 1.1 0 
0.35052 1.05 0 0.35052 1 0 0.35052 0.95 0 
0.35052 0.9 0 0.35052 0.85 0 0.35052 0.8 0 
0.35052 0.75 0 0.35052 0.7 0 0.35052 0.65 0 
0.35052 0.6 0 0.35052 0.55 0 0.35052 0.5 0 
0.35052 0.45 0 0.35052 0.4 0 0.35052 0.35 0 
0.35052 0.3 0 0.35052 0.25 0 0.35052 0.2 0 
0.35052 0.15 0 0.35052 0.1 0 0.35052 0.05 0 
0.35052 0 0 0.400304 1.5 0 0.400304 1.45 0 
0.400304 1.4 0 0.400304 1.35 0 0.400304 1.3 0 
0.400304 1.25 0 0.400304 1.2 0 0.400304 1.15 0 
0.400304 1.1 0 0.400304 1.05 0 0.400304 1 0 
0.400304 0.95 0 0.400304 0.9 0 0.400304 0.85 0 
0.400304 0.8 0 0.400304 0.75 0 0.400304 0.7 0 
0.400304 0.65 0 0.400304 0.6 0 0.400304 0.55 0 
0.400304 0.5 0 0.400304 0.45 0 0.400304 0.4 0 
0.400304 0.35 0 0.400304 0.3 0 0.400304 0.25 0 
0.400304 0.2 0 0.400304 0.15 0 0.400304 0.1 0 
0.400304 0.05 0 0.400304 0 0 0.450088 1.5 0 
0.450088 1.45 0 0.450088 1.4 0 0.450088 1.35 0 
0.450088 1.3 0 0.450088 1.25 0 0.450088 1.2 0 
0.450088 1.15 0 0.450088 1.1 0 0.450088 1.05 0 
0.450088 1 0 0.450088 0.95 0 0.450088 0.9 0 
0.450088 0.85 0 0.450088 0.8 0 0.450088 0.75 0 
0.450088 0.7 0 0.450088 0.65 0 0.450088 0.6 0 
0.450088 0.55 0 0.450088 0.5 0 0.450088 0.45 0 
0.450088 0.4 0 0.450088 0.35 0 0.450088 0.3 0 
0.450088 0.25 0 0.450088 0.2 0 0.450088 0.15 0 
0.450088 0.1 0 0.450088 0.05 0 0.450088 0 0 
0.499872 1.5 0 0.499872 1.45 0 0.499872 1.4 0 
0.499872 1.35 0 0.499872 1.3 0 0.499872 1.25 0 
0.499872 1.2 0 0.499872 1.15 0 0.499872 1.1 0 
0.499872 1.05 0 0.499872 1 0 0.499872 0.95 0 
0.499872 0.9 0 0.499872 0.85 0 0.499872 0.8 0 
0.499872 0.75 0 0.499872 0.7 0 0.499872 0.65 0 
0.499872 0.6 0 0.499872 0.55 0 0.499872 0.5 0 
0.499872 0.45 0 0.499872 0.4 0 0.499872 0.35 0 
0.499872 0.3 0 0.499872 0.25 0 0.499872 0.2 0 
0.499872 0.15 0 0.499872 0.1 0 0.499872 0.05 0 
0.499872 0 0 0.549656 1.5 0 0.549656 1.45 0 
0.549656 1.4 0 0.549656 1.35 0 0.549656 1.3 0 
0.549656 1.25 0 0.549656 1.2 0 0.549656 1.15 0 
0.549656 1.1 0 0.549656 1.05 0 0.549656 1 0 
0.549656 0.95 0 0.549656 0.9 0 0.549656 0.85 0 
0.549656 0.8 0 0.549656 0.75 0 0.549656 0.7 0 
0.549656 0.65 0 0.549656 0.6 0 0.549656 0.55 0 
0.549656 0.5 0 0.549656 0.45 0 0.549656 0.4 0 
0.549656 0.35 0 0.549656 0.3 0 0.549656 0.25 0 
0.549656 0.2 0 0.549656 0.15 0 0.549656 0.1 0 
0.549656 0.05 0 0.549656 0 0 0.59944 1.5 0 
0.59944 1.45 0 0.59944 1.4 0 0.59944 1.35 0 
0.59944 1.3 0 0.59944 1.25 0 0.59944 1.2 0 
0.59944 1.15 0 0.59944 1.1 0 0.59944 1.05 0 
0.59944 1 0 0.59944 0.95 0 0.59944 0.9 0 
0.59944 0.85 0 0.59944 0.8 0 0.59944 0.75 0 
0.59944 0.7 0 0.59944 0.65 0 0.59944 0.6 0 
0.59944 0.55 0 0.59944 0.5 0 0.59944 0.45 0 
0.59944 0.4 0 0.59944 0.35 0 0.59944 0.3 0 
0.59944 0.25 0 0.59944 0.2 0 0.59944 0.15 0 
0.59944 0.1 0 0.59944 0.05 0 0.59944 0 0 
0.649224 1.5 0 0.649224 1.45 0 0.649224 1.4 0 
0.649224 1.35 0 0.649224 1.3 0 0.649224 1.25 0 
0.649224 1.2 0 0.649224 1.15 0 0.649224 1.1 0 
0.649224 1.05 0 0.649224 1 0 0.649224 0.95 0 
0.649224 0.9 0 0.649224 0.85 0 0.649224 0.8 0 
0.649224 0.75 0 0.649224 0.7 0 0.649224 0.65 0 
0.649224 0.6 0 0.649224 0.55 0 0.649224 0.5 0 
0.649224 0.45 0 0.649224 0.4 0 0.649224 0.35 0 
0.649224 0.3 0 0.649224 0.25 0 0.649224 0.2 0 
0.649224 0.15 0 0.649224 0.1 0 0.649224 0.05 0 
0.649224 0 0 0.699008 1.5 0 0.699008 1.45 0 
0.699008 1.4 0 0.699008 1.35 0 0.699008 1.3 0 
0.699008 1.25 0 0.699008 1.2 0 0.699008 1.15 0 
0.699008 1.1 0 0.699008 1.05 0 0.699008 1 0 
0.699008 0.95 0 0.699008 0.9 0 0.699008 0.85 0 
0.699008 0.8 0 0.699008 0.75 0 0.699008 0.7 0 
0.699008 0.65 0 0.699008 0.6 0 0.699008 0.55 0 
0.699008 0.5 0 0.699008 0.45 0 0.699008 0.4 0 
0.699008 0.35 0 0.699008 0.3 0 0.699008 0.25 0 
0.699008 0.2 0 0.699008 0.15 0 0.699008 0.1 0 
0.699008 0.05 0 0.699008 0 0 0.748792 1.5 0 
0.748792 1.45 0 0.748792 1.4 0 0.748792 1.35 0 
0.748792 1.3 0 0.748792 1.25 0 0.748792 1.2 0 
0.748792 1.15 0 0.748792 1.1 0 0.748792 1.05 0 
0.748792 1 0 0.748792 0.95 0 0.748792 0.9 0 
0.748792 0.85 0 0.748792 0.8 0 0.748792 0.75 0 
0.748792 0.7 0 0.748792 0.65 0 0.748792 0.6 0 
0.748792 0.55 0 0.748792 0.5 0 0.748792 0.45 0 
0.748792 0.4 0 0.748792 0.35 0 0.748792 0.3 0 
0.748792 0.25 0 0.748792 0.2 0 0.748792 0.15 0 
0.748792 0.1 0 0.748792 0.05 0 0.748792 0 0 
0.798576 1.5 0 0.798576 1.45 0 0.798576 1.4 0 
0.798576 1.35 0 0.798576 1.3 0 0.798576 1.25 0 
0.798576 1.2 0 0.798576 1.15 0 0.798576 1.1 0 
0.798576 1.05 0 0.798576 1 0 0.798576 0.95 0 
0.798576 0.9 0 0.798576 0.85 0 0.798576 0.8 0 
0.798576 0.75 0 0.798576 0.7 0 0.798576 0.65 0 
0.798576 0.6 0 0.798576 0.55 0 0.798576 0.5 0 
0.798576 0.45 0 0.798576 0.4 0 0.798576 0.35 0 
0.798576 0.3 0 0.798576 0.25 0 0.798576 0.2 0 
0.798576 0.15 0 0.798576 0.1 0 0.798576 0.05 0 
0.798576 0 0 0.84836 1.5 0 0.84836 1.45 0 
0.84836 1.4 0 0.84836 1.35 0 0.84836 1.3 0 
0.84836 1.25 0 0.84836 1.2 0 0.84836 1.15 0 
0.84836 1.1 0 0.84836 1.05 0 0.84836 1 0 
0.84836 0.95 0 0.84836 0.9 0 0.84836 0.85 0 
0.84836 0.8 0 0.84836 0.75 0 0.84836 0.7 0 
0.84836 0.65 0 0.84836 0.6 0 0.84836 0.55 0 
0.84836 0.5 0 0.84836 0.45 0 0.84836 0.4 0 
0.84836 0.35 0 0.84836 0.3 0 0.84836 0.25 0 
0.84836 0.2 0 0.84836 0.15 0 0.84836 0.1 0 
0.84836 0.05 0 0.84836 0 0 0.898144 1.5 0 
0.898144 1.45 0 0.898144 1.4 0 0.898144 1.35 0 
0.898144 1.3 0 0.898144 1.25 0 0.898144 1.2 0 
0.898144 1.15 0 0.898144 1.1 0 0.898144 1.05 0 
0.898144 1 0 0.898144 0.95 0 0.898144 0.9 0 
0.898144 0.85 0 0.898144 0.8 0 0.898144 0.75 0 
0.898144 0.7 0 0.898144 0.65 0 0.898144 0.6 0 
0.898144 0.55 0 0.898144 0.5 0 0.898144 0.45 0 
0.898144 0.4 0 0.898144 0.35 0 0.898144 0.3 0 
0.898144 0.25 0 0.898144 0.2 0 0.898144 0.15 0 
0.898144 0.1 0 0.898144 0.05 0 0.898144 0 0 
0.947928 1.5 0 0.947928 1.45 0 0.947928 1.4 0 
0.947928 1.35 0 0.947928 1.3 0 0.947928 1.25 0 
0.947928 1.2 0 0.947928 1.15 0 0.947928 1.1 0 
0.947928 1.05 0 0.947928 1 0 0.947928 0.95 0 
0.947928 0.9 0 0.947928 0.85 0 0.947928 0.8 0 
0.947928 0.75 0 0.947928 0.7 0 0.947928 0.65 0 
0.947928 0.6 0 0.947928 0.55 0 0.947928 0.5 0 
0.947928 0.45 0 0.947928 0.4 0 0.947928 0.35 0 
0.947928 0.3 0 0.947928 0.25 0 0.947928 0.2 0 
0.947928 0.15 0 0.947928 0.1 0 0.947928 0.05 0 
0.947928 0 0 0.997712 1.5 0 0.997712 1.45 0 
0.997712 1.4 0 0.997712 1.35 0 0.997712 1.3 0 
0.997712 1.25 0 0.997712 1.2 0 0.997712 1.15 0 
0.997712 1.1 0 0.997712 1.05 0 0.997712 1 0 
0.997712 0.95 0 0.997712 0.9 0 0.997712 0.85 0 
0.997712 0.8 0 0.997712 0.75 0 0.997712 0.7 0 
0.997712 0.65 0 0.997712 0.6 0 0.997712 0.55 0 
0.997712 0.5 0 0.997712 0.45 0 0.997712 0.4 0 
0.997712 0.35 0 0.997712 0.3 0 0.997712 0.25 0 
0.997712 0.2 0 0.997712 0.15 0 0.997712 0.1 0 
0.997712 0.05 0 0.997712 0 0 1.047496 1.5 0 
1.047496 1.45 0 1.047496 1.4 0 1.047496 1.35 0 
1.047496 1.3 0 1.047496 1.25 0 1.047496 1.2 0 
1.047496 1.15 0 1.047496 1.1 0 1.047496 1.05 0 
1.047496 1 0 1.047496 0.95 0 1.047496 0.9 0 
1.047496 0.85 0 1.047496 0.8 0 1.047496 0.75 0 
1.047496 0.7 0 1.047496 0.65 0 1.047496 0.6 0 
1.047496 0.55 0 1.047496 0.5 0 1.047496 0.45 0 
1.047496 0.4 0 1.047496 0.35 0 1.047496 0.3 0 
1.047496 0.25 0 1.047496 0.2 0 1.047496 0.15 0 
[...]
CELL_DATA 9090
FIELD FieldData 7
B_Stress_n_p_m2 1 9090 float
1.26181 1.27806 1.29463 1.31038 1.32663 1.34373 1.36141 1.37873 1.39372 
1.40285 1.40039 1.3783 1.3293 1.24774 1.09683 0.792379 0.528667 0.36813 
0.275692 0.218265 0.18025 0.154102 0.135612 0.122297 0.112648 0.10572 0.100929 
0.0979063 0.0962535 0.0948914 1.18774 1.2031 1.21684 1.22885 1.24008 1.25072 
1.26049 1.26853 1.27316 1.27157 1.25931 1.23038 1.17829 1.09349 0.950954 
0.735743 0.544967 0.407708 0.312262 0.244864 0.196377 0.160873 0.134466 0.114612 
0.0996233 0.0883727 0.0801107 0.0742715 0.0702357 0.0675174 1.11572 1.12997 1.14117 
1.14969 1.15624 1.16089 1.16326 1.16249 1.15707 1.14467 1.12191 1.08455 
1.02782 0.945101 0.826895 0.678288 0.539955 0.427926 0.341902 0.276854 0.227681 
0.190302 0.161692 0.139683 0.122729 0.109738 0.099945 0.0927298 0.0873871 0.0839227 
1.048 1.06118 1.07029 1.07591 1.07867 1.07855 1.07515 1.06768 1.05485 
1.03486 1.0053 0.963406 0.906236 0.830608 0.734596 0.625056 0.519785 0.429025 
0.354926 0.295878 0.249281 0.212619 0.183782 0.161107 0.143325 0.129486 0.118901 
0.110997 0.105183 0.101792 0.98539 0.997558 1.005 1.00838 1.00831 1.00474 
0.997313 0.985368 0.967917 0.943642 0.910964 0.868216 0.813895 0.746973 0.668197 
0.582852 0.499982 0.425774 0.362438 0.309819 0.266758 0.231816 0.203611 0.180946 
0.162838 0.148515 0.137398 0.128992 0.122816 0.11933 0.92802 0.939282 0.94542 
0.947183 0.945131 0.939263 0.929299 0.914746 0.894896 0.868872 0.835713 0.79454 
0.744774 0.686465 0.621027 0.552132 0.484873 0.423085 0.368623 0.321895 0.282502 
0.24968 0.222567 0.200336 0.182262 0.167742 0.156317 0.147576 0.141132 0.137507 
0.875848 0.886314 0.891477 0.892127 0.88881 0.881569 0.870224 0.854445 0.833772 
0.807673 0.775627 0.737262 0.69252 0.641894 0.586777 0.529694 0.473744 0.421431 
0.374224 0.332699 0.296838 0.266284 0.24053 0.219031 0.201269 0.186794 0.175256 
0.166329 0.159713 0.155966 0.828693 0.838468 0.842925 0.842871 0.838843 0.830929 
0.819043 0.802999 0.782535 0.757369 0.727279 0.692195 0.652325 0.60829 0.561276 
0.513055 0.465644 0.420755 0.379531 0.342556 0.309993 0.281724 0.257476 0.236908 
0.219667 0.20543 0.193941 0.184953 0.17824 0.174383 0.786273 0.795452 0.799417 
0.798976 0.794648 0.786565 0.774722 0.759045 0.739422 0.715748 0.687987 0.656246 
0.620845 0.582401 0.541879 0.500556 0.45982 0.420893 0.384662 0.351662 0.322131 
0.296086 0.273408 0.253898 0.237328 0.223478 0.212168 0.203218 0.196471 0.192513 
0.748247 0.756915 0.760554 0.759958 0.755628 0.747725 0.73631 0.721395 0.702973 
0.681057 0.65573 0.627186 0.595784 0.562083 0.526861 0.491067 0.4557 0.421661 
0.389648 0.360128 0.333362 0.30944 0.288337 0.269955 0.254157 0.2408 0.229769 
0.220938 0.214206 0.210152 0.714249 0.72248 0.725919 0.725336 0.721205 0.713714 
0.702967 0.68904 0.671998 0.651933 0.62899 0.603409 0.575544 0.545888 0.515067 
0.483807 0.452856 0.422897 0.394486 0.368025 0.343768 0.321844 0.302284 0.285056 
0.270088 0.257298 0.246617 0.237964 0.231284 0.227141 0.683909 0.691766 0.695099 
0.694641 0.690844 0.683905 0.673965 0.661139 0.645542 0.62731 0.606626 0.583743 
0.558995 0.532808 0.505695 0.478223 0.450968 0.424465 0.39916 0.375398 0.353414 
0.333352 0.315275 0.299195 0.285085 0.272904 0.262622 0.25419 0.247589 0.243362 
0.656867 0.664404 0.667697 0.667441 0.664057 0.65775 0.648681 0.636994 0.622832 
0.606358 0.587771 0.567322 0.545318 0.522128 0.498175 0.473913 0.449799 0.426257 
0.403654 0.382281 0.362353 0.344013 0.327344 0.312383 0.299132 0.287582 0.277726 
0.269544 0.263041 0.258733 0.632783 0.640046 0.643346 0.643336 0.640408 0.634768 
0.626588 0.616027 0.603247 0.588423 0.571759 0.553494 0.533909 0.513323 0.492091 
0.470582 0.449165 0.428187 0.407947 0.388697 0.370627 0.353875 0.338529 0.324641 
0.312234 0.301316 0.2919 0.283982 0.277589 0.273205 0.611343 0.61837 0.621709 
0.621969 0.619512 0.614542 0.607235 0.597759 0.586284 0.572988 0.558072 0.541763 
0.524314 0.506004 0.487132 0.468006 0.448929 0.430185 0.412028 0.394669 0.378278 
0.362982 0.348871 0.336001 0.324407 0.314111 0.305135 0.297489 0.291211 0.286754 
0.592257 0.599082 0.60248 0.603019 0.60103 0.596713 0.590244 0.581794 0.571532 
0.559638 0.546306 0.531746 0.516187 0.499874 0.483064 0.466016 0.448982 0.432201 
0.415885 0.400215 0.385341 0.371378 0.358411 0.346499 0.335681 0.325985 0.317441 
0.310066 0.303906 0.299379 0.575266 0.581916 0.585386 0.586201 0.584666 0.580973 
0.575294 0.567799 0.558657 0.548041 0.536137 0.52314 0.509258 0.494706 0.479707 
0.464482 0.449244 0.434194 0.419512 0.405355 0.391851 0.379105 0.367194 0.356175 
0.346089 0.336967 0.328841 0.32173 0.315686 0.311094 0.560137 0.566635 0.570183 
0.571265 0.570161 0.567054 0.562111 0.5555 0.547382 0.537927 0.527309 0.515709 
0.503317 0.490322 0.476921 0.463302 0.44965 0.436134 0.422908 0.410106 0.397841 
0.386203 0.375264 0.365075 0.355675 0.347095 0.339366 0.33251 0.32658 0.321927 
0.54666 0.553026 0.556654 0.557989 0.55729 0.554727 0.550465 0.544663 0.537479 
0.529074 0.519612 0.509262 0.498195 0.486583 0.474596 0.462399 0.450152 0.438 
0.426074 0.414489 0.403343 0.392715 0.382665 0.373243 0.364482 0.35641 0.349057 
0.342444 0.336623 0.331911 0.53465 0.540901 0.544608 0.546181 0.545856 0.543796 
0.540157 0.535094 0.528757 0.5213 0.512877 0.503645 0.49376 0.483376 0.472645 
0.461711 0.450713 0.439776 0.429013 0.418523 0.408388 0.398677 0.389443 0.380726 
0.372556 0.364959 0.357959 0.351575 0.345856 0.341091 0.523942 0.530092 0.533876 
0.535669 0.535688 0.534088 0.531019 0.526627 0.521056 0.514454 0.506964 0.498732 
0.489901 0.480612 0.470999 0.46119 0.451305 0.441454 0.431733 0.422227 0.413006 
0.404129 0.395638 0.387569 0.379946 0.372788 0.366117 0.359948 0.354326 0.34951 
0.514391 0.520452 0.524308 0.526303 0.526638 0.525458 0.522905 0.519121 0.514242 
0.508408 0.501756 0.494419 0.486531 0.478218 0.469602 0.460797 0.451907 0.443027 
0.434242 0.425622 0.417228 0.409106 0.401294 0.393819 0.386698 0.379947 0.373581 
0.367612 0.36208 0.357218 0.505867 0.51185 0.515774 0.517954 0.518575 0.517776 
0.515691 0.512456 0.508201 0.503058 0.497157 0.490622 0.483577 0.476137 0.468411 
0.460502 0.452502 0.444493 0.436548 0.428727 0.421079 0.413645 0.406451 0.399518 
0.392858 0.386481 0.380398 0.374615 0.369167 0.364261 0.498257 0.504171 0.508157 
0.510505 0.511387 0.510931 0.509269 0.506528 0.502835 0.498313 0.493085 0.487269 
0.480978 0.474318 0.467389 0.460282 0.453079 0.445852 0.438662 0.431561 0.424589 
0.417777 0.411146 0.404708 0.398471 0.392439 0.386615 0.381004 0.375634 0.370689 
0.49146 0.497313 0.501356 0.503856 0.504972 0.504827 0.503545 0.50125 0.49806 
0.494096 0.489472 0.4843 0.478684 0.472723 0.466507 0.460119 0.453631 0.447106 
0.440596 0.434144 0.427783 0.421536 0.415416 0.409431 0.40358 0.397863 0.392279 
0.386827 0.381529 0.376547 0.485386 0.491185 0.495279 0.497917 0.499244 0.499378 
0.498439 0.496543 0.493806 0.490342 0.486259 0.481663 0.476652 0.471317 0.465741 
0.459997 0.454151 0.448257 0.44236 0.436494 0.430686 0.42495 0.419296 0.413722 
0.408225 0.402797 0.397433 0.392127 0.386895 0.381881 0.479957 0.485707 0.489849 
0.492609 0.494126 0.494511 0.493878 0.492341 0.49001 0.486994 0.483397 0.479318 
0.474849 0.470075 0.465071 0.459906 0.454636 0.44931 0.443964 0.438628 0.43332 
0.428049 0.422817 0.417619 0.412444 0.407281 0.40212 0.396948 0.391777 0.386733 
0.475104 0.48081 0.484994 0.487864 0.48955 0.49016 0.489802 0.488586 0.486619 
0.484004 0.480842 0.477225 0.473242 0.468971 0.464482 0.459836 0.455085 0.450269 
0.445421 0.440563 0.435707 0.430857 0.426009 0.421153 0.416274 0.411354 0.406377 
0.401329 0.396214 0.391143 0.470763 0.47643 0.480652 0.48362 0.485458 0.486268 
0.486156 0.485228 0.483586 0.48133 0.478557 0.475355 0.471808 0.467988 0.46396 
0.459781 0.455495 0.45114 0.446741 0.442315 0.437868 0.433401 0.428902 0.424358 
0.419747 0.415049 0.410242 0.405307 0.400245 0.395149 0.466881 0.472513 0.476767 
0.479823 0.481796 0.482785 0.482893 0.482221 0.48087 0.478936 0.476511 0.473681 
0.470523 0.467108 0.463494 0.459734 0.455869 0.451928 0.447934 0.443898 0.439823 
0.435702 0.431521 0.427261 0.422896 0.4184 0.413749 0.408919 0.403905 0.398787 
0.463409 0.469009 0.473292 0.476426 0.478518 0.479666 0.47997 0.479527 0.478435 
0.476788 0.474675 0.472177 0.46937 0.466317 0.463076 0.459693 0.456205 0.452638 
0.44901 0.445327 0.441588 0.437782 0.43389 0.429888 0.425748 0.421438 0.41693 
0.412196 0.407227 0.40209 0.460303 0.465874 0.470183 0.473385 0.475583 0.476873 
0.47735 0.477111 0.476251 0.47486 0.473026 0.470826 0.468331 0.465605 0.462698 
0.459654 0.456505 0.453276 0.449978 0.446615 0.44318 0.43966 0.436031 0.432266 
0.428331 0.424191 0.419815 0.415169 0.410241 0.405087 0.457525 0.46307 0.467401 
0.470663 0.472955 0.47437 0.475001 0.474943 0.474289 0.473128 0.471542 0.469608 
0.467394 0.46496 0.462353 0.459614 0.456772 0.453846 0.450847 0.447773 0.444615 
0.441355 0.437966 0.434416 0.430669 0.426685 0.422429 0.417865 0.412976 0.407806 
0.455041 0.460562 0.464911 0.468226 0.470601 0.472126 0.472894 0.472997 0.472526 
0.471568 0.470205 0.468509 0.466546 0.464373 0.462036 0.459572 0.457006 0.454355 
0.451625 0.448813 0.445906 0.442882 0.439712 0.436359 0.432784 0.428944 0.424799 
0.420311 0.415457 0.410273 0.45282 0.458319 0.462685 0.466045 0.468493 0.470115 
0.471003 0.471248 0.47094 0.470163 0.468998 0.467514 0.465777 0.463839 0.461744 
0.459526 0.457209 0.454806 0.45232 0.449746 0.447067 0.444258 0.441287 0.438115 
0.434697 0.430989 0.426946 0.422528 0.417708 0.412512 0.450836 0.456314 0.460693 
0.464093 0.466604 0.468311 0.469305 0.469676 0.469511 0.468896 0.467906 0.466613 
0.465077 0.463349 0.461472 0.459476 0.457383 0.455204 0.452939 0.450581 0.448109 
0.445496 0.442708 0.4397 0.436427 0.432841 0.428893 0.424539 0.41975 0.414545 
0.449063 0.454523 0.458913 0.462347 0.464912 0.466693 0.46778 0.468261 0.468224 
0.467751 0.466918 0.465794 0.464438 0.462899 0.461217 0.459421 0.45753 0.455553 
0.453489 0.451326 0.449043 0.446609 0.443987 0.441131 0.437992 0.434517 0.430657 
0.426364 0.421604 0.41639 0.447481 0.452923 0.457322 0.460784 0.463396 0.465242 
0.466409 0.466988 0.467063 0.466716 0.466022 0.465049 0.463854 0.462484 0.460977 
0.459361 0.457652 0.455858 0.453975 0.45199 0.449879 0.447609 0.44514 0.442423 
0.439406 0.436035 0.432256 0.428019 0.423287 0.418066 0.44607 0.451496 0.455901 
0.459387 0.462039 0.46394 0.465178 0.465841 0.466014 0.465778 0.465208 0.464369 
0.463318 0.462099 0.46075 0.459295 0.457751 0.456123 0.454404 0.45258 0.450626 
0.448506 0.446176 0.443588 0.440685 0.43741 0.433706 0.429522 0.424817 0.41959 
0.444812 0.450224 0.454633 0.458139 0.460825 0.462773 0.464071 0.464807 0.465066 
0.464928 0.464468 0.463748 0.462824 0.461741 0.460533 0.459224 0.457828 0.456349 
0.45478 0.453103 0.451292 0.449309 0.447109 0.444638 0.44184 0.438655 0.435022 
0.430887 0.426207 0.420975 0.443693 0.44909 0.453502 0.457024 0.459738 0.461725 
0.463075 0.463874 0.464208 0.464157 0.463792 0.463178 0.462368 0.461406 0.460325 
0.459147 0.457886 0.456542 0.455108 0.453566 0.451885 0.450028 0.447946 0.445586 
0.442885 0.439783 0.436216 0.432128 0.427472 0.422236 0.442699 0.448082 0.452495 
0.45603 0.458765 0.460786 0.462179 0.463032 0.463431 0.463455 0.463175 0.462654 
0.461946 0.461092 0.460124 0.459065 0.457924 0.456704 0.455393 0.453973 0.452412 
0.45067 0.448698 0.446439 0.44383 0.440805 0.437301 0.433256 0.428623 0.423385 
0.441816 0.447187 0.4516 0.455143 0.457896 0.459944 0.461373 0.462272 0.462726 
0.462815 0.462609 0.462171 0.461553 0.460796 0.45993 0.458977 0.457946 0.456837 
0.455638 0.454329 0.452879 0.451244 0.449373 0.447208 0.444684 0.441732 0.438286 
0.434284 0.429673 0.424433 0.441035 0.446394 0.450805 0.454353 0.45712 0.459189 
0.460647 0.461585 0.462086 0.462231 0.46209 0.461725 0.461187 0.460516 0.459742 
0.458884 0.457952 0.456943 0.455847 0.454641 0.453291 0.451754 0.449978 0.447901 
0.445456 0.442573 0.439183 0.43522 0.430631 0.42539 0.440345 0.445692 0.450099 
0.453651 0.456427 0.458512 0.459994 0.460963 0.461504 0.461697 0.461613 0.461312 
0.460844 0.46025 0.459558 0.458786 0.457943 0.457027 0.456023 0.45491 0.453653 
0.452208 0.450519 0.448524 0.446154 0.443336 0.439999 0.436074 0.431506 0.426265 
0.439737 0.445073 0.449476 0.453028 0.455809 0.457905 0.459406 0.4604 0.460974 
0.461208 0.461172 0.460927 0.460522 0.459996 0.459378 0.458684 0.457921 0.457088 
0.45617 0.455143 0.453971 0.45261 0.451003 0.449085 0.446786 0.44403 0.440743 
0.436855 0.432307 0.427067 0.439204 0.444528 0.448926 0.452476 0.455259 0.457362 
0.458875 0.459889 0.460491 0.460759 0.460765 0.460569 0.460219 0.459754 0.459201 
0.458576 0.457887 0.45713 0.456289 0.455341 0.454249 0.452966 0.451435 0.44959 
0.447357 0.44466 0.441422 0.437569 0.433042 0.427803 0.438737 0.444052 0.448442 
0.451988 0.45477 0.456876 0.458397 0.459426 0.460048 0.460345 0.460387 0.460233 
0.459932 0.459521 0.459026 0.458465 0.457842 0.457153 0.456384 0.455508 0.454489 
0.45328 0.451821 0.450044 0.447875 0.445234 0.442042 0.438224 0.433717 0.42848 
0.438332 0.443636 0.448018 0.451558 0.454336 0.456441 0.457966 0.459005 0.459644 
0.459964 0.460035 0.459918 0.459659 0.459296 0.458854 0.458349 0.457786 0.45716 
0.456456 0.455647 0.454696 0.453555 0.452164 0.450452 0.448344 0.445757 0.44261 
0.438826 0.434338 0.429104 0.437982 0.443275 0.447649 0.451179 0.453951 0.456052 
0.457577 0.458621 0.459272 0.45961 0.459707 0.459621 0.459399 0.459078 0.458684 
0.458229 0.457721 0.457152 0.456507 0.45576 0.454873 0.453796 0.452468 0.450819 
0.448768 0.446234 0.443131 0.439379 0.434911 0.429681 0.437681 0.442965 0.447328 
0.450849 0.45361 0.455704 0.457226 0.458272 0.45893 0.459282 0.459399 0.45934 
0.459151 0.458867 0.458514 0.458106 0.457646 0.45713 0.45654 0.455851 0.455022 
0.454006 0.452738 0.451148 0.449153 0.446669 0.443609 0.43989 0.435442 0.430215 
0.437427 0.4427 0.447052 0.45056 0.45331 0.455394 0.456909 0.457953 0.458615 
0.458977 0.45911 0.459073 0.458912 0.458662 0.458346 0.457979 0.457564 0.457095 
0.456556 0.45592 0.455147 0.454187 0.452977 0.451443 0.449503 0.447068 0.444049 
0.440363 0.435934 0.430712 0.437213 0.442476 0.446816 0.450311 0.453046 0.455117 
0.456622 0.457661 0.458323 0.458692 0.458838 0.458819 0.458682 0.458461 0.458179 
0.457849 0.457474 0.457049 0.456556 0.455969 0.455248 0.454342 0.453187 0.451708 
0.44982 0.447433 0.444456 0.440801 0.436392 0.431175 0.437037 0.44229 0.446617 
0.450096 0.452815 0.45487 0.456363 0.457393 0.458052 0.458424 0.45858 0.458577 
0.45846 0.458264 0.458012 0.457715 0.457377 0.456992 0.456542 0.456001 0.455329 
0.454474 0.453371 0.451944 0.450108 0.447768 0.444832 0.441209 0.43682 0.431608 
0.436896 0.442139 0.446451 0.449913 0.452613 0.45465 0.456128 0.457146 0.4578 
0.458173 0.458335 0.458344 0.458245 0.458071 0.457845 0.457578 0.457274 0.456925 
0.456516 0.456017 0.455391 0.454584 0.453532 0.452156 0.450369 0.448077 0.445181 
0.441589 0.437221 0.432015 0.436785 0.442018 0.446316 0.449759 0.452438 0.454455 
0.455914 0.45692 0.457565 0.457935 0.458101 0.458119 0.458035 0.457881 0.457678 
0.457439 0.457165 0.45685 0.456477 0.456018 0.455435 0.454675 0.453671 0.452345 
0.450608 0.448361 0.445505 0.441946 0.437598 0.432399 0.436704 0.441926 0.446208 
0.44963 0.452287 0.454281 0.455721 0.45671 0.457345 0.45771 0.457877 0.457903 
0.457831 0.457693 0.457512 0.457296 0.45705 0.456766 0.456427 0.456006 0.455464 
0.454748 0.453791 0.452514 0.450824 0.448623 0.445808 0.442281 0.437954 0.432763 
0.436649 0.441861 0.446125 0.449526 0.452158 0.454127 0.455544 0.456515 0.457137 
0.457496 0.457662 0.457692 0.457631 0.457508 0.457345 0.457151 0.45693 0.456674 
0.456367 0.455981 0.455478 0.454805 0.453893 0.452664 0.451022 0.448867 0.446092 
0.442597 0.438292 0.433108 0.436619 0.441819 0.446066 0.449443 0.452048 0.453991 
0.455383 0.456334 0.456941 0.457291 0.457454 0.457488 0.457435 0.457324 0.457177 
0.457004 0.456805 0.456576 0.456298 0.455946 0.455479 0.454846 0.45398 0.452796 
0.451202 0.449092 0.446359 0.442897 0.438614 0.433438 0.436611 0.4418 0.446028 
0.44938 0.451957 0.453871 0.455236 0.456165 0.456755 0.457094 0.457254 0.457289 
0.457242 0.457142 0.45701 0.456854 0.456676 0.456471 0.45622 0.455899 0.455468 
0.454875 0.454051 0.452914 0.451367 0.449302 0.44661 0.443182 0.438922 0.433754 
0.436624 0.441801 0.446009 0.449334 0.451881 0.453764 0.455102 0.456006 0.456578 
0.456905 0.457058 0.457094 0.457051 0.456961 0.456841 0.456701 0.456543 0.456359 
0.456135 0.455843 0.455446 0.45489 0.454109 0.453017 0.451517 0.449499 0.446848 
0.443454 0.439217 0.434059 0.436656 0.441822 0.446008 0.449305 0.45182 0.453671 
0.454978 0.455856 0.456408 0.456722 0.456868 0.456902 0.456864 0.456781 0.456673 
0.456547 0.456406 0.456243 0.456042 0.455778 0.455413 0.454894 0.454154 0.453107 
0.451654 0.449682 0.447075 0.443716 0.439503 0.434355 0.436706 0.44186 0.446024 
0.449291 0.451772 0.453588 0.454863 0.455714 0.456245 0.456544 0.456682 0.456714 
0.456678 0.456602 0.456503 0.456391 0.456265 0.456121 0.455942 0.455704 0.45537 
0.454887 0.454188 0.453186 0.451779 0.449855 0.44729 0.443968 0.439779 0.434642 
0.436774 0.441914 0.446055 0.449291 0.451736 0.453516 0.454757 0.455579 0.456088 
0.456371 0.4565 0.456528 0.456493 0.456423 0.456333 0.456232 0.456121 0.455994 
0.455836 0.455623 0.455319 0.45487 0.454211 0.453253 0.451894 0.450017 0.447497 
0.444211 0.440049 0.434923 0.436857 0.441985 0.446101 0.449304 0.451711 0.453452 
0.454658 0.45545 0.455935 0.456202 0.456321 0.456344 0.45631 0.456244 0.456162 
0.456072 0.455974 0.455863 0.455725 0.455535 0.455259 0.454844 0.454224 0.45331 
0.451999 0.45017 0.447696 0.444448 0.440313 0.435198 0.436956 0.442069 0.44616 
0.449328 0.451695 0.453397 0.454565 0.455325 0.455786 0.456035 0.456144 0.456162 
0.456128 0.456066 0.45599 0.45591 0.455824 0.455728 0.455607 0.45544 0.455191 
0.454809 0.454228 0.453358 0.452095 0.450315 0.447888 0.444679 0.440572 0.43547 
0.437069 0.442168 0.446231 0.449363 0.451689 0.453348 0.454478 0.455205 0.45564 
0.455872 0.455968 0.455982 0.455947 0.455888 0.455818 0.455746 0.455671 0.455588 
0.455485 0.455339 0.455116 0.454766 0.454223 0.453397 0.452183 0.450453 0.448073 
0.444906 0.440827 0.435739 0.437196 0.44228 0.446315 0.449407 0.45169 0.453305 
0.454395 0.455088 0.455497 0.45571 0.455795 0.455802 0.455766 0.455709 0.455645 
0.45558 0.455516 0.455446 0.455358 0.455232 0.455034 0.454715 0.454209 0.453428 
0.452263 0.450585 0.448254 0.445129 0.441081 0.436006 0.437337 0.442405 0.446409 
0.449461 0.451698 0.453267 0.454315 0.454974 0.455355 0.455549 0.455622 0.455623 
0.455586 0.455531 0.455471 0.455414 0.455358 0.455299 0.455227 0.455119 0.454945 
0.454657 0.454188 0.453452 0.452336 0.45071 0.44843 0.445349 0.441333 0.436273 
0.437491 0.442543 0.446514 0.449523 0.451712 0.453234 0.454238 0.454861 0.455215 
0.45539 0.45545 0.455445 0.455406 0.455352 0.455297 0.455245 0.455198 0.45515 
0.455091 0.455001 0.45485 0.454591 0.45416 0.453467 0.452402 0.45083 0.448602 
0.445567 0.441584 0.43654 0.437657 0.442692 0.44663 0.449593 0.451732 0.453204 
0.454164 0.45475 0.455076 0.455231 0.455279 0.455267 0.455226 0.455174 0.455122 
0.455076 0.455036 0.454998 0.454951 0.454878 0.454749 0.454519 0.454124 0.453476 
0.452461 0.450944 0.448771 0.445785 0.441837 0.436809 0.437836 0.442852 0.446755 
0.449671 0.451756 0.453176 0.454091 0.454639 0.454937 0.455072 0.455108 0.45509 
0.455046 0.454995 0.454946 0.454905 0.454872 0.454843 0.454808 0.454751 0.454643 
0.454441 0.454082 0.453478 0.452515 0.451054 0.448938 0.446001 0.44209 0.43708 
0.438028 0.443024 0.446889 0.449755 0.451785 0.453151 0.454018 0.454529 0.454798 
0.454913 0.454937 0.454912 0.454866 0.454816 0.45477 0.454733 0.454706 0.454685 
0.454661 0.454619 0.454531 0.454356 0.454032 0.453472 0.452562 0.45116 0.449102 
0.446218 0.442346 0.437355 0.438232 0.443208 0.447032 0.449845 0.451817 0.453128 
0.453946 0.454417 0.454658 0.454753 0.454765 0.454734 0.454686 0.454636 0.454593 
0.45456 0.454539 0.454525 0.454511 0.454482 0.454414 0.454265 0.453976 0.453461 