# vtk DataFile Version 5.1
vtk output
ASCII
DATASET UNSTRUCTURED_GRID
POINTS 10043 double
-10.1 1.4499999993 0 -10.049999999 1.4499999993 0 -10.049999999 1.5 0 
-9.9999999985 1.4499999993 0 -9.9999999985 1.5 0 -9.9499999978 1.4499999993 0 
-9.9499999978 1.5 0 -9.899999997 1.4499999993 0 -9.899999997 1.5 0 
-9.8499999963 1.4499999993 0 -9.8499999963 1.5 0 -9.7999999955 1.4499999993 0 
-9.7999999955 1.5 0 -9.7499999948 1.4499999993 0 -9.7499999948 1.5 0 
-9.699999994 1.4499999993 0 -9.699999994 1.5 0 -9.6499999933 1.4499999993 0 
-9.6499999933 1.5 0 -9.5999999925 1.4499999993 0 -9.5999999925 1.5 0 
-9.5499999918 1.4499999993 0 -9.5499999918 1.5 0 -9.4999999911 1.4499999993 0 
-9.4999999911 1.5 0 -9.4499999903 1.4499999993 0 -9.4499999903 1.5 0 
-9.3999999896 1.4499999993 0 -9.3999999896 1.5 0 -9.3499999888 1.4499999993 0 
-9.3499999888 1.5 0 -9.2999999881 1.4499999993 0 -9.2999999881 1.5 0 
-9.2499999873 1.4499999993 0 -9.2499999873 1.5 0 -9.1999999866 1.4499999993 0 
-9.1999999866 1.5 0 -9.1499999858 1.4499999993 0 -9.1499999858 1.5 0 
-9.0999999851 1.4499999993 0 -9.0999999851 1.5 0 -9.0499999844 1.4499999993 0 
-9.0499999844 1.5 0 -8.9999999836 1.4499999993 0 -8.9999999836 1.5 0 
-8.9499999829 1.4499999993 0 -8.9499999829 1.5 0 -8.8999999821 1.4499999993 0 
-8.8999999821 1.5 0 -8.8499999814 1.4499999993 0 -8.8499999814 1.5 0 
-8.7999999806 1.4499999993 0 -8.7999999806 1.5 0 -8.7499999799 1.4499999993 0 
-8.7499999799 1.5 0 -8.6999999791 1.4499999993 0 -8.6999999791 1.5 0 
-8.6499999784 1.4499999993 0 -8.6499999784 1.5 0 -8.5999999776 1.4499999993 0 
-8.5999999776 1.5 0 -8.5499999769 1.4499999993 0 -8.5499999769 1.5 0 
-8.4999999762 1.4499999993 0 -8.4999999762 1.5 0 -8.4499999754 1.4499999993 0 
-8.4499999754 1.5 0 -8.3999999747 1.4499999993 0 -8.3999999747 1.5 0 
-8.3499999739 1.4499999993 0 -8.3499999739 1.5 0 -8.2999999732 1.4499999993 0 
-8.2999999732 1.5 0 -8.2499999724 1.4499999993 0 -8.2499999724 1.5 0 
-8.1999999717 1.4499999993 0 -8.1999999717 1.5 0 -8.1499999709 1.4499999993 0 
-8.1499999709 1.5 0 -8.0999999702 1.4499999993 0 -8.0999999702 1.5 0 
-8.0499999695 1.4499999993 0 -8.0499999695 1.5 0 -7.9999999687 1.4499999993 0 
-7.9999999687 1.5 0 -7.949999968 1.4499999993 0 -7.949999968 1.5 0 
-7.8999999672 1.4499999993 0 -7.8999999672 1.5 0 -7.8499999665 1.4499999993 0 
-7.8499999665 1.5 0 -7.7999999657 1.4499999993 0 -7.7999999657 1.5 0 
-7.749999965 1.4499999993 0 -7.749999965 1.5 0 -7.6999999642 1.4499999993 0 
-7.6999999642 1.5 0 -7.6499999635 1.4499999993 0 -7.6499999635 1.5 0 
-7.5999999627 1.4499999993 0 -7.5999999627 1.5 0 -7.549999962 1.4499999993 0 
-7.549999962 1.5 0 -7.4999999613 1.4499999993 0 -7.4999999613 1.5 0 
-7.4499999605 1.4499999993 0 -7.4499999605 1.5 0 -7.3999999598 1.4499999993 0 
-7.3999999598 1.5 0 -7.349999959 1.4499999993 0 -7.349999959 1.5 0 
-7.2999999583 1.4499999993 0 -7.2999999583 1.5 0 -7.2499999575 1.4499999993 0 
-7.2499999575 1.5 0 -7.1999999568 1.4499999993 0 -7.1999999568 1.5 0 
-7.149999956 1.4499999993 0 -7.149999956 1.5 0 -7.0999999553 1.4499999993 0 
-7.0999999553 1.5 0 -7.0499999546 1.4499999993 0 -7.0499999546 1.5 0 
-6.9999999538 1.4499999993 0 -6.9999999538 1.5 0 -6.9499999531 1.4499999993 0 
-6.9499999531 1.5 0 -6.8999999523 1.4499999993 0 -6.8999999523 1.5 0 
-6.8499999516 1.4499999993 0 -6.8499999516 1.5 0 -6.7999999508 1.4499999993 0 
-6.7999999508 1.5 0 -6.7499999501 1.4499999993 0 -6.7499999501 1.5 0 
-6.6999999493 1.4499999993 0 -6.6999999493 1.5 0 -6.6499999486 1.4499999993 0 
-6.6499999486 1.5 0 -6.5999999478 1.4499999993 0 -6.5999999478 1.5 0 
-6.5499999471 1.4499999993 0 -6.5499999471 1.5 0 -6.4999999464 1.4499999993 0 
-6.4999999464 1.5 0 -6.4499999456 1.4499999993 0 -6.4499999456 1.5 0 
-6.3999999449 1.4499999993 0 -6.3999999449 1.5 0 -6.3499999441 1.4499999993 0 
-6.3499999441 1.5 0 -6.2999999434 1.4499999993 0 -6.2999999434 1.5 0 
-6.2499999426 1.4499999993 0 -6.2499999426 1.5 0 -6.1999999419 1.4499999993 0 
-6.1999999419 1.5 0 -6.1499999411 1.4499999993 0 -6.1499999411 1.5 0 
-6.0999999404 1.4499999993 0 -6.0999999404 1.5 0 -6.0499999397 1.4499999993 0 
-6.0499999397 1.5 0 -5.9999999389 1.4499999993 0 -5.9999999389 1.5 0 
-5.9499999382 1.4499999993 0 -5.9499999382 1.5 0 -5.8999999374 1.4499999993 0 
-5.8999999374 1.5 0 -5.8499999367 1.4499999993 0 -5.8499999367 1.5 0 
-5.7999999359 1.4499999993 0 -5.7999999359 1.5 0 -5.7499999352 1.4499999993 0 
-5.7499999352 1.5 0 -5.6999999344 1.4499999993 0 -5.6999999344 1.5 0 
-5.6499999337 1.4499999993 0 -5.6499999337 1.5 0 -5.5999999329 1.4499999993 0 
-5.5999999329 1.5 0 -5.5499999322 1.4499999993 0 -5.5499999322 1.5 0 
-5.4999999315 1.4499999993 0 -5.4999999315 1.5 0 -5.4499999307 1.4499999993 0 
-5.4499999307 1.5 0 -5.39999993 1.4499999993 0 -5.39999993 1.5 0 
-5.3499999292 1.4499999993 0 -5.3499999292 1.5 0 -5.2999999285 1.4499999993 0 
-5.2999999285 1.5 0 -5.2499999277 1.4499999993 0 -5.2499999277 1.5 0 
-5.199999927 1.4499999993 0 -5.199999927 1.5 0 -5.1499999262 1.4499999993 0 
-5.1499999262 1.5 0 -5.0999999255 1.4499999993 0 -5.0999999255 1.5 0 
-5.0499999247 1.4499999993 0 -5.0499999247 1.5 0 -4.999999924 1.4499999993 0 
-4.999999924 1.5 0 -4.9499999233 1.4499999993 0 -4.9499999233 1.5 0 
-4.8999999225 1.4499999993 0 -4.8999999225 1.5 0 -4.8499999218 1.4499999993 0 
-4.8499999218 1.5 0 -4.799999921 1.4499999993 0 -4.799999921 1.5 0 
-4.7499999203 1.4499999993 0 -4.7499999203 1.5 0 -4.6999999195 1.4499999993 0 
-4.6999999195 1.5 0 -4.6499999188 1.4499999993 0 -4.6499999188 1.5 0 
-4.599999918 1.4499999993 0 -4.599999918 1.5 0 -4.5499999173 1.4499999993 0 
-4.5499999173 1.5 0 -4.4999999166 1.4499999993 0 -4.4999999166 1.5 0 
-4.4499999158 1.4499999993 0 -4.4499999158 1.5 0 -4.3999999151 1.4499999993 0 
-4.3999999151 1.5 0 -4.3499999143 1.4499999993 0 -4.3499999143 1.5 0 
-4.2999999136 1.4499999993 0 -4.2999999136 1.5 0 -4.2499999128 1.4499999993 0 
-4.2499999128 1.5 0 -4.1999999121 1.4499999993 0 -4.1999999121 1.5 0 
-4.1499999113 1.4499999993 0 -4.1499999113 1.5 0 -4.0999999106 1.4499999993 0 
-4.0999999106 1.5 0 -4.0499999098 1.4499999993 0 -4.0499999098 1.5 0 
-3.9999999091 1.4499999993 0 -3.9999999091 1.5 0 -3.9499999084 1.4499999993 0 
-3.9499999084 1.5 0 -3.8999999076 1.4499999993 0 -3.8999999076 1.5 0 
-3.8499999069 1.4499999993 0 -3.8499999069 1.5 0 -3.7999999061 1.4499999993 0 
-3.7999999061 1.5 0 -3.7499999054 1.4499999993 0 -3.7499999054 1.5 0 
-3.6999999046 1.4499999993 0 -3.6999999046 1.5 0 -3.6499999039 1.4499999993 0 
-3.6499999039 1.5 0 -3.5999999031 1.4499999993 0 -3.5999999031 1.5 0 
-3.5499999024 1.4499999993 0 -3.5499999024 1.5 0 -3.4999999017 1.4499999993 0 
-3.4999999017 1.5 0 -3.4499999009 1.4499999993 0 -3.4499999009 1.5 0 
-3.3999999002 1.4499999993 0 -3.3999999002 1.5 0 -3.3499998994 1.4499999993 0 
-3.3499998994 1.5 0 -3.2999998987 1.4499999993 0 -3.2999998987 1.5 0 
-3.2499998979 1.4499999993 0 -3.2499998979 1.5 0 -3.1999998972 1.4499999993 0 
-3.1999998972 1.5 0 -3.1499998964 1.4499999993 0 -3.1499998964 1.5 0 
-3.0999998957 1.4499999993 0 -3.0999998957 1.5 0 -3.0499998949 1.4499999993 0 
-3.0499998949 1.5 0 -2.9999998942 1.4499999993 0 -2.9999998942 1.5 0 
-2.9499998935 1.4499999993 0 -2.9499998935 1.5 0 -2.8999998927 1.4499999993 0 
-2.8999998927 1.5 0 -2.849999892 1.4499999993 0 -2.849999892 1.5 0 
-2.7999998912 1.4499999993 0 -2.7999998912 1.5 0 -2.7499998905 1.4499999993 0 
-2.7499998905 1.5 0 -2.6999998897 1.4499999993 0 -2.6999998897 1.5 0 
-2.649999889 1.4499999993 0 -2.649999889 1.5 0 -2.5999998882 1.4499999993 0 
-2.5999998882 1.5 0 -2.5499998875 1.4499999993 0 -2.5499998875 1.5 0 
-2.4999998868 1.4499999993 0 -2.4999998868 1.5 0 -2.449999886 1.4499999993 0 
-2.449999886 1.5 0 -2.3999998853 1.4499999993 0 -2.3999998853 1.5 0 
-2.3499998845 1.4499999993 0 -2.3499998845 1.5 0 -2.2999998838 1.4499999993 0 
-2.2999998838 1.5 0 -2.249999883 1.4499999993 0 -2.249999883 1.5 0 
-2.1999998823 1.4499999993 0 -2.1999998823 1.5 0 -2.1499998815 1.4499999993 0 
-2.1499998815 1.5 0 -2.0999998808 1.4499999993 0 -2.0999998808 1.5 0 
-2.04999988 1.4499999993 0 -2.04999988 1.5 0 -1.9999998793 1.4499999993 0 
-1.9999998793 1.5 0 -1.9499998786 1.4499999993 0 -1.9499998786 1.5 0 
-1.8999998778 1.4499999993 0 -1.8999998778 1.5 0 -1.8499998771 1.4499999993 0 
-1.8499998771 1.5 0 -1.7999998763 1.4499999993 0 -1.7999998763 1.5 0 
-1.7499998756 1.4499999993 0 -1.7499998756 1.5 0 -1.6999998748 1.4499999993 0 
-1.6999998748 1.5 0 -1.6499998741 1.4499999993 0 -1.6499998741 1.5 0 
-1.5999998733 1.4499999993 0 -1.5999998733 1.5 0 -1.5499998726 1.4499999993 0 
-1.5499998726 1.5 0 -1.4999998718 1.4499999993 0 -1.4999998718 1.5 0 
-1.4499998711 1.4499999993 0 -1.4499998711 1.5 0 -1.3999998704 1.4499999993 0 
-1.3999998704 1.5 0 -1.3499998696 1.4499999993 0 -1.3499998696 1.5 0 
-1.2999998689 1.4499999993 0 -1.2999998689 1.5 0 -1.2499998681 1.4499999993 0 
-1.2499998681 1.5 0 -1.1999998674 1.4499999993 0 -1.1999998674 1.5 0 
-1.1499998666 1.4499999993 0 -1.1499998666 1.5 0 -1.0999998659 1.4499999993 0 
-1.0999998659 1.5 0 -1.0499998651 1.4499999993 0 -1.0499998651 1.5 0 
-0.9999998644 1.4499999993 0 -0.9999998644 1.5 0 -0.94999986365 1.4499999993 0 
-0.94999986365 1.5 0 -0.89999986291 1.4499999993 0 -0.89999986291 1.5 0 
-0.84999986216 1.4499999993 0 -0.84999986216 1.5 0 -0.79999986142 1.4499999993 0 
-0.79999986142 1.5 0 -0.74999986067 1.4499999993 0 -0.74999986067 1.5 0 
-0.69999985993 1.4499999993 0 -0.69999985993 1.5 0 -0.64999985918 1.4499999993 0 
-0.64999985918 1.5 0 -0.59999985844 1.4499999993 0 -0.59999985844 1.5 0 
-0.54999985769 1.4499999993 0 -0.54999985769 1.5 0 -0.49999985695 1.4499999993 0 
-0.49999985695 1.5 0 -0.4499998562 1.4499999993 0 -0.4499998562 1.5 0 
-0.39999985546 1.4499999993 0 -0.39999985546 1.5 0 -0.34999985471 1.4499999993 0 
-0.34999985471 1.5 0 -0.29999985397 1.4499999993 0 -0.29999985397 1.5 0 
-0.24999985322 1.4499999993 0 -0.24999985322 1.5 0 -0.191663057 1.4499999993 0 
-0.17548248559 1.5 0 0.18862900414 1.4499999993 0 0.25000015423 1.4499999993 0 
[...]
CELL_DATA 9510
FIELD FieldData 4
Water_Depth_m 1 9510 float
0.340031 0.340092 0.340152 0.34021 0.340267 0.340323 0.340377 0.340428 0.340477 
0.340524 0.340568 0.340609 0.340647 0.340681 0.340712 0.340739 0.340762 0.340781 
0.340794 0.340803 0.340807 0.340805 0.340798 0.340783 0.340762 0.340733 0.340695 
0.340649 0.340593 0.340526 0.340448 0.340356 0.340251 0.34013 0.339991 0.339834 
0.339655 0.339453 0.339226 0.338974 0.338694 0.338387 0.338054 0.337695 0.337315 
0.336918 0.33651 0.336098 0.335691 0.335298 0.334927 0.334588 0.334287 0.334032 
0.333826 0.333672 0.33357 0.333519 0.333517 0.333563 0.333653 0.333781 0.333944 
0.334138 0.334361 0.334609 0.334879 0.335169 0.335474 0.335794 0.336124 0.336462 
0.336805 0.337151 0.337498 0.337843 0.338183 0.338517 0.338843 0.339159 0.339463 
0.339754 0.340032 0.340294 0.340539 0.340768 0.340979 0.341171 0.341345 0.3415 
0.341635 0.34175 0.341845 0.34192 0.341973 0.342006 0.342017 0.342007 0.341975 
0.341921 0.341845 0.341747 0.341627 0.341488 0.341331 0.34116 0.340979 0.340793 
0.340607 0.34043 0.340269 0.34013 0.34002 0.339946 0.339912 0.339922 0.339978 
0.340075 0.340212 0.340383 0.340582 0.340802 0.341036 0.341277 0.341519 0.341757 
0.341986 0.342203 0.342405 0.342593 0.342764 0.342921 0.343062 0.34319 0.343304 
0.343407 0.3435 0.343582 0.343655 0.343718 0.343774 0.34382 0.343858 0.343888 
0.343909 0.343922 0.343926 0.343922 0.343909 0.343887 0.343857 0.343819 0.343773 
0.343719 0.343659 0.343591 0.343518 0.34344 0.343358 0.343274 0.343189 0.343104 
0.343021 0.342943 0.34287 0.342804 0.342748 0.342703 0.342669 0.342647 0.342638 
0.342643 0.34266 0.342689 0.342729 0.34278 0.342842 0.342914 0.342997 0.343091 
0.343197 0.343318 0.343455 0.343611 0.343787 0.343988 0.344216 0.344474 0.344766 
0.345095 0.345464 0.345874 0.34633 0.346832 0.34738 0.347977 0.348602 0.349418 
0.35567 0.356356 0.356922 0.357445 0.357925 0.358362 0.358759 0.359119 0.359444 
0.359737 0.360002 0.36024 0.360455 0.360649 0.360824 0.360983 0.361126 0.361256 
0.361374 0.361482 0.36158 0.36167 0.361752 0.361827 0.361897 0.361961 0.36202 
0.362075 0.362126 0.362174 0.362218 0.36226 0.3623 0.362337 0.362372 0.362405 
0.362437 0.362467 0.362495 0.362523 0.362549 0.362574 0.362599 0.362622 0.362645 
0.362667 0.362688 0.362709 0.362729 0.362749 0.362768 0.362787 0.362805 0.362823 
0.362841 0.362858 0.362875 0.362891 0.362908 0.362924 0.36294 0.362955 0.36297 
0.362986 0.363 0.363015 0.363029 0.363044 0.363058 0.363072 0.363085 0.363099 
0.363112 0.363125 0.363138 0.363151 0.363164 0.363176 0.363188 0.363201 0.363213 
0.363224 0.363236 0.363248 0.363259 0.36327 0.363281 0.363292 0.363303 0.363313 
0.363324 0.363334 0.363344 0.363354 0.363363 0.362907 0.357184 0.340031 0.340092 
0.340152 0.340211 0.340269 0.340324 0.340378 0.34043 0.34048 0.340527 0.340571 
0.340612 0.34065 0.340685 0.340716 0.340743 0.340766 0.340785 0.340799 0.340808 
0.340812 0.34081 0.340803 0.340789 0.340767 0.340738 0.340701 0.340655 0.340598 
0.340531 0.340452 0.34036 0.340254 0.340132 0.339992 0.339833 0.339653 0.339449 
0.33922 0.338965 0.338683 0.338372 0.338034 0.337672 0.337287 0.336885 0.336472 
0.336055 0.335644 0.335247 0.334874 0.334533 0.334233 0.333978 0.333774 0.333623 
0.333524 0.333475 0.333475 0.333524 0.333616 0.333746 0.33391 0.334107 0.334331 
0.33458 0.334852 0.335142 0.33545 0.335771 0.336102 0.336442 0.336787 0.337135 
0.337484 0.33783 0.338173 0.338509 0.338837 0.339155 0.339462 0.339755 0.340035 
0.340299 0.340546 0.340777 0.34099 0.341184 0.34136 0.341516 0.341652 0.341769 
0.341865 0.34194 0.341994 0.342026 0.342037 0.342026 0.341994 0.341938 0.34186 
0.341759 0.341636 0.341493 0.341332 0.341156 0.340969 0.340777 0.340586 0.340404 
0.340237 0.340094 0.339981 0.339905 0.33987 0.33988 0.339937 0.340038 0.340179 
0.340354 0.340558 0.340784 0.341024 0.34127 0.341517 0.341759 0.341991 0.34221 
0.342415 0.342603 0.342775 0.342931 0.343072 0.343199 0.343313 0.343415 0.343507 
0.343589 0.343662 0.343725 0.343781 0.343828 0.343866 0.343896 0.343917 0.34393 
0.343934 0.34393 0.343917 0.343895 0.343865 0.343827 0.34378 0.343726 0.343665 
0.343596 0.343522 0.343443 0.34336 0.343274 0.343187 0.3431 0.343016 0.342935 
0.342861 0.342794 0.342737 0.34269 0.342656 0.342634 0.342626 0.342631 0.342649 
0.342679 0.34272 0.342771 0.342833 0.342905 0.342987 0.34308 0.343185 0.343304 
0.343439 0.343592 0.343766 0.343964 0.344188 0.344443 0.344731 0.345055 0.34542 
0.345827 0.346279 0.346777 0.347323 0.347917 0.348557 0.349336 0.355674 0.356365 
0.356936 0.357462 0.357943 0.358381 0.358779 0.359139 0.359463 0.359756 0.360019 
0.360256 0.36047 0.360663 0.360837 0.360994 0.361136 0.361266 0.361383 0.36149 
0.361587 0.361676 0.361757 0.361832 0.361901 0.361965 0.362024 0.362078 0.362129 
0.362177 0.362221 0.362262 0.362302 0.362338 0.362373 0.362406 0.362438 0.362468 
0.362496 0.362524 0.36255 0.362575 0.362599 0.362623 0.362645 0.362667 0.362689 
0.362709 0.362729 0.362749 0.362768 0.362787 0.362805 0.362823 0.362841 0.362858 
0.362875 0.362892 0.362908 0.362924 0.36294 0.362955 0.362971 0.362986 0.363 
0.363015 0.36303 0.363044 0.363058 0.363072 0.363085 0.363099 0.363112 0.363125 
0.363138 0.363151 0.363164 0.363176 0.363188 0.363201 0.363213 0.363224 0.363236 
0.363248 0.363259 0.36327 0.363281 0.363292 0.363303 0.363313 0.363324 0.363334 
0.363344 0.363354 0.363363 0.362907 0.357184 0.340032 0.340093 0.340154 0.340213 
0.340271 0.340327 0.340382 0.340434 0.340484 0.340531 0.340576 0.340618 0.340656 
0.340692 0.340723 0.340751 0.340774 0.340793 0.340808 0.340818 0.340822 0.340821 
0.340813 0.340799 0.340778 0.340749 0.340712 0.340665 0.340609 0.340541 0.340461 
0.340368 0.34026 0.340136 0.339995 0.339833 0.339649 0.339442 0.339208 0.338948 
0.338659 0.338341 0.337996 0.337624 0.337229 0.336817 0.336394 0.335968 0.335548 
0.335144 0.334766 0.334422 0.334122 0.333869 0.33367 0.333523 0.33343 0.333387 
0.333393 0.333446 0.333542 0.333676 0.333844 0.334044 0.334271 0.334523 0.334797 
0.335091 0.335401 0.335725 0.336059 0.336402 0.336751 0.337103 0.337456 0.337806 
0.338153 0.338493 0.338826 0.339148 0.339459 0.339757 0.340041 0.340309 0.340561 
0.340795 0.341012 0.34121 0.341388 0.341548 0.341687 0.341805 0.341903 0.34198 
0.342035 0.342067 0.342078 0.342065 0.34203 0.341972 0.341889 0.341783 0.341654 
0.341504 0.341334 0.341147 0.34095 0.340746 0.340544 0.34035 0.340173 0.340021 
0.339901 0.33982 0.339783 0.339794 0.339855 0.339962 0.340111 0.340296 0.340511 
0.340749 0.341 0.341257 0.341514 0.341764 0.342003 0.342227 0.342434 0.342624 
0.342797 0.342952 0.343092 0.343218 0.34333 0.343431 0.343522 0.343603 0.343676 
0.343739 0.343795 0.343842 0.343881 0.343911 0.343933 0.343946 0.343951 0.343947 
0.343934 0.343912 0.343882 0.343842 0.343795 0.343739 0.343676 0.343606 0.34353 
0.343448 0.343362 0.343273 0.343183 0.343093 0.343005 0.342921 0.342843 0.342774 
0.342714 0.342666 0.342631 0.342609 0.342601 0.342607 0.342626 0.342658 0.3427 
0.342753 0.342815 0.342886 0.342967 0.343059 0.343161 0.343277 0.343407 0.343555 
0.343724 0.343915 0.344132 0.34438 0.34466 0.344977 0.345333 0.345732 0.346177 
0.346669 0.34721 0.347802 0.348445 0.349217 0.355681 0.356385 0.356964 0.357496 
0.357981 0.358421 0.358819 0.359178 0.359502 0.359792 0.360054 0.360289 0.3605 
0.36069 0.360862 0.361017 0.361157 0.361284 0.3614 0.361505 0.361601 0.361688 
0.361769 0.361842 0.36191 0.361973 0.362031 0.362085 0.362135 0.362182 0.362226 
0.362267 0.362305 0.362342 0.362376 0.362409 0.36244 0.36247 0.362498 0.362525 
0.362551 0.362576 0.362601 0.362624 0.362646 0.362668 0.362689 0.36271 0.36273 
0.36275 0.362769 0.362787 0.362806 0.362824 0.362841 0.362858 0.362875 0.362892 
0.362908 0.362924 0.36294 0.362955 0.362971 0.362986 0.363001 0.363015 0.36303 
0.363044 0.363058 0.363072 0.363085 0.363099 0.363112 0.363125 0.363138 0.363151 
0.363164 0.363176 0.363188 0.363201 0.363213 0.363224 0.363236 0.363248 0.363259 
0.36327 0.363281 0.363292 0.363303 0.363314 0.363324 0.363334 0.363344 0.363354 
0.363363 0.362907 0.357184 0.340032 0.340094 0.340156 0.340216 0.340275 0.340332 
0.340387 0.34044 0.340491 0.340539 0.340584 0.340627 0.340666 0.340702 0.340734 
0.340762 0.340786 0.340806 0.340821 0.340832 0.340836 0.340836 0.340829 0.340815 
0.340794 0.340766 0.340728 0.340681 0.340624 0.340556 0.340475 0.34038 0.34027 
0.340143 0.339998 0.339833 0.339644 0.339431 0.339191 0.338922 0.338623 0.338295 
0.337936 0.337551 0.337141 0.336713 0.336274 0.335833 0.335399 0.334984 0.334599 
0.334252 0.333952 0.333704 0.333511 0.333373 0.333289 0.333256 0.33327 0.333331 
0.333434 0.333574 0.333748 0.333951 0.334183 0.334439 0.334717 0.335014 0.335328 
0.335656 0.335996 0.336344 0.336698 0.337055 0.337413 0.33777 0.338122 0.338469 
0.338808 0.339137 0.339455 0.339759 0.340049 0.340324 0.340582 0.340822 0.341044 
0.341248 0.341431 0.341595 0.341738 0.34186 0.341961 0.342039 0.342095 0.342128 
0.342138 0.342124 0.342085 0.342022 0.341934 0.34182 0.341681 0.341519 0.341336 
0.341134 0.340919 0.340698 0.340477 0.340266 0.340073 0.339907 0.339777 0.339689 
0.339649 0.339662 0.339729 0.339845 0.340006 0.340207 0.340439 0.340695 0.340964 
0.341239 0.34151 0.341773 0.342021 0.342253 0.342465 0.342657 0.34283 0.342985 
0.343123 0.343246 0.343356 0.343455 0.343544 0.343624 0.343696 0.34376 0.343816 
0.343864 0.343903 0.343934 0.343957 0.343971 0.343976 0.343972 0.343959 0.343937 
0.343906 0.343866 0.343817 0.34376 0.343695 0.343622 0.343542 0.343457 0.343366 
0.343273 0.343177 0.343081 0.342988 0.342899 0.342816 0.342742 0.342679 0.342628 
0.342592 0.34257 0.342563 0.342571 0.342593 0.342626 0.342671 0.342725 0.342788 
0.34286 0.342939 0.343028 0.343126 0.343237 0.343361 0.343501 0.343661 0.343842 
0.344049 0.344286 0.344554 0.344859 0.345203 0.34559 0.346022 0.346504 0.347037 
0.347625 0.348268 0.349039 0.355692 0.356415 0.357008 0.357548 0.358039 0.358482 
0.358881 0.359239 0.35956 0.359848 0.360106 0.360337 0.360545 0.360731 0.360899 
0.361051 0.361188 0.361312 0.361425 0.361528 0.361621 0.361707 0.361785 0.361857 
0.361924 0.361985 0.362042 0.362095 0.362144 0.36219 0.362233 0.362273 0.362311 
0.362347 0.362381 0.362413 0.362444 0.362473 0.362501 0.362528 0.362554 0.362579 
0.362603 0.362626 0.362648 0.36267 0.362691 0.362711 0.362731 0.362751 0.36277 
0.362788 0.362806 0.362824 0.362842 0.362859 0.362876 0.362892 0.362908 0.362924 
0.36294 0.362956 0.362971 0.362986 0.363001 0.363015 0.36303 0.363044 0.363058 
0.363072 0.363086 0.363099 0.363112 0.363125 0.363138 0.363151 0.363164 0.363176 
0.363188 0.363201 0.363213 0.363224 0.363236 0.363248 0.363259 0.36327 0.363281 
0.363292 0.363303 0.363314 0.363324 0.363334 0.363344 0.363354 0.363363 0.362907 
0.357184 0.340033 0.340096 0.340158 0.340219 0.340279 0.340337 0.340394 0.340448 
0.340499 0.340548 0.340595 0.340638 0.340678 0.340715 0.340748 0.340777 0.340802 
0.340823 0.340839 0.34085 0.340856 0.340856 0.340849 0.340836 0.340816 0.340787 
0.34075 0.340703 0.340645 0.340575 0.340493 0.340396 0.340283 0.340153 0.340004 
0.339833 0.339638 0.339416 0.339167 0.338887 0.338575 0.338232 0.337856 0.337451 
0.33702 0.33657 0.336109 0.335646 0.335194 0.334765 0.33437 0.33402 0.333722 
0.333481 0.3333 0.333176 0.333107 0.333087 0.333114 0.333187 0.333299 0.333447 
0.333627 0.333836 0.334072 0.334333 0.334615 0.334918 0.335237 0.33557 0.335915 
0.336269 0.336629 0.336993 0.337358 0.337722 0.338083 0.338438 0.338785 0.339123 
0.339449 0.339762 0.34006 0.340343 0.340609 0.340857 0.341087 0.341297 0.341487 
0.341657 0.341805 0.341932 0.342037 0.342118 0.342176 0.342209 0.342217 0.342201 
0.342159 0.34209 0.341993 0.341869 0.341718 0.34154 0.341338 0.341115 0.340877 
0.340631 0.340385 0.340149 0.339933 0.339748 0.339603 0.339506 0.339463 0.339478 
0.339553 0.339681 0.33986 0.340084 0.340341 0.340623 0.340917 0.341215 0.341508 
0.341788 0.34205 0.34229 0.342508 0.342703 0.342876 0.343029 0.343164 0.343283 
0.34339 0.343486 0.343573 0.343652 0.343723 0.343787 0.343843 0.343892 0.343933 
0.343965 0.343989 0.344004 0.344009 0.344006 0.343993 0.343971 0.343939 0.343898 
0.343847 0.343788 0.343719 0.343643 0.343559 0.343468 0.343372 0.343272 0.343169 
0.343066 0.342965 0.342869 0.342779 0.342699 0.34263 0.342576 0.342538 0.342516 
0.34251 0.342521 0.342547 0.342585 0.342633 0.34269 0.342755 0.342826 0.342904 
0.342988 0.343081 0.343185 0.3433 0.34343 0.343578 0.343747 0.34394 0.344161 
0.344414 0.344702 0.345029 0.345399 0.345815 0.346282 0.346803 0.347382 0.348023 
0.348795 0.35571 0.35646 0.357069 0.357622 0.35812 0.358566 0.358965 0.359321 
0.359639 0.359922 0.360175 0.360401 0.360604 0.360786 0.360949 0.361096 0.361229 
0.361349 0.361459 0.361558 0.361649 0.361731 0.361807 0.361877 0.361942 0.362001 
0.362056 0.362108 0.362156 0.3622 0.362242 0.362282 0.362319 0.362354 0.362387 
0.362419 0.362449 0.362478 0.362505 0.362532 0.362557 0.362582 0.362605 0.362628 
0.36265 0.362672 0.362692 0.362713 0.362733 0.362752 0.362771 0.362789 0.362807 
0.362825 0.362842 0.362859 0.362876 0.362893 0.362909 0.362925 0.362941 0.362956 
0.362971 0.362986 0.363001 0.363016 0.36303 0.363044 0.363058 0.363072 0.363086 
0.363099 0.363112 0.363125 0.363138 0.363151 0.363164 0.363176 0.363189 0.363201 
0.363213 0.363224 0.363236 0.363248 0.363259 0.36327 0.363281 0.363292 0.363303 
0.363314 0.363324 0.363334 0.363344 0.363354 0.363363 0.362907 0.357184 0.340033 
0.340098 0.340162 0.340224 0.340285 0.340344 0.340402 0.340457 0.34051 0.34056 
0.340608 0.340652 0.340694 0.340732 0.340766 0.340796 0.340822 0.340844 0.340861 
0.340873 0.34088 0.34088 0.340875 0.340862 0.340842 0.340814 0.340777 0.340729 
0.340671 0.3406 0.340516 0.340416 0.3403 0.340166 0.340011 0.339833 0.33963 
0.339399 0.339138 0.338844 0.338516 0.338153 0.337755 0.337325 0.336867 0.336387 
0.335897 0.335408 0.334933 0.334487 0.334082 0.333731 0.333441 0.333214 0.333051 
0.332947 0.332898 0.332899 0.332943 0.333028 0.333151 0.333306 0.333492 0.333707 
0.333948 0.334213 0.3345 0.334808 0.335132 0.335471 0.335822 0.336183 0.33655 
0.336921 0.337295 0.337667 0.338036 0.3384 0.338757 0.339105 0.339441 0.339764 
0.340073 0.340366 0.340642 0.3409 0.341138 0.341357 0.341555 0.341733 0.341888 
0.34202 0.34213 0.342215 0.342274 0.342308 0.342316 0.342297 0.34225 0.342174 
0.342068 0.341931 0.341763 0.341565 0.34134 0.34109 0.340822 0.340543 0.340263 
0.339994 0.339748 0.339537 0.339372 0.339263 0.339216 0.339235 0.339322 0.339467 
0.339671 0.339924 0.340215 0.340532 0.34086 0.341189 0.341509 0.341811 0.34209 
0.342343 0.342568 0.342765 0.342937 0.343086 0.343216 0.34333 0.343432 0.343523 
0.343607 0.343684 0.343754 0.343819 0.343876 0.343926 0.343969 0.344003 0.344028 
0.344044 0.344051 0.344048 0.344035 0.344013 0.34398 0.343938 0.343885 0.343823 
0.343751 0.34367 0.34358 0.343483 0.34338 0.343271 0.343159 0.343047 0.342936 
0.342829 0.34273 0.342642 0.342567 0.342508 0.342467 0.342445 0.342443 0.342458 
0.342489 0.342533 0.342587 0.342648 0.342715 0.342786 0.342862 0.342942 0.343028 
0.343122 0.343227 0.343344 0.343477 0.34363 0.343806 0.344008 0.34424 0.344507 
0.344811 0.345159 0.345553 0.345999 0.346502 0.347068 0.347703 0.348475 0.355737 
0.356521 0.357153 0.35772 0.358225 0.358675 0.359073 0.359426 0.359738 0.360016 
0.360262 0.360482 0.360678 0.360853 0.36101 0.361152 0.36128 0.361395 0.3615 
0.361595 0.361682 0.361762 0.361835 0.361902 0.361964 0.362021 0.362074 0.362124 
0.36217 0.362213 0.362254 0.362292 0.362328 0.362362 0.362395 0.362426 0.362455 
0.362483 0.36251 0.362536 0.362561 0.362585 0.362608 0.362631 0.362653 0.362674 
0.362695 0.362715 0.362734 0.362753 0.362772 0.36279 0.362808 0.362826 0.362843 
0.36286 0.362877 0.362893 0.362909 0.362925 0.362941 0.362956 0.362972 0.362987 
0.363001 0.363016 0.36303 0.363044 0.363058 0.363072 0.363086 0.363099 0.363113 
0.363126 0.363139 0.363151 0.363164 0.363176 0.363189 0.363201 0.363213 0.363225 
0.363236 0.363248 0.363259 0.36327 0.363281 0.363292 0.363303 0.363314 0.363324 
0.363334 0.363344 0.363354 0.363363 0.362907 0.357184 0.340034 0.3401 0.340165 
0.340229 0.340292 0.340353 0.340412 0.340468 0.340523 0.340574 0.340623 0.340669 
0.340712 0.340751 0.340787 0.340818 0.340846 0.340869 0.340887 0.3409 0.340908 
0.34091 0.340905 0.340894 0.340874 0.340846 0.340809 0.340761 0.340702 0.34063 
0.340544 0.340441 0.340321 0.340182 0.34002 0.339835 0.339622 0.339379 0.339104 
0.338793 0.338445 0.338058 0.337633 0.337173 0.336682 0.336168 0.335643 0.335123 
0.334624 0.334163 0.333755 0.333411 0.333136 0.332932 0.332795 0.332717 0.332692 
0.332713 0.332774 0.332871 0.333001 0.333161 0.333351 0.33357 0.333815 0.334085 
0.334377 0.33469 0.33502 0.335366 0.335724 0.336092 0.336467 0.336847 0.337229 
0.33761 0.337989 0.338362 0.338729 0.339087 0.339434 0.339769 0.340089 0.340393 
0.34068 0.340948 0.341197 0.341426 0.341634 0.34182 0.341983 0.342123 0.342238 
0.342328 0.34239 0.342425 0.342432 0.34241 0.342358 0.342274 0.342156 0.342004 
0.341817 0.341596 0.341341 0.341058 0.340751 0.340431 0.340107 0.339795 0.339509 
0.339265 0.339076 0.338952 0.338902 0.338929 0.339031 0.3392 0.339436 0.339729 
0.340065 0.340426 0.340797 0.341166 0.341519 0.341849 0.342148 0.342415 0.342647 
0.342846 0.343015 0.343158 0.343281 0.343387 0.343481 0.343566 0.343646 0.34372 
0.34379 0.343855 0.343914 0.343967 0.344011 0.344047 0.344075 0.344092 0.344101 
0.344099 0.344086 0.344064 0.34403 0.343986 0.343931 0.343866 0.34379 0.343703 
0.343607 0.343502 0.34339 0.343271 0.343148 0.343023 0.3429 0.34278 0.342669 
0.34257 0.342486 0.342421 0.342377 0.342356 0.342358 0.34238 0.342419 0.342472 
0.342534 0.342601 0.342672 0.342744 0.342817 0.342892 0.342969 0.343052 0.343143 
0.343244 0.34336 0.343493 0.343648 0.343827 0.344035 0.344275 0.344552 0.344871 
0.345236 0.345654 0.346132 0.346677 0.347299 0.348065 0.355777 0.356604 0.357262 
0.357845 0.358359 0.35881 0.359206 0.359554 0.35986 0.360129 0.360367 0.360578 
0.360766 0.360933 0.361083 0.361218 0.361339 0.361449 0.361549 0.361639 0.361722 
0.361797 0.361867 0.36193 0.36199 0.362044 0.362095 0.362143 0.362187 0.362228 
0.362267 0.362304 0.362339 0.362372 0.362404 0.362434 0.362462 0.36249 0.362516 
0.362541 0.362566 0.362589 0.362612 0.362634 0.362656 0.362677 0.362697 0.362717 
0.362736 0.362755 0.362774 0.362792 0.36281 0.362827 0.362844 0.362861 0.362878 
0.362894 0.36291 0.362926 0.362942 0.362957 0.362972 0.362987 0.363002 0.363016 
0.363031 0.363045 0.363059 0.363072 0.363086 0.363099 0.363113 0.363126 0.363139 
0.363151 0.363164 0.363176 0.363189 0.363201 0.363213 0.363225 0.363236 0.363248 
0.363259 0.36327 0.363281 0.363292 0.363303 0.363314 0.363324 0.363334 0.363344 
0.363354 0.363363 0.362907 0.357184 0.340035 0.340103 0.34017 0.340236 0.3403 
0.340362 0.340423 0.340481 0.340537 0.340591 0.340641 0.340689 0.340733 0.340774 
0.340811 0.340844 0.340873 0.340897 0.340917 0.340931 0.34094 0.340943 0.34094 
0.340929 0.340911 0.340883 0.340846 0.340799 0.340739 0.340665 0.340577 0.340471 
0.340347 0.340202 0.340033 0.339838 0.339614 0.339358 0.339067 0.338736 0.338365 
0.337951 0.337495 0.337 0.336472 0.33592 0.33536 0.33481 0.334291 0.333822 
0.333419 0.333092 0.332844 0.33267 0.332562 0.332511 0.332506 0.332543 0.332615 
0.332718 0.332851 0.333014 0.333207 0.333428 0.333676 0.333949 0.334246 0.334565 
0.334902 0.335255 0.335621 0.335998 0.336382 0.336772 0.337163 0.337555 0.337944 
0.338329 0.338706 0.339075 0.339433 0.339779 0.34011 0.340425 0.340723 0.341003 
0.341264 0.341503 0.341722 0.341918 0.34209 0.342238 0.34236 0.342455 0.342521 
0.342558 0.342564 0.342539 0.342481 0.342388 0.342258 0.342089 0.341879 0.34163 
0.341341 0.341017 0.340663 0.340291 0.339913 0.339546 0.339211 0.338926 0.338707 
0.338569 0.338518 0.338558 0.338687 0.338888 0.33917 0.339515 0.339904 0.340318 
0.34074 0.341154 0.341547 0.341908 0.34223 0.342511 0.34275 0.342949 0.343112 
0.343246 0.343357 0.343452 0.343535 0.343613 0.343687 0.343759 0.343829 0.343896 
0.343957 0.344012 0.34406 0.344099 0.344128 0.344148 0.344158 0.344157 0.344146 