# vtk DataFile Version 5.1
vtk output
ASCII
DATASET UNSTRUCTURED_GRID
POINTS 9359 double
-10.1 1.4499999993 0 -10.049999999 1.4499999993 0 -10.049999999 1.5 0 
-9.9999999985 1.4499999993 0 -9.9999999985 1.5 0 -9.9499999978 1.4499999993 0 
-9.9499999978 1.5 0 -9.899999997 1.4499999993 0 -9.899999997 1.5 0 
-9.8499999963 1.4499999993 0 -9.8499999963 1.5 0 -9.7999999955 1.4499999993 0 
-9.7999999955 1.5 0 -9.7499999948 1.4499999993 0 -9.7499999948 1.5 0 
-9.699999994 1.4499999993 0 -9.699999994 1.5 0 -9.6499999933 1.4499999993 0 
-9.6499999933 1.5 0 -9.5999999925 1.4499999993 0 -9.5999999925 1.5 0 
-9.5499999918 1.4499999993 0 -9.5499999918 1.5 0 -9.4999999911 1.4499999993 0 
-9.4999999911 1.5 0 -9.4499999903 1.4499999993 0 -9.4499999903 1.5 0 
-9.3999999896 1.4499999993 0 -9.3999999896 1.5 0 -9.3499999888 1.4499999993 0 
-9.3499999888 1.5 0 -9.2999999881 1.4499999993 0 -9.2999999881 1.5 0 
-9.2499999873 1.4499999993 0 -9.2499999873 1.5 0 -9.1999999866 1.4499999993 0 
-9.1999999866 1.5 0 -9.1499999858 1.4499999993 0 -9.1499999858 1.5 0 
-9.0999999851 1.4499999993 0 -9.0999999851 1.5 0 -9.0499999844 1.4499999993 0 
-9.0499999844 1.5 0 -8.9999999836 1.4499999993 0 -8.9999999836 1.5 0 
-8.9499999829 1.4499999993 0 -8.9499999829 1.5 0 -8.8999999821 1.4499999993 0 
-8.8999999821 1.5 0 -8.8499999814 1.4499999993 0 -8.8499999814 1.5 0 
-8.7999999806 1.4499999993 0 -8.7999999806 1.5 0 -8.7499999799 1.4499999993 0 
-8.7499999799 1.5 0 -8.6999999791 1.4499999993 0 -8.6999999791 1.5 0 
-8.6499999784 1.4499999993 0 -8.6499999784 1.5 0 -8.5999999776 1.4499999993 0 
-8.5999999776 1.5 0 -8.5499999769 1.4499999993 0 -8.5499999769 1.5 0 
-8.4999999762 1.4499999993 0 -8.4999999762 1.5 0 -8.4499999754 1.4499999993 0 
-8.4499999754 1.5 0 -8.3999999747 1.4499999993 0 -8.3999999747 1.5 0 
-8.3499999739 1.4499999993 0 -8.3499999739 1.5 0 -8.2999999732 1.4499999993 0 
-8.2999999732 1.5 0 -8.2499999724 1.4499999993 0 -8.2499999724 1.5 0 
-8.1999999717 1.4499999993 0 -8.1999999717 1.5 0 -8.1499999709 1.4499999993 0 
-8.1499999709 1.5 0 -8.0999999702 1.4499999993 0 -8.0999999702 1.5 0 
-8.0499999695 1.4499999993 0 -8.0499999695 1.5 0 -7.9999999687 1.4499999993 0 
-7.9999999687 1.5 0 -7.949999968 1.4499999993 0 -7.949999968 1.5 0 
-7.8999999672 1.4499999993 0 -7.8999999672 1.5 0 -7.8499999665 1.4499999993 0 
-7.8499999665 1.5 0 -7.7999999657 1.4499999993 0 -7.7999999657 1.5 0 
-7.749999965 1.4499999993 0 -7.749999965 1.5 0 -7.6999999642 1.4499999993 0 
-7.6999999642 1.5 0 -7.6499999635 1.4499999993 0 -7.6499999635 1.5 0 
-7.5999999627 1.4499999993 0 -7.5999999627 1.5 0 -7.549999962 1.4499999993 0 
-7.549999962 1.5 0 -7.4999999613 1.4499999993 0 -7.4999999613 1.5 0 
-7.4499999605 1.4499999993 0 -7.4499999605 1.5 0 -7.3999999598 1.4499999993 0 
-7.3999999598 1.5 0 -7.349999959 1.4499999993 0 -7.349999959 1.5 0 
-7.2999999583 1.4499999993 0 -7.2999999583 1.5 0 -7.2499999575 1.4499999993 0 
-7.2499999575 1.5 0 -7.1999999568 1.4499999993 0 -7.1999999568 1.5 0 
-7.149999956 1.4499999993 0 -7.149999956 1.5 0 -7.0999999553 1.4499999993 0 
-7.0999999553 1.5 0 -7.0499999546 1.4499999993 0 -7.0499999546 1.5 0 
-6.9999999538 1.4499999993 0 -6.9999999538 1.5 0 -6.9499999531 1.4499999993 0 
-6.9499999531 1.5 0 -6.8999999523 1.4499999993 0 -6.8999999523 1.5 0 
-6.8499999516 1.4499999993 0 -6.8499999516 1.5 0 -6.7999999508 1.4499999993 0 
-6.7999999508 1.5 0 -6.7499999501 1.4499999993 0 -6.7499999501 1.5 0 
-6.6999999493 1.4499999993 0 -6.6999999493 1.5 0 -6.6499999486 1.4499999993 0 
-6.6499999486 1.5 0 -6.5999999478 1.4499999993 0 -6.5999999478 1.5 0 
-6.5499999471 1.4499999993 0 -6.5499999471 1.5 0 -6.4999999464 1.4499999993 0 
-6.4999999464 1.5 0 -6.4499999456 1.4499999993 0 -6.4499999456 1.5 0 
-6.3999999449 1.4499999993 0 -6.3999999449 1.5 0 -6.3499999441 1.4499999993 0 
-6.3499999441 1.5 0 -6.2999999434 1.4499999993 0 -6.2999999434 1.5 0 
-6.2499999426 1.4499999993 0 -6.2499999426 1.5 0 -6.1999999419 1.4499999993 0 
-6.1999999419 1.5 0 -6.1499999411 1.4499999993 0 -6.1499999411 1.5 0 
-6.0999999404 1.4499999993 0 -6.0999999404 1.5 0 -6.0499999397 1.4499999993 0 
-6.0499999397 1.5 0 -5.9999999389 1.4499999993 0 -5.9999999389 1.5 0 
-5.9499999382 1.4499999993 0 -5.9499999382 1.5 0 -5.8999999374 1.4499999993 0 
-5.8999999374 1.5 0 -5.8499999367 1.4499999993 0 -5.8499999367 1.5 0 
-5.7999999359 1.4499999993 0 -5.7999999359 1.5 0 -5.7499999352 1.4499999993 0 
-5.7499999352 1.5 0 -5.6999999344 1.4499999993 0 -5.6999999344 1.5 0 
-5.6499999337 1.4499999993 0 -5.6499999337 1.5 0 -5.5999999329 1.4499999993 0 
-5.5999999329 1.5 0 -5.5499999322 1.4499999993 0 -5.5499999322 1.5 0 
-5.4999999315 1.4499999993 0 -5.4999999315 1.5 0 -5.4499999307 1.4499999993 0 
-5.4499999307 1.5 0 -5.39999993 1.4499999993 0 -5.39999993 1.5 0 
-5.3499999292 1.4499999993 0 -5.3499999292 1.5 0 -5.2999999285 1.4499999993 0 
-5.2999999285 1.5 0 -5.2499999277 1.4499999993 0 -5.2499999277 1.5 0 
-5.199999927 1.4499999993 0 -5.199999927 1.5 0 -5.1499999262 1.4499999993 0 
-5.1499999262 1.5 0 -5.0999999255 1.4499999993 0 -5.0999999255 1.5 0 
-5.0499999247 1.4499999993 0 -5.0499999247 1.5 0 -4.999999924 1.4499999993 0 
-4.999999924 1.5 0 -4.9499999233 1.4499999993 0 -4.9499999233 1.5 0 
-4.8999999225 1.4499999993 0 -4.8999999225 1.5 0 -4.8499999218 1.4499999993 0 
-4.8499999218 1.5 0 -4.799999921 1.4499999993 0 -4.799999921 1.5 0 
-4.7499999203 1.4499999993 0 -4.7499999203 1.5 0 -4.6999999195 1.4499999993 0 
-4.6999999195 1.5 0 -4.6499999188 1.4499999993 0 -4.6499999188 1.5 0 
-4.599999918 1.4499999993 0 -4.599999918 1.5 0 -4.5499999173 1.4499999993 0 
-4.5499999173 1.5 0 -4.4999999166 1.4499999993 0 -4.4999999166 1.5 0 
-4.4499999158 1.4499999993 0 -4.4499999158 1.5 0 -4.3999999151 1.4499999993 0 
-4.3999999151 1.5 0 -4.3499999143 1.4499999993 0 -4.3499999143 1.5 0 
-4.2999999136 1.4499999993 0 -4.2999999136 1.5 0 -4.2499999128 1.4499999993 0 
-4.2499999128 1.5 0 -4.1999999121 1.4499999993 0 -4.1999999121 1.5 0 
-4.1499999113 1.4499999993 0 -4.1499999113 1.5 0 -4.0999999106 1.4499999993 0 
-4.0999999106 1.5 0 -4.0499999098 1.4499999993 0 -4.0499999098 1.5 0 
-3.9999999091 1.4499999993 0 -3.9999999091 1.5 0 -3.9499999084 1.4499999993 0 
-3.9499999084 1.5 0 -3.8999999076 1.4499999993 0 -3.8999999076 1.5 0 
-3.8499999069 1.4499999993 0 -3.8499999069 1.5 0 -3.7999999061 1.4499999993 0 
-3.7999999061 1.5 0 -3.7499999054 1.4499999993 0 -3.7499999054 1.5 0 
-3.6999999046 1.4499999993 0 -3.6999999046 1.5 0 -3.6499999039 1.4499999993 0 
-3.6499999039 1.5 0 -3.5999999031 1.4499999993 0 -3.5999999031 1.5 0 
-3.5499999024 1.4499999993 0 -3.5499999024 1.5 0 -3.4999999017 1.4499999993 0 
-3.4999999017 1.5 0 -3.4499999009 1.4499999993 0 -3.4499999009 1.5 0 
-3.3999999002 1.4499999993 0 -3.3999999002 1.5 0 -3.3499998994 1.4499999993 0 
-3.3499998994 1.5 0 -3.2999998987 1.4499999993 0 -3.2999998987 1.5 0 
-3.2499998979 1.4499999993 0 -3.2499998979 1.5 0 -3.1999998972 1.4499999993 0 
-3.1999998972 1.5 0 -3.1499998964 1.4499999993 0 -3.1499998964 1.5 0 
-3.0999998957 1.4499999993 0 -3.0999998957 1.5 0 -3.0499998949 1.4499999993 0 
-3.0499998949 1.5 0 -2.9999998942 1.4499999993 0 -2.9999998942 1.5 0 
-2.9499998935 1.4499999993 0 -2.9499998935 1.5 0 -2.8999998927 1.4499999993 0 
-2.8999998927 1.5 0 -2.849999892 1.4499999993 0 -2.849999892 1.5 0 
-2.7999998912 1.4499999993 0 -2.7999998912 1.5 0 -2.7499998905 1.4499999993 0 
-2.7499998905 1.5 0 -2.6999998897 1.4499999993 0 -2.6999998897 1.5 0 
-2.649999889 1.4499999993 0 -2.649999889 1.5 0 -2.5999998882 1.4499999993 0 
-2.5999998882 1.5 0 -2.5499998875 1.4499999993 0 -2.5499998875 1.5 0 
-2.4999998868 1.4499999993 0 -2.4999998868 1.5 0 -2.449999886 1.4499999993 0 
-2.449999886 1.5 0 -2.3999998853 1.4499999993 0 -2.3999998853 1.5 0 
-2.3499998845 1.4499999993 0 -2.3499998845 1.5 0 -2.2999998838 1.4499999993 0 
-2.2999998838 1.5 0 -2.249999883 1.4499999993 0 -2.249999883 1.5 0 
-2.1999998823 1.4499999993 0 -2.1999998823 1.5 0 -2.1499998815 1.4499999993 0 
-2.1499998815 1.5 0 -2.0999998808 1.4499999993 0 -2.0999998808 1.5 0 
-2.04999988 1.4499999993 0 -2.04999988 1.5 0 -1.9999998793 1.4499999993 0 
-1.9999998793 1.5 0 -1.9499998786 1.4499999993 0 -1.9499998786 1.5 0 
-1.8999998778 1.4499999993 0 -1.8999998778 1.5 0 -1.8499998771 1.4499999993 0 
-1.8499998771 1.5 0 -1.7999998763 1.4499999993 0 -1.7999998763 1.5 0 
-1.7499998756 1.4499999993 0 -1.7499998756 1.5 0 -1.6999998748 1.4499999993 0 
-1.6999998748 1.5 0 -1.6499998741 1.4499999993 0 -1.6499998741 1.5 0 
-1.5999998733 1.4499999993 0 -1.5999998733 1.5 0 -1.5499998726 1.4499999993 0 
-1.5499998726 1.5 0 -1.4999998719 1.4499999993 0 -1.4999998719 1.5 0 
-1.4499998711 1.4499999993 0 -1.4499998711 1.5 0 -1.3999998704 1.4499999993 0 
-1.3999998704 1.5 0 -1.3499998696 1.4499999993 0 -1.3499998696 1.5 0 
-1.2999998689 1.4499999993 0 -1.2999998689 1.5 0 -1.2499998681 1.4499999993 0 
-1.2499998681 1.5 0 -1.1999998674 1.4499999993 0 -1.1999998674 1.5 0 
-1.1499998666 1.4499999993 0 -1.1499998666 1.5 0 -1.0999998659 1.4499999993 0 
-1.0999998659 1.5 0 -1.0499998651 1.4499999993 0 -1.0499998651 1.5 0 
-0.9999998644 1.4499999993 0 -0.9999998644 1.5 0 -0.94999986365 1.4499999993 0 
-0.94999986365 1.5 0 -0.89999986291 1.4499999993 0 -0.89999986291 1.5 0 
-0.84999986216 1.4499999993 0 -0.84999986216 1.5 0 -0.79999986142 1.4499999993 0 
-0.79999986142 1.5 0 -0.74999986067 1.4499999993 0 -0.74999986067 1.5 0 
-0.69999985993 1.4499999993 0 -0.69999985993 1.5 0 -0.64999985918 1.4499999993 0 
-0.64999985918 1.5 0 -0.59999985844 1.4499999993 0 -0.59999985844 1.5 0 
-0.54999985769 1.4499999993 0 -0.54999985769 1.5 0 -0.49999985695 1.4499999993 0 
-0.49999985695 1.5 0 -0.4499998562 1.4499999993 0 -0.4499998562 1.5 0 
-0.39999985546 1.4499999993 0 -0.39999985546 1.5 0 -0.34999985471 1.4499999993 0 
-0.34999985471 1.5 0 -0.29999985397 1.4499999993 0 -0.29999985397 1.5 0 
-0.24999985322 1.4499999993 0 -0.24999985322 1.5 0 -0.19999985248 1.4499999993 0 
-0.19999985248 1.5 0 -0.14999985173 1.4499999993 0 -0.14999985173 1.5 0 
[...]
CELL_DATA 8990
FIELD FieldData 4
Water_Depth_m 1 8990 float
0.339976 0.339926 0.339875 0.339822 0.339766 0.339707 0.339642 0.339573 0.339497 
0.339414 0.339323 0.339224 0.339116 0.338998 0.33887 0.338731 0.338582 0.338421 
0.338249 0.338067 0.337875 0.337674 0.337466 0.337252 0.337034 0.336814 0.336594 
0.336377 0.336164 0.335957 0.335759 0.335572 0.335396 0.335233 0.335082 0.334946 
0.334822 0.334712 0.334615 0.33453 0.334456 0.334392 0.334338 0.334293 0.334255 
0.334224 0.334198 0.334177 0.334161 0.334147 0.334137 0.334129 0.334123 0.334119 
0.334116 0.334116 0.334119 0.334125 0.334135 0.334149 0.33417 0.334197 0.334233 
0.334278 0.334334 0.334401 0.334481 0.334575 0.334682 0.334805 0.334942 0.335094 
0.335261 0.335442 0.335635 0.33584 0.336056 0.336281 0.336513 0.33675 0.336992 
0.337235 0.337478 0.337719 0.337957 0.338189 0.338415 0.338633 0.338842 0.33904 
0.339226 0.3394 0.339561 0.339708 0.33984 0.339957 0.340059 0.340145 0.340216 
0.34027 0.340308 0.340329 0.340335 0.340325 0.340298 0.340257 0.340199 0.340127 
0.34004 0.339939 0.339825 0.339699 0.339563 0.339418 0.339267 0.339112 0.338957 
0.338804 0.338659 0.338525 0.338406 0.338305 0.338226 0.338172 0.338144 0.338145 
0.338173 0.338228 0.338308 0.33841 0.33853 0.338664 0.338807 0.338957 0.339107 
0.339255 0.339398 0.339531 0.339654 0.339764 0.33986 0.339941 0.340007 0.340059 
0.340097 0.340122 0.340134 0.340134 0.340124 0.340106 0.34008 0.340048 0.340011 
0.339969 0.339924 0.339878 0.339831 0.339785 0.339739 0.339695 0.339653 0.339615 
0.339581 0.339552 0.339527 0.339508 0.339494 0.339486 0.339486 0.339493 0.339507 
0.339529 0.33956 0.3396 0.33965 0.339711 0.339784 0.33987 0.33997 0.340087 
0.340222 0.340379 0.340558 0.340763 0.340996 0.341261 0.341561 0.341898 0.342276 
0.342697 0.343161 0.34367 0.344229 0.344828 0.345481 0.346167 0.346885 0.347646 
0.348442 0.3493 0.352749 0.353479 0.354115 0.354711 0.355264 0.355774 0.356242 
0.356668 0.357055 0.357405 0.357722 0.358008 0.358265 0.358498 0.358708 0.358897 
0.359068 0.359223 0.359363 0.359491 0.359606 0.359712 0.359808 0.359896 0.359976 
0.36005 0.360118 0.360181 0.360239 0.360293 0.360343 0.360389 0.360433 0.360474 
0.360512 0.360549 0.360583 0.360615 0.360646 0.360676 0.360704 0.360731 0.360757 
0.360782 0.360806 0.360829 0.360852 0.360873 0.360895 0.360915 0.360935 0.360955 
0.360974 0.360993 0.361012 0.36103 0.361048 0.361065 0.361083 0.3611 0.361117 
0.361133 0.36115 0.361166 0.361182 0.361197 0.361213 0.361228 0.361244 0.361259 
0.361274 0.361289 0.361303 0.361318 0.361332 0.361346 0.36136 0.361374 0.361388 
0.361402 0.361416 0.361429 0.361442 0.361456 0.361469 0.361482 0.361495 0.361507 
0.36152 0.361532 0.361545 0.361557 0.361569 0.361581 0.361577 0.361561 0.360278 
0.357778 0.354552 0.339976 0.339927 0.339877 0.339824 0.339769 0.33971 0.339646 
0.339576 0.339501 0.339418 0.339327 0.339228 0.33912 0.339002 0.338873 0.338734 
0.338584 0.338422 0.338249 0.338066 0.337873 0.337671 0.337461 0.337246 0.337026 
0.336805 0.336584 0.336365 0.336151 0.335943 0.335745 0.335557 0.335381 0.335218 
0.335068 0.334932 0.334809 0.3347 0.334603 0.334519 0.334446 0.334384 0.33433 
0.334286 0.334249 0.334218 0.334194 0.334174 0.334158 0.334145 0.334135 0.334127 
0.334121 0.334116 0.334114 0.334113 0.334116 0.334121 0.33413 0.334143 0.334163 
0.334189 0.334224 0.334268 0.334323 0.334389 0.334468 0.334561 0.334669 0.334791 
0.334928 0.33508 0.335247 0.335428 0.335622 0.335828 0.336044 0.33627 0.336503 
0.336742 0.336984 0.337229 0.337473 0.337716 0.337955 0.338189 0.338416 0.338636 
0.338846 0.339045 0.339233 0.339408 0.33957 0.339718 0.339852 0.33997 0.340073 
0.340159 0.34023 0.340285 0.340323 0.340345 0.340351 0.34034 0.340314 0.340271 
0.340213 0.34014 0.340051 0.339949 0.339833 0.339705 0.339566 0.339418 0.339264 
0.339106 0.338947 0.338792 0.338643 0.338506 0.338384 0.338281 0.338201 0.338145 
0.338118 0.338119 0.338148 0.338205 0.338288 0.338392 0.338515 0.338653 0.338801 
0.338954 0.339108 0.339259 0.339404 0.33954 0.339665 0.339776 0.339873 0.339955 
0.340021 0.340073 0.34011 0.340134 0.340145 0.340144 0.340133 0.340113 0.340086 
0.340053 0.340015 0.339972 0.339926 0.339878 0.339831 0.339783 0.339737 0.339693 
0.33965 0.339611 0.339577 0.339547 0.339522 0.339502 0.339488 0.33948 0.33948 
0.339486 0.339501 0.339522 0.339552 0.339591 0.33964 0.339701 0.339773 0.339858 
0.339957 0.340072 0.340204 0.340358 0.340535 0.340738 0.340968 0.341229 0.341524 
0.341855 0.34223 0.342648 0.343108 0.343613 0.34417 0.344761 0.34541 0.346089 
0.346814 0.347597 0.348412 0.349296 0.352716 0.353474 0.354123 0.354725 0.355281 
0.355794 0.356263 0.356689 0.357076 0.357426 0.357742 0.358026 0.358283 0.358514 
0.358723 0.358911 0.359081 0.359235 0.359374 0.3595 0.359615 0.359719 0.359815 
0.359902 0.359982 0.360055 0.360122 0.360185 0.360242 0.360296 0.360346 0.360392 
0.360435 0.360476 0.360514 0.36055 0.360584 0.360617 0.360648 0.360677 0.360705 
0.360732 0.360758 0.360782 0.360806 0.36083 0.360852 0.360874 0.360895 0.360916 
0.360936 0.360956 0.360975 0.360994 0.361012 0.36103 0.361048 0.361066 0.361083 
0.3611 0.361117 0.361133 0.36115 0.361166 0.361182 0.361197 0.361213 0.361228 
0.361244 0.361259 0.361274 0.361289 0.361303 0.361318 0.361332 0.361346 0.36136 
0.361374 0.361388 0.361402 0.361416 0.361429 0.361442 0.361456 0.361469 0.361482 
0.361495 0.361507 0.36152 0.361532 0.361545 0.361557 0.361569 0.361581 0.361577 
0.361561 0.360278 0.357778 0.354552 0.339976 0.339929 0.33988 0.339828 0.339774 
0.339716 0.339652 0.339584 0.339508 0.339426 0.339335 0.339236 0.339127 0.339009 
0.338879 0.338739 0.338587 0.338424 0.338249 0.338064 0.337868 0.337663 0.337451 
0.337232 0.33701 0.336786 0.336562 0.33634 0.336124 0.335915 0.335715 0.335527 
0.335351 0.335188 0.335038 0.334903 0.334782 0.334675 0.33458 0.334498 0.334427 
0.334366 0.334315 0.334272 0.334237 0.334208 0.334185 0.334167 0.334152 0.33414 
0.33413 0.334123 0.334117 0.334112 0.334109 0.334108 0.334108 0.334112 0.334119 
0.334131 0.334148 0.334173 0.334205 0.334247 0.3343 0.334365 0.334443 0.334534 
0.334641 0.334762 0.334899 0.335051 0.335218 0.3354 0.335595 0.335802 0.336021 
0.336248 0.336484 0.336725 0.33697 0.337216 0.337464 0.337709 0.337951 0.338188 
0.338419 0.338641 0.338854 0.339056 0.339247 0.339425 0.339589 0.339739 0.339875 
0.339995 0.340099 0.340188 0.34026 0.340315 0.340355 0.340377 0.340383 0.340371 
0.340344 0.3403 0.340241 0.340165 0.340074 0.339968 0.339848 0.339716 0.339572 
0.339419 0.339258 0.339094 0.338929 0.338767 0.338612 0.338468 0.33834 0.338233 
0.338149 0.338092 0.338064 0.338065 0.338097 0.338158 0.338246 0.338357 0.338487 
0.338632 0.338787 0.338947 0.339109 0.339267 0.339418 0.339559 0.339687 0.339801 
0.339899 0.339982 0.340049 0.3401 0.340136 0.340157 0.340166 0.340163 0.340151 
0.340129 0.340099 0.340063 0.340021 0.339976 0.339929 0.339881 0.33983 0.33978 
0.339732 0.339686 0.339644 0.339605 0.339569 0.339537 0.33951 0.33949 0.339477 
0.33947 0.339469 0.339473 0.339485 0.339506 0.339537 0.339577 0.339625 0.339682 
0.33975 0.339832 0.339929 0.340042 0.340173 0.340321 0.34049 0.340684 0.340908 
0.341163 0.341452 0.341779 0.342141 0.342543 0.342997 0.343499 0.344041 0.344653 
0.345285 0.345923 0.346656 0.34743 0.348243 0.349296 0.352629 0.353503 0.354146 
0.354754 0.355316 0.355833 0.356305 0.356732 0.357119 0.357468 0.357781 0.358064 
0.358318 0.358547 0.358753 0.358939 0.359106 0.359258 0.359395 0.359519 0.359632 
0.359735 0.359829 0.359914 0.359993 0.360065 0.360132 0.360193 0.36025 0.360302 
0.360352 0.360397 0.36044 0.36048 0.360518 0.360554 0.360588 0.36062 0.36065 
0.360679 0.360707 0.360734 0.360759 0.360784 0.360808 0.360831 0.360853 0.360875 
0.360896 0.360916 0.360937 0.360956 0.360975 0.360994 0.361013 0.361031 0.361048 
0.361066 0.361083 0.3611 0.361117 0.361134 0.36115 0.361166 0.361182 0.361198 
0.361213 0.361229 0.361244 0.361259 0.361274 0.361289 0.361303 0.361318 0.361332 
0.361346 0.36136 0.361374 0.361388 0.361402 0.361416 0.361429 0.361442 0.361456 
0.361469 0.361482 0.361495 0.361507 0.36152 0.361532 0.361545 0.361557 0.361569 
0.361581 0.361577 0.361561 0.360278 0.357778 0.354552 0.339978 0.339932 0.339885 
0.339835 0.339782 0.339725 0.339662 0.339594 0.33952 0.339438 0.339347 0.339248 
0.339139 0.339019 0.338888 0.338746 0.338593 0.338427 0.338249 0.33806 0.337861 
0.337652 0.337435 0.337212 0.336985 0.336756 0.336528 0.336302 0.336083 0.335871 
0.33567 0.335481 0.335304 0.335142 0.334994 0.334861 0.334742 0.334637 0.334545 
0.334465 0.334397 0.33434 0.334292 0.334252 0.33422 0.334194 0.334173 0.334156 
0.334143 0.334133 0.334124 0.334117 0.334111 0.334106 0.334102 0.334099 0.334098 
0.334099 0.334104 0.334113 0.334127 0.334148 0.334177 0.334216 0.334266 0.334328 
0.334404 0.334494 0.334598 0.334719 0.334855 0.335007 0.335175 0.335358 0.335555 
0.335764 0.335985 0.336216 0.336454 0.336699 0.336947 0.337198 0.337449 0.337699 
0.337946 0.338187 0.338422 0.338648 0.338866 0.339072 0.339267 0.339448 0.339617 
0.33977 0.339909 0.340032 0.340139 0.34023 0.340304 0.340361 0.340401 0.340424 
0.34043 0.340418 0.34039 0.340345 0.340282 0.340204 0.340108 0.339998 0.339872 
0.339733 0.339581 0.339419 0.33925 0.339076 0.3389 0.338728 0.338562 0.338409 
0.338273 0.338159 0.33807 0.33801 0.33798 0.337984 0.33802 0.338087 0.338182 
0.338302 0.338443 0.3386 0.338767 0.338939 0.339112 0.33928 0.339439 0.339587 
0.339721 0.339839 0.339941 0.340024 0.340091 0.34014 0.340174 0.340194 0.3402 
0.340194 0.340177 0.34015 0.340117 0.340078 0.340033 0.339984 0.339933 0.33988 
0.339828 0.339776 0.339726 0.339678 0.339633 0.339591 0.339555 0.339523 0.339497 
0.339476 0.33946 0.33945 0.339448 0.339454 0.339467 0.339487 0.339514 0.33955 
0.339595 0.339652 0.339721 0.3398 0.339891 0.339997 0.340118 0.340261 0.340425 
0.340612 0.340825 0.341067 0.341341 0.341651 0.342005 0.3424 0.342838 0.343326 
0.343866 0.344443 0.345087 0.345757 0.346483 0.347276 0.348138 0.349105 0.352678 
0.35349 0.354171 0.354796 0.35537 0.355894 0.356369 0.356798 0.357184 0.357531 
0.357842 0.358121 0.358371 0.358596 0.358798 0.35898 0.359144 0.359292 0.359426 
0.359547 0.359657 0.359758 0.359849 0.359933 0.36001 0.36008 0.360145 0.360205 
0.360261 0.360312 0.36036 0.360405 0.360447 0.360487 0.360524 0.360559 0.360592 
0.360624 0.360654 0.360683 0.36071 0.360736 0.360762 0.360786 0.36081 0.360833 
0.360855 0.360876 0.360897 0.360918 0.360938 0.360957 0.360976 0.360995 0.361013 
0.361031 0.361049 0.361066 0.361084 0.361101 0.361117 0.361134 0.36115 0.361166 
0.361182 0.361198 0.361213 0.361229 0.361244 0.361259 0.361274 0.361289 0.361303 
0.361318 0.361332 0.361346 0.361361 0.361374 0.361388 0.361402 0.361416 0.361429 
0.361442 0.361456 0.361469 0.361482 0.361495 0.361507 0.36152 0.361532 0.361545 
0.361557 0.361569 0.361581 0.361577 0.361561 0.360278 0.357778 0.354552 0.339979 
0.339936 0.339891 0.339843 0.339792 0.339737 0.339676 0.339609 0.339535 0.339454 
0.339363 0.339263 0.339154 0.339033 0.338901 0.338757 0.3386 0.338431 0.338249 
0.338056 0.337851 0.337636 0.337413 0.337184 0.33695 0.336715 0.336481 0.336251 
0.336027 0.335812 0.335609 0.335418 0.335242 0.335081 0.334934 0.334804 0.334688 
0.334586 0.334498 0.334423 0.334359 0.334305 0.334261 0.334226 0.334197 0.334175 
0.334157 0.334143 0.334132 0.334124 0.334116 0.33411 0.334104 0.334099 0.334093 
0.334089 0.334085 0.334083 0.334084 0.334089 0.334099 0.334115 0.33414 0.334175 
0.334221 0.33428 0.334352 0.334439 0.334542 0.334661 0.334796 0.334948 0.335117 
0.335302 0.335501 0.335713 0.335938 0.336172 0.336415 0.336664 0.336917 0.337173 
0.33743 0.337685 0.337938 0.338185 0.338425 0.338658 0.338881 0.339093 0.339293 
0.33948 0.339653 0.339811 0.339954 0.34008 0.340191 0.340285 0.340361 0.340421 
0.340463 0.340487 0.340493 0.340481 0.340451 0.340403 0.340338 0.340255 0.340154 
0.340037 0.339904 0.339755 0.339594 0.33942 0.339239 0.339051 0.338862 0.338675 
0.338496 0.33833 0.338182 0.338058 0.337962 0.337897 0.337867 0.337872 0.337913 
0.337989 0.338095 0.338228 0.338384 0.338557 0.33874 0.338928 0.339116 0.339298 
0.339469 0.339627 0.339769 0.339892 0.339996 0.340081 0.340148 0.340196 0.340227 
0.340243 0.340244 0.340233 0.340211 0.34018 0.340141 0.340096 0.340047 0.339993 
0.339938 0.339881 0.339825 0.33977 0.339717 0.339666 0.339619 0.339576 0.339537 
0.339504 0.339476 0.339453 0.339437 0.339427 0.339424 0.339428 0.339439 0.339457 
0.339484 0.339519 0.339563 0.339616 0.339679 0.339753 0.339839 0.339939 0.340054 
0.340187 0.340339 0.340513 0.340712 0.340939 0.341198 0.341493 0.341826 0.342203 
0.342623 0.343095 0.343619 0.344191 0.34481 0.345482 0.346215 0.347021 0.347912 
0.348894 0.352671 0.353508 0.354214 0.354859 0.355447 0.355979 0.356458 0.356888 
0.357272 0.357616 0.357923 0.358197 0.358442 0.358661 0.358858 0.359034 0.359194 
0.359337 0.359467 0.359584 0.359691 0.359788 0.359876 0.359957 0.360032 0.3601 
0.360163 0.360221 0.360275 0.360325 0.360372 0.360416 0.360457 0.360495 0.360532 
0.360566 0.360598 0.360629 0.360659 0.360687 0.360714 0.36074 0.360765 0.360789 
0.360812 0.360835 0.360857 0.360878 0.360899 0.360919 0.360939 0.360958 0.360977 
0.360996 0.361014 0.361032 0.36105 0.361067 0.361084 0.361101 0.361118 0.361134 
0.361151 0.361167 0.361182 0.361198 0.361214 0.361229 0.361244 0.361259 0.361274 
0.361289 0.361304 0.361318 0.361332 0.361347 0.361361 0.361375 0.361388 0.361402 
0.361416 0.361429 0.361442 0.361456 0.361469 0.361482 0.361495 0.361507 0.36152 
0.361532 0.361545 0.361557 0.361569 0.361581 0.361577 0.361561 0.360278 0.357778 
0.354552 0.339981 0.339941 0.339899 0.339854 0.339806 0.339752 0.339693 0.339628 
0.339555 0.339474 0.339383 0.339283 0.339173 0.33905 0.338916 0.338769 0.338609 
0.338436 0.33825 0.33805 0.337839 0.337617 0.337386 0.337148 0.336906 0.336663 
0.336422 0.336185 0.335956 0.335737 0.335531 0.335339 0.335163 0.335003 0.334859 
0.334732 0.33462 0.334523 0.33444 0.334369 0.334311 0.334263 0.334224 0.334193 
0.334169 0.334151 0.334137 0.334127 0.334119 0.334113 0.334108 0.334102 0.334096 
0.33409 0.334083 0.334076 0.334069 0.334063 0.334059 0.334059 0.334063 0.334074 
0.334094 0.334123 0.334164 0.334218 0.334287 0.334371 0.334471 0.334588 0.334722 
0.334874 0.335044 0.335231 0.335433 0.335649 0.335878 0.336117 0.336365 0.33662 
0.33688 0.337142 0.337405 0.337668 0.337927 0.338182 0.33843 0.338669 0.338899 
0.339118 0.339325 0.339518 0.339697 0.339861 0.340009 0.34014 0.340255 0.340352 
0.340432 0.340494 0.340538 0.340564 0.34057 0.340557 0.340526 0.340476 0.340407 
0.340319 0.340212 0.340086 0.339944 0.339784 0.33961 0.339422 0.339224 0.33902 
0.338812 0.338607 0.33841 0.338226 0.338063 0.337926 0.33782 0.33775 0.337719 
0.337727 0.337775 0.337862 0.337982 0.338133 0.338308 0.338501 0.338707 0.338916 
0.339124 0.339323 0.33951 0.33968 0.339831 0.339961 0.340068 0.340155 0.34022 
0.340266 0.340293 0.340304 0.340299 0.340282 0.340254 0.340216 0.340171 0.340119 
0.340063 0.340004 0.339943 0.339882 0.339821 0.339761 0.339704 0.33965 0.339601 
0.339556 0.339515 0.339479 0.339449 0.339425 0.339408 0.339398 0.339393 0.339395 
0.339405 0.339422 0.339447 0.339481 0.339522 0.33957 0.339629 0.339697 0.339778 
0.33987 0.339976 0.340096 0.340233 0.340392 0.340575 0.340784 0.341024 0.341296 
0.341602 0.341952 0.342352 0.342801 0.343306 0.343878 0.344482 0.345135 0.345873 
0.346699 0.347596 0.348734 0.352577 0.353562 0.354279 0.354945 0.355548 0.35609 
0.356574 0.357004 0.357385 0.357724 0.358025 0.358292 0.35853 0.358742 0.358932 
0.359102 0.359255 0.359393 0.359517 0.35963 0.359732 0.359825 0.35991 0.359988 
0.360059 0.360124 0.360185 0.360241 0.360293 0.360341 0.360386 0.360429 0.360468 
0.360506 0.360541 0.360574 0.360606 0.360636 0.360665 0.360693 0.360719 0.360744 
0.360769 0.360793 0.360816 0.360838 0.360859 0.36088 0.360901 0.360921 0.360941 
0.36096 0.360979 0.360997 0.361015 0.361033 0.361051 0.361068 0.361085 0.361102 
0.361118 0.361135 0.361151 0.361167 0.361183 0.361198 0.361214 0.361229 0.361244 
0.361259 0.361274 0.361289 0.361304 0.361318 0.361332 0.361347 0.361361 0.361375 
0.361388 0.361402 0.361416 0.361429 0.361443 0.361456 0.361469 0.361482 0.361495 
0.361507 0.36152 0.361533 0.361545 0.361557 0.361569 0.361581 0.361577 0.361561 
0.360278 0.357778 0.354552 0.339983 0.339947 0.339909 0.339867 0.339821 0.33977 
0.339714 0.33965 0.339578 0.339498 0.339408 0.339307 0.339196 0.339072 0.338935 
0.338785 0.338621 0.338442 0.33825 0.338043 0.337824 0.337593 0.337352 0.337104 
0.336852 0.336599 0.336348 0.336103 0.335867 0.335644 0.335434 0.335241 0.335066 
0.334908 0.334768 0.334645 0.334538 0.334447 0.33437 0.334306 0.334254 0.334212 
0.334179 0.334155 0.334137 0.334124 0.334115 0.334109 0.334105 0.334101 0.334098 
0.334094 0.334088 0.334081 0.334073 0.334062 0.334051 0.334041 0.334031 0.334024 
0.334022 0.334026 0.334038 0.334061 0.334095 0.334144 0.334208 0.334288 0.334386 
0.3345 0.334633 0.334786 0.334958 0.335147 0.335353 0.335574 0.335807 0.336052 
0.336306 0.336568 0.336835 0.337105 0.337376 0.337646 0.337914 0.338177 0.338434 
0.338682 0.338921 0.339148 0.339362 0.339563 0.339749 0.339919 0.340073 0.34021 
0.34033 0.340432 0.340516 0.340581 0.340628 0.340655 0.340662 0.340649 0.340616 
0.340562 0.340489 0.340395 0.340281 0.340146 0.339992 0.33982 0.33963 0.339425 
0.339207 0.338981 0.338752 0.338523 0.338303 0.338097 0.337914 0.337761 0.337643 
0.337565 0.337532 0.337545 0.337602 0.337703 0.337841 0.338013 0.338213 0.338434 
0.338667 0.338903 0.339136 0.339357 0.339563 0.339748 0.339909 0.340047 0.340159 
0.340246 0.340309 0.340351 0.340373 0.340377 0.340366 0.340341 0.340304 0.340258 
0.340204 0.340146 0.340082 0.340016 0.339948 0.33988 0.339814 0.33975 0.339689 
0.339631 0.339578 0.339529 0.339486 0.339449 0.339419 0.339393 0.339373 0.33936 
0.339355 0.339357 0.339367 0.339382 0.339404 0.339433 0.339471 0.339518 0.339574 
0.339637 0.339708 0.339788 0.339881 0.33999 0.340115 0.340257 0.340417 0.340602 
0.340813 0.341057 0.341341 0.341662 0.342027 0.342444 0.342925 0.343454 0.344057 
0.344713 0.345448 0.346304 0.347265 0.348358 0.352629 0.353573 0.354355 0.355055 
0.355679 0.356232 0.356719 0.357147 0.357524 0.357856 0.358148 0.358407 0.358636 
0.358839 0.359021 0.359183 0.359328 0.359459 0.359577 0.359684 0.359781 0.359869 
0.359949 0.360023 0.360091 0.360153 0.360211 0.360264 0.360314 0.36036 0.360403 
0.360444 0.360482 0.360518 0.360552 0.360584 0.360615 0.360644 0.360672 0.360699 
0.360725 0.36075 0.360774 0.360797 0.360819 0.360841 0.360862 0.360883 0.360903 
0.360923 0.360943 0.360962 0.36098 0.360999 0.361017 0.361034 0.361052 0.361069 
0.361086 0.361103 0.361119 0.361135 0.361152 0.361167 0.361183 0.361199 0.361214 
0.36123 0.361245 0.36126 0.361275 0.361289 0.361304 0.361318 0.361333 0.361347 
0.361361 0.361375 0.361389 0.361402 0.361416 0.361429 0.361443 0.361456 0.361469 
0.361482 0.361495 0.361507 0.36152 0.361533 0.361545 0.361557 0.361569 0.361581 
0.361577 0.361561 0.360278 0.357778 0.354552 0.339985 0.339954 0.33992 0.339882 
0.33984 0.339792 0.339737 0.339675 0.339605 0.339526 0.339436 0.339335 0.339222 
0.339097 0.338957 0.338803 0.338634 0.33845 0.33825 0.338035 0.337806 0.337563 
0.337311 0.33705 0.336785 0.33652 0.336258 0.336004 0.33576 0.335531 0.335319 
0.335125 0.334951 0.334797 0.334661 0.334544 0.334444 0.33436 0.33429 0.334234 
0.334189 0.334154 0.334129 0.334111 0.334099 0.334092 0.334089 0.334088 0.334089 
0.334089 0.334088 0.334086 0.334081 0.334073 0.334062 0.334048 0.334032 0.334016 
0.333999 0.333985 0.333974 0.333969 0.333973 0.333988 0.334016 0.334058 0.334117 
0.334194 0.334288 0.334401 0.334534 0.334688 0.334862 0.335056 0.335266 0.335492 
0.335731 0.335982 0.336243 0.336511 0.336786 0.337064 0.337344 0.337623 0.3379 
0.338172 0.338438 0.338696 0.338944 0.33918 0.339404 0.339613 0.339807 0.339984 
0.340145 0.340288 0.340414 0.340521 0.34061 0.340679 0.340729 0.340759 0.340767 
0.340754 0.340719 0.340662 0.340584 0.340484 0.340362 0.340217 0.34005 0.339862 