# vtk DataFile Version 5.1
vtk output
ASCII
DATASET UNSTRUCTURED_GRID
POINTS 9610 double
0.1016 1.5 0 0.1016 1.45 0 0.1016 1.4 0 
0.1016 1.35 0 0.1016 1.3 0 0.1016 1.25 0 
0.1016 1.2 0 0.1016 1.15 0 0.1016 1.1 0 
0.1016 1.05 0 0.1016 1 0 0.1016 0.95 0 
0.1016 0.9 0 0.1016 0.85 0 0.1016 0.8 0 
0.1016 0.75 0 0.1016 0.7 0 0.1016 0.65 0 
0.1016 0.6 0 0.1016 0.55 0 0.1016 0.5 0 
0.1016 0.45 0 0.1016 0.4 0 0.1016 0.35 0 
0.1016 0.3 0 0.1016 0.25 0 0.1016 0.2 0 
0.1016 0.15 0 0.1016 0.1 0 0.1016 0.05 0 
0.1016 0 0 5.08 1.5 0 5.08 1.45 0 
5.08 1.4 0 5.08 1.35 0 5.08 1.3 0 
5.08 1.25 0 5.08 1.2 0 5.08 1.15 0 
5.08 1.1 0 5.08 1.05 0 5.08 1 0 
5.08 0.95 0 5.08 0.9 0 5.08 0.85 0 
5.08 0.8 0 5.08 0.75 0 5.08 0.7 0 
5.08 0.65 0 5.08 0.6 0 5.08 0.55 0 
5.08 0.5 0 5.08 0.45 0 5.08 0.4 0 
5.08 0.35 0 5.08 0.3 0 5.08 0.25 0 
5.08 0.2 0 5.08 0.15 0 5.08 0.1 0 
5.08 0.05 0 5.08 0 0 0.151384 1.5 0 
0.151384 1.45 0 0.151384 1.4 0 0.151384 1.35 0 
0.151384 1.3 0 0.151384 1.25 0 0.151384 1.2 0 
0.151384 1.15 0 0.151384 1.1 0 0.151384 1.05 0 
0.151384 1 0 0.151384 0.95 0 0.151384 0.9 0 
0.151384 0.85 0 0.151384 0.8 0 0.151384 0.75 0 
0.151384 0.7 0 0.151384 0.65 0 0.151384 0.6 0 
0.151384 0.55 0 0.151384 0.5 0 0.151384 0.45 0 
0.151384 0.4 0 0.151384 0.35 0 0.151384 0.3 0 
0.151384 0.25 0 0.151384 0.2 0 0.151384 0.15 0 
0.151384 0.1 0 0.151384 0.05 0 0.151384 0 0 
0.201168 1.5 0 0.201168 1.45 0 0.201168 1.4 0 
0.201168 1.35 0 0.201168 1.3 0 0.201168 1.25 0 
0.201168 1.2 0 0.201168 1.15 0 0.201168 1.1 0 
0.201168 1.05 0 0.201168 1 0 0.201168 0.95 0 
0.201168 0.9 0 0.201168 0.85 0 0.201168 0.8 0 
0.201168 0.75 0 0.201168 0.7 0 0.201168 0.65 0 
0.201168 0.6 0 0.201168 0.55 0 0.201168 0.5 0 
0.201168 0.45 0 0.201168 0.4 0 0.201168 0.35 0 
0.201168 0.3 0 0.201168 0.25 0 0.201168 0.2 0 
0.201168 0.15 0 0.201168 0.1 0 0.201168 0.05 0 
0.201168 0 0 0.250952 1.5 0 0.250952 1.45 0 
0.250952 1.4 0 0.250952 1.35 0 0.250952 1.3 0 
0.250952 1.25 0 0.250952 1.2 0 0.250952 1.15 0 
0.250952 1.1 0 0.250952 1.05 0 0.250952 1 0 
0.250952 0.95 0 0.250952 0.9 0 0.250952 0.85 0 
0.250952 0.8 0 0.250952 0.75 0 0.250952 0.7 0 
0.250952 0.65 0 0.250952 0.6 0 0.250952 0.55 0 
0.250952 0.5 0 0.250952 0.45 0 0.250952 0.4 0 
0.250952 0.35 0 0.250952 0.3 0 0.250952 0.25 0 
0.250952 0.2 0 0.250952 0.15 0 0.250952 0.1 0 
0.250952 0.05 0 0.250952 0 0 0.300736 1.5 0 
0.300736 1.45 0 0.300736 1.4 0 0.300736 1.35 0 
0.300736 1.3 0 0.300736 1.25 0 0.300736 1.2 0 
0.300736 1.15 0 0.300736 1.1 0 0.300736 1.05 0 
0.300736 1 0 0.300736 0.95 0 0.300736 0.9 0 
0.300736 0.85 0 0.300736 0.8 0 0.300736 0.75 0 
0.300736 0.7 0 0.300736 0.65 0 0.300736 0.6 0 
0.300736 0.55 0 0.300736 0.5 0 0.300736 0.45 0 
0.300736 0.4 0 0.300736 0.35 0 0.300736 0.3 0 
0.300736 0.25 0 0.300736 0.2 0 0.300736 0.15 0 
0.300736 0.1 0 0.300736 0.05 0 0.300736 0 0 
0.35052 1.5 0 0.35052 1.45 0 0.35052 1.4 0 
0.35052 1.35 0 0.35052 1.3 0 0.35052 1.25 0 
0.35052 1.2 0 0.35052 1.15 0 0.35052 1.1 0 
0.35052 1.05 0 0.35052 1 0 0.35052 0.95 0 
0.35052 0.9 0 0.35052 0.85 0 0.35052 0.8 0 
0.35052 0.75 0 0.35052 0.7 0 0.35052 0.65 0 
0.35052 0.6 0 0.35052 0.55 0 0.35052 0.5 0 
0.35052 0.45 0 0.35052 0.4 0 0.35052 0.35 0 
0.35052 0.3 0 0.35052 0.25 0 0.35052 0.2 0 
0.35052 0.15 0 0.35052 0.1 0 0.35052 0.05 0 
0.35052 0 0 0.400304 1.5 0 0.400304 1.45 0 
0.400304 1.4 0 0.400304 1.35 0 0.400304 1.3 0 
0.400304 1.25 0 0.400304 1.2 0 0.400304 1.15 0 
0.400304 1.1 0 0.400304 1.05 0 0.400304 1 0 
0.400304 0.95 0 0.400304 0.9 0 0.400304 0.85 0 
0.400304 0.8 0 0.400304 0.75 0 0.400304 0.7 0 
0.400304 0.65 0 0.400304 0.6 0 0.400304 0.55 0 
0.400304 0.5 0 0.400304 0.45 0 0.400304 0.4 0 
0.400304 0.35 0 0.400304 0.3 0 0.400304 0.25 0 
0.400304 0.2 0 0.400304 0.15 0 0.400304 0.1 0 
0.400304 0.05 0 0.400304 0 0 0.450088 1.5 0 
0.450088 1.45 0 0.450088 1.4 0 0.450088 1.35 0 
0.450088 1.3 0 0.450088 1.25 0 0.450088 1.2 0 
0.450088 1.15 0 0.450088 1.1 0 0.450088 1.05 0 
0.450088 1 0 0.450088 0.95 0 0.450088 0.9 0 
0.450088 0.85 0 0.450088 0.8 0 0.450088 0.75 0 
0.450088 0.7 0 0.450088 0.65 0 0.450088 0.6 0 
0.450088 0.55 0 0.450088 0.5 0 0.450088 0.45 0 
0.450088 0.4 0 0.450088 0.35 0 0.450088 0.3 0 
0.450088 0.25 0 0.450088 0.2 0 0.450088 0.15 0 
0.450088 0.1 0 0.450088 0.05 0 0.450088 0 0 
0.499872 1.5 0 0.499872 1.45 0 0.499872 1.4 0 
0.499872 1.35 0 0.499872 1.3 0 0.499872 1.25 0 
0.499872 1.2 0 0.499872 1.15 0 0.499872 1.1 0 
0.499872 1.05 0 0.499872 1 0 0.499872 0.95 0 
0.499872 0.9 0 0.499872 0.85 0 0.499872 0.8 0 
0.499872 0.75 0 0.499872 0.7 0 0.499872 0.65 0 
0.499872 0.6 0 0.499872 0.55 0 0.499872 0.5 0 
0.499872 0.45 0 0.499872 0.4 0 0.499872 0.35 0 
0.499872 0.3 0 0.499872 0.25 0 0.499872 0.2 0 
0.499872 0.15 0 0.499872 0.1 0 0.499872 0.05 0 
0.499872 0 0 0.549656 1.5 0 0.549656 1.45 0 
0.549656 1.4 0 0.549656 1.35 0 0.549656 1.3 0 
0.549656 1.25 0 0.549656 1.2 0 0.549656 1.15 0 
0.549656 1.1 0 0.549656 1.05 0 0.549656 1 0 
0.549656 0.95 0 0.549656 0.9 0 0.549656 0.85 0 
0.549656 0.8 0 0.549656 0.75 0 0.549656 0.7 0 
0.549656 0.65 0 0.549656 0.6 0 0.549656 0.55 0 
0.549656 0.5 0 0.549656 0.45 0 0.549656 0.4 0 
0.549656 0.35 0 0.549656 0.3 0 0.549656 0.25 0 
0.549656 0.2 0 0.549656 0.15 0 0.549656 0.1 0 
0.549656 0.05 0 0.549656 0 0 0.59944 1.5 0 
0.59944 1.45 0 0.59944 1.4 0 0.59944 1.35 0 
0.59944 1.3 0 0.59944 1.25 0 0.59944 1.2 0 
0.59944 1.15 0 0.59944 1.1 0 0.59944 1.05 0 
0.59944 1 0 0.59944 0.95 0 0.59944 0.9 0 
0.59944 0.85 0 0.59944 0.8 0 0.59944 0.75 0 
0.59944 0.7 0 0.59944 0.65 0 0.59944 0.6 0 
0.59944 0.55 0 0.59944 0.5 0 0.59944 0.45 0 
0.59944 0.4 0 0.59944 0.35 0 0.59944 0.3 0 
0.59944 0.25 0 0.59944 0.2 0 0.59944 0.15 0 
0.59944 0.1 0 0.59944 0.05 0 0.59944 0 0 
0.649224 1.5 0 0.649224 1.45 0 0.649224 1.4 0 
0.649224 1.35 0 0.649224 1.3 0 0.649224 1.25 0 
0.649224 1.2 0 0.649224 1.15 0 0.649224 1.1 0 
0.649224 1.05 0 0.649224 1 0 0.649224 0.95 0 
0.649224 0.9 0 0.649224 0.85 0 0.649224 0.8 0 
0.649224 0.75 0 0.649224 0.7 0 0.649224 0.65 0 
0.649224 0.6 0 0.649224 0.55 0 0.649224 0.5 0 
0.649224 0.45 0 0.649224 0.4 0 0.649224 0.35 0 
0.649224 0.3 0 0.649224 0.25 0 0.649224 0.2 0 
0.649224 0.15 0 0.649224 0.1 0 0.649224 0.05 0 
0.649224 0 0 0.699008 1.5 0 0.699008 1.45 0 
0.699008 1.4 0 0.699008 1.35 0 0.699008 1.3 0 
0.699008 1.25 0 0.699008 1.2 0 0.699008 1.15 0 
0.699008 1.1 0 0.699008 1.05 0 0.699008 1 0 
0.699008 0.95 0 0.699008 0.9 0 0.699008 0.85 0 
0.699008 0.8 0 0.699008 0.75 0 0.699008 0.7 0 
0.699008 0.65 0 0.699008 0.6 0 0.699008 0.55 0 
0.699008 0.5 0 0.699008 0.45 0 0.699008 0.4 0 
0.699008 0.35 0 0.699008 0.3 0 0.699008 0.25 0 
0.699008 0.2 0 0.699008 0.15 0 0.699008 0.1 0 
0.699008 0.05 0 0.699008 0 0 0.748792 1.5 0 
0.748792 1.45 0 0.748792 1.4 0 0.748792 1.35 0 
0.748792 1.3 0 0.748792 1.25 0 0.748792 1.2 0 
0.748792 1.15 0 0.748792 1.1 0 0.748792 1.05 0 
0.748792 1 0 0.748792 0.95 0 0.748792 0.9 0 
0.748792 0.85 0 0.748792 0.8 0 0.748792 0.75 0 
0.748792 0.7 0 0.748792 0.65 0 0.748792 0.6 0 
0.748792 0.55 0 0.748792 0.5 0 0.748792 0.45 0 
0.748792 0.4 0 0.748792 0.35 0 0.748792 0.3 0 
0.748792 0.25 0 0.748792 0.2 0 0.748792 0.15 0 
0.748792 0.1 0 0.748792 0.05 0 0.748792 0 0 
0.798576 1.5 0 0.798576 1.45 0 0.798576 1.4 0 
0.798576 1.35 0 0.798576 1.3 0 0.798576 1.25 0 
0.798576 1.2 0 0.798576 1.15 0 0.798576 1.1 0 
0.798576 1.05 0 0.798576 1 0 0.798576 0.95 0 
0.798576 0.9 0 0.798576 0.85 0 0.798576 0.8 0 
0.798576 0.75 0 0.798576 0.7 0 0.798576 0.65 0 
0.798576 0.6 0 0.798576 0.55 0 0.798576 0.5 0 
0.798576 0.45 0 0.798576 0.4 0 0.798576 0.35 0 
0.798576 0.3 0 0.798576 0.25 0 0.798576 0.2 0 
0.798576 0.15 0 0.798576 0.1 0 0.798576 0.05 0 
0.798576 0 0 0.84836 1.5 0 0.84836 1.45 0 
0.84836 1.4 0 0.84836 1.35 0 0.84836 1.3 0 
0.84836 1.25 0 0.84836 1.2 0 0.84836 1.15 0 
0.84836 1.1 0 0.84836 1.05 0 0.84836 1 0 
0.84836 0.95 0 0.84836 0.9 0 0.84836 0.85 0 
0.84836 0.8 0 0.84836 0.75 0 0.84836 0.7 0 
0.84836 0.65 0 0.84836 0.6 0 0.84836 0.55 0 
0.84836 0.5 0 0.84836 0.45 0 0.84836 0.4 0 
0.84836 0.35 0 0.84836 0.3 0 0.84836 0.25 0 
0.84836 0.2 0 0.84836 0.15 0 0.84836 0.1 0 
0.84836 0.05 0 0.84836 0 0 0.898144 1.5 0 
0.898144 1.45 0 0.898144 1.4 0 0.898144 1.35 0 
0.898144 1.3 0 0.898144 1.25 0 0.898144 1.2 0 
0.898144 1.15 0 0.898144 1.1 0 0.898144 1.05 0 
0.898144 1 0 0.898144 0.95 0 0.898144 0.9 0 
0.898144 0.85 0 0.898144 0.8 0 0.898144 0.75 0 
0.898144 0.7 0 0.898144 0.65 0 0.898144 0.6 0 
0.898144 0.55 0 0.898144 0.5 0 0.898144 0.45 0 
0.898144 0.4 0 0.898144 0.35 0 0.898144 0.3 0 
0.898144 0.25 0 0.898144 0.2 0 0.898144 0.15 0 
0.898144 0.1 0 0.898144 0.05 0 0.898144 0 0 
0.947928 1.5 0 0.947928 1.45 0 0.947928 1.4 0 
0.947928 1.35 0 0.947928 1.3 0 0.947928 1.25 0 
0.947928 1.2 0 0.947928 1.15 0 0.947928 1.1 0 
0.947928 1.05 0 0.947928 1 0 0.947928 0.95 0 
0.947928 0.9 0 0.947928 0.85 0 0.947928 0.8 0 
0.947928 0.75 0 0.947928 0.7 0 0.947928 0.65 0 
0.947928 0.6 0 0.947928 0.55 0 0.947928 0.5 0 
0.947928 0.45 0 0.947928 0.4 0 0.947928 0.35 0 
0.947928 0.3 0 0.947928 0.25 0 0.947928 0.2 0 
0.947928 0.15 0 0.947928 0.1 0 0.947928 0.05 0 
0.947928 0 0 0.997712 1.5 0 0.997712 1.45 0 
0.997712 1.4 0 0.997712 1.35 0 0.997712 1.3 0 
0.997712 1.25 0 0.997712 1.2 0 0.997712 1.15 0 
0.997712 1.1 0 0.997712 1.05 0 0.997712 1 0 
0.997712 0.95 0 0.997712 0.9 0 0.997712 0.85 0 
0.997712 0.8 0 0.997712 0.75 0 0.997712 0.7 0 
0.997712 0.65 0 0.997712 0.6 0 0.997712 0.55 0 
0.997712 0.5 0 0.997712 0.45 0 0.997712 0.4 0 
0.997712 0.35 0 0.997712 0.3 0 0.997712 0.25 0 
0.997712 0.2 0 0.997712 0.15 0 0.997712 0.1 0 
0.997712 0.05 0 0.997712 0 0 1.047496 1.5 0 
1.047496 1.45 0 1.047496 1.4 0 1.047496 1.35 0 
1.047496 1.3 0 1.047496 1.25 0 1.047496 1.2 0 
1.047496 1.15 0 1.047496 1.1 0 1.047496 1.05 0 
1.047496 1 0 1.047496 0.95 0 1.047496 0.9 0 
1.047496 0.85 0 1.047496 0.8 0 1.047496 0.75 0 
1.047496 0.7 0 1.047496 0.65 0 1.047496 0.6 0 
1.047496 0.55 0 1.047496 0.5 0 1.047496 0.45 0 
1.047496 0.4 0 1.047496 0.35 0 1.047496 0.3 0 
1.047496 0.25 0 1.047496 0.2 0 1.047496 0.15 0 
[...]
CELL_DATA 9270
FIELD FieldData 7
B_Stress_n_p_m2 1 9270 float
1.25679 1.37196 1.39061 1.39846 1.4075 1.41919 1.43412 1.45279 1.4759 
1.5042 1.53753 1.57124 1.6027 1.64548 1.59985 1.09647 0.651902 0.440391 
0.325424 0.252846 0.204618 0.171229 0.147611 0.130856 0.119168 0.111295 0.106037 
0.101634 0.0946202 0.0887599 1.16943 1.28178 1.29824 1.30249 1.3064 1.311 
1.31648 1.3225 1.32867 1.33406 1.33636 1.33091 1.31428 1.27497 1.14291 
0.861182 0.62081 0.455048 0.341573 0.261429 0.203481 0.160838 0.129143 0.10553 
0.0879771 0.0748179 0.0641747 0.0539923 0.0377762 0.0214455 1.09406 1.20413 1.21899 
1.22052 1.2205 1.21985 1.21848 1.21568 1.21059 1.2017 1.18644 1.16125 
1.12239 1.05767 0.93595 0.757437 0.595374 0.468449 0.37205 0.299296 0.24431 
0.202592 0.170833 0.146554 0.12774 0.112485 0.0985299 0.0830521 0.062618 0.0329754 
1.02267 1.13077 1.14432 1.14359 1.14032 1.13543 1.12867 1.1192 1.10601 
1.0875 1.06139 1.02481 0.97407 0.901632 0.798394 0.674082 0.55644 0.456877 
0.376301 0.312448 0.262357 0.223258 0.192786 0.168904 0.149714 0.133177 0.116732 
0.0972057 0.0710438 0.036091 0.956372 1.06286 1.07547 1.07301 1.0673 1.0593 
1.04874 1.03481 1.01658 0.992684 0.961452 0.920899 0.868616 0.801141 0.716911 
0.623247 0.532831 0.452613 0.384647 0.328603 0.283157 0.246685 0.217547 0.194113 
0.174656 0.157134 0.13885 0.11648 0.0862992 0.0465464 0.895302 1.00048 1.01248 
1.00881 1.00136 0.991237 0.978211 0.961562 0.940531 0.914089 0.881079 0.840258 
0.790348 0.730231 0.660676 0.586434 0.514091 0.448032 0.390234 0.341095 0.300137 
0.266452 0.238924 0.216269 0.196956 0.179008 0.159672 0.135468 0.102155 0.0578848 
0.839463 0.943603 0.955283 0.950828 0.942266 0.930846 0.916409 0.898376 0.87618 
0.849094 0.816399 0.777407 0.731609 0.678958 0.620696 0.559905 0.500382 0.445003 
0.395395 0.352184 0.315323 0.284343 0.258502 0.236809 0.217938 0.200036 0.180353 
0.155237 0.119744 0.0711484 0.788716 0.892038 0.90364 0.898762 0.889585 0.877515 
0.862472 0.844014 0.821753 0.79521 0.763982 0.72776 0.686476 0.640503 0.591014 
0.540076 0.490069 0.44295 0.4 0.361864 0.328697 0.300294 0.276178 0.255596 
0.237426 0.219966 0.200504 0.175194 0.138241 0.0854738 0.742824 0.845504 0.857216 
0.852199 0.842792 0.830558 0.815488 0.797267 0.775648 0.750344 0.721167 0.688044 
0.65113 0.610921 0.5684 0.525007 0.482335 0.441763 0.404289 0.370501 0.340638 
0.314653 0.292251 0.272876 0.255595 0.238873 0.220059 0.195111 0.157295 0.100575 
0.701485 0.803658 0.815619 0.810676 0.801325 0.789275 0.774578 0.757023 0.736472 
0.712774 0.685883 0.655859 0.622956 0.587668 0.550791 0.513367 0.476517 0.441247 
0.408333 0.378289 0.351378 0.327643 0.306919 0.288804 0.272537 0.256753 0.23888 
0.214697 0.1765 0.116074 0.664362 0.766128 0.778433 0.773715 0.764624 0.752996 
0.738931 0.722303 0.703052 0.681119 0.656546 0.629463 0.600153 0.569068 0.536845 
0.504264 0.472148 0.44125 0.412183 0.385384 0.361114 0.339464 0.32036 0.303523 
0.28834 0.273613 0.256864 0.233722 0.195531 0.131675 0.631103 0.732533 0.74524 
0.740851 0.732154 0.721101 0.707825 0.692265 0.674416 0.654278 0.631943 0.607574 
0.581451 0.553969 0.525643 0.497071 0.468879 0.441645 0.41586 0.391894 0.369991 
0.350269 0.332715 0.317143 0.303071 0.289455 0.273926 0.252003 0.214121 0.147121 
0.601361 0.702498 0.715638 0.711641 0.703424 0.693033 0.680628 0.666196 0.649765 
0.631375 0.611143 0.589243 0.565935 0.541559 0.516536 0.491338 0.46645 0.44233 
0.419374 0.397896 0.378121 0.360178 0.344093 0.329754 0.316785 0.304287 0.290011 
0.269403 0.232063 0.16221 0.5748 0.675669 0.689248 0.685676 0.677985 0.668299 
0.656795 0.643495 0.628447 0.611716 0.593428 0.573754 0.55293 0.531249 0.509057 
0.486733 0.464665 0.44322 0.422725 0.403447 0.385588 0.369282 0.35458 0.341426 
0.32953 0.318125 0.305085 0.28583 0.249209 0.176787 0.551104 0.651714 0.665721 
0.662587 0.655439 0.646469 0.635859 0.623661 0.609931 0.594747 0.578237 0.560561 
0.541933 0.522602 0.502857 0.48301 0.463373 0.44425 0.42591 0.408585 0.392457 
0.377655 0.364248 0.352219 0.341348 0.330988 0.31914 0.301232 0.265453 0.190738 
0.529981 0.630327 0.64474 0.642039 0.635434 0.627165 0.617422 0.606274 0.59378 
0.580024 0.565129 0.549245 0.532559 0.515289 0.497676 0.47998 0.462459 0.445365 
0.428927 0.413343 0.398777 0.385355 0.373153 0.362184 0.352282 0.342905 0.332184 
0.315586 0.280733 0.203988 0.511164 0.611231 0.626019 0.623735 0.617658 0.610065 
0.601146 0.590983 0.579635 0.567187 0.553754 0.539474 0.524512 0.509056 0.493313 
0.477498 0.461831 0.446523 0.431769 0.417742 0.40459 0.392431 0.381346 0.371367 
0.362372 0.35391 0.344239 0.328894 0.29502 0.216491 0.494408 0.594175 0.609301 
0.607414 0.60184 0.594887 0.586741 0.577495 0.567201 0.555946 0.543833 0.530989 
0.517559 0.503707 0.48961 0.475452 0.461419 0.447691 0.434435 0.421804 0.409931 
0.398927 0.388872 0.379812 0.37166 0.364041 0.35534 0.341178 0.308309 0.228226 
0.479496 0.578937 0.59436 0.592841 0.587743 0.581389 0.573963 0.565562 0.556234 
0.546061 0.535139 0.523581 0.511516 0.499087 0.486447 0.473754 0.461167 0.448841 
0.436923 0.425546 0.414831 0.404879 0.395771 0.387562 0.380187 0.373342 0.365528 
0.352471 0.320615 0.239193 0.466231 0.565315 0.580994 0.579815 0.575161 0.569362 
0.562601 0.554976 0.546528 0.537337 0.527487 0.517082 0.506235 0.495072 0.483725 
0.472332 0.46103 0.449954 0.439232 0.428984 0.419316 0.410324 0.402084 0.394656 
0.387997 0.381856 0.37485 0.36282 0.331968 0.249404 0.454437 0.553132 0.569025 
0.568155 0.563912 0.558626 0.552476 0.54556 0.537912 0.529609 0.520725 0.511353 
0.501595 0.491561 0.481366 0.47113 0.460974 0.451015 0.441366 0.432133 0.423413 
0.415293 0.407847 0.401137 0.395131 0.38963 0.383356 0.372274 0.342409 0.258884 
0.443958 0.542229 0.558293 0.557704 0.55384 0.549026 0.543434 0.537163 0.530242 
0.522741 0.514727 0.506283 0.497499 0.488473 0.479307 0.470104 0.460972 0.452012 
0.443326 0.435008 0.427145 0.419819 0.413097 0.407042 0.401634 0.396712 0.391099 
0.380888 0.351984 0.267665 0.434655 0.532466 0.548662 0.548324 0.544808 0.540424 
0.535343 0.529659 0.523396 0.516619 0.509388 0.501777 0.493867 0.485744 0.477496 
0.469218 0.461002 0.452939 0.445119 0.437625 0.430538 0.423931 0.417868 0.41241 
0.407546 0.403147 0.39813 0.388718 0.360745 0.275784 0.426402 0.523718 0.540008 
0.539893 0.536695 0.532704 0.528087 0.522936 0.517268 0.511146 0.504619 0.497758 
0.490631 0.483317 0.475893 0.468443 0.461048 0.45379 0.446748 0.439999 0.433612 
0.427658 0.422193 0.417279 0.412909 0.408982 0.404501 0.39582 0.368745 0.28328 
0.419089 0.515876 0.532223 0.532305 0.529397 0.525764 0.521568 0.5169 0.511771 
0.506238 0.500347 0.494159 0.487736 0.481147 0.474462 0.467755 0.461098 0.454563 
0.448222 0.442143 0.43639 0.431027 0.426106 0.421685 0.417763 0.414261 0.410262 
0.402249 0.376037 0.290195 0.412618 0.50884 0.52521 0.525467 0.522822 0.519513 
0.515701 0.511469 0.506827 0.501827 0.496507 0.490925 0.485135 0.479198 0.473176 
0.467136 0.461141 0.455258 0.449547 0.444074 0.438893 0.434065 0.429636 0.425663 
0.422147 0.419027 0.415459 0.408057 0.382674 0.296569 0.406902 0.502525 0.518887 
0.519294 0.516888 0.513874 0.510409 0.506573 0.502371 0.49785 0.493046 0.488009 
0.482787 0.477436 0.472011 0.46657 0.461172 0.455873 0.450732 0.445803 0.44114 
0.436795 0.432812 0.429246 0.426096 0.42332 0.42014 0.413295 0.388707 0.302445 
0.401862 0.496853 0.513178 0.513715 0.511525 0.508778 0.505627 0.502149 0.498344 
0.494257 0.489917 0.485371 0.480661 0.475837 0.470948 0.466046 0.461184 0.456412 
0.451783 0.447347 0.44315 0.439243 0.435663 0.432464 0.429646 0.427179 0.424347 
0.41801 0.394184 0.307861 0.397429 0.491756 0.508016 0.508665 0.506671 0.504165 
0.501299 0.498144 0.494698 0.491001 0.48708 0.482976 0.478727 0.474376 0.46997 
0.465554 0.461174 0.456877 0.45271 0.448717 0.444942 0.44143 0.438215 0.435347 
0.432829 0.43064 0.428119 0.422248 0.399151 0.312854 0.39354 0.487173 0.503343 
0.504087 0.502269 0.499982 0.497374 0.494511 0.491388 0.488044 0.484501 0.480795 
0.47696 0.473037 0.469064 0.465085 0.461139 0.457271 0.453519 0.449927 0.446533 
0.443377 0.440492 0.437924 0.435676 0.433736 0.431495 0.42605 0.403653 0.317462 
0.390142 0.483049 0.499108 0.499931 0.498272 0.496183 0.493808 0.491208 0.488378 
0.485352 0.482148 0.478801 0.47534 0.471801 0.46822 0.464634 0.46108 0.457596 
0.45422 0.450989 0.447938 0.445104 0.442517 0.440219 0.438216 0.436499 0.43451 
0.429454 0.407729 0.321717 0.387183 0.479337 0.495263 0.496151 0.494636 0.492725 
0.490561 0.488199 0.485633 0.482894 0.479997 0.476973 0.473848 0.470656 0.467427 
0.464195 0.460994 0.457858 0.45482 0.451915 0.449173 0.44663 0.444311 0.442258 
0.440475 0.438959 0.437195 0.432497 0.411418 0.32565 0.38462 0.475992 0.491768 
0.492708 0.491322 0.489573 0.487599 0.485452 0.483125 0.480644 0.478023 0.475291 
0.47247 0.469589 0.466678 0.463765 0.460882 0.458059 0.455326 0.452714 0.450252 
0.447971 0.445895 0.444062 0.442477 0.441142 0.439581 0.435211 0.414753 0.329291 
0.382414 0.472977 0.488587 0.489568 0.488297 0.486694 0.484892 0.48294 0.480827 
0.478579 0.476208 0.473739 0.471191 0.468592 0.465966 0.463341 0.460744 0.458203 
0.455745 0.453398 0.451188 0.449143 0.447286 0.445652 0.444246 0.443073 0.441694 
0.437627 0.417767 0.332668 0.380528 0.470258 0.485686 0.486697 0.485531 0.484059 
0.482413 0.480636 0.478717 0.47668 0.474534 0.472301 0.47 0.467654 0.465286 
0.46292 0.460582 0.458295 0.456085 0.453976 0.451993 0.450162 0.448502 0.447047 
0.445802 0.444775 0.44356 0.439772 0.420489 0.335804 0.378933 0.467803 0.483036 
0.484069 0.482996 0.481643 0.480138 0.478518 0.476775 0.474927 0.472984 0.470965 
0.468886 0.466769 0.464633 0.462501 0.460395 0.458338 0.456351 0.454458 0.452679 
0.45104 0.449558 0.448265 0.447165 0.446268 0.445201 0.441671 0.422947 0.338723 
0.377598 0.465585 0.480612 0.481658 0.480668 0.479423 0.478045 0.476568 0.474983 
0.473306 0.471546 0.469719 0.467841 0.465929 0.464003 0.462082 0.460186 0.458335 
0.456549 0.45485 0.453256 0.451791 0.45047 0.449321 0.448352 0.447573 0.446639 
0.443347 0.425164 0.341445 0.376499 0.463579 0.478389 0.479443 0.478527 0.477379 
0.476115 0.474767 0.473325 0.471802 0.470207 0.468554 0.466856 0.46513 0.463393 
0.461662 0.459955 0.45829 0.456686 0.455162 0.453735 0.452426 0.451249 0.450232 
0.44938 0.448707 0.447893 0.444823 0.427163 0.343991 0.375613 0.461764 0.476348 
0.477402 0.476553 0.475493 0.474332 0.4731 0.471786 0.470404 0.468957 0.467461 
0.465926 0.464367 0.4628 0.46124 0.459703 0.458207 0.456766 0.4554 0.454123 
0.452954 0.451908 0.451009 0.450264 0.449686 0.44898 0.446115 0.428965 0.346377 
0.37492 0.46012 0.47447 0.475518 0.474729 0.473747 0.47268 0.471553 0.470356 
0.469099 0.467787 0.466431 0.465043 0.463635 0.462222 0.460816 0.459433 0.458088 
0.456795 0.455571 0.454429 0.453387 0.452458 0.451666 0.451016 0.450523 0.449915 
0.447242 0.430589 0.34862 0.374399 0.458629 0.472738 0.473775 0.47304 0.472129 
0.471147 0.470114 0.469021 0.467877 0.466687 0.465458 0.464203 0.462931 0.461656 
0.460389 0.459145 0.457936 0.456776 0.45568 0.45466 0.453733 0.45291 0.452214 
0.45165 0.451234 0.450714 0.44822 0.43205 0.350734 0.374036 0.457275 0.471138 
0.47216 0.471473 0.470625 0.469719 0.468772 0.467774 0.466732 0.46565 0.464537 
0.4634 0.462251 0.461101 0.45996 0.45884 0.457754 0.456714 0.455734 0.454824 
0.454 0.453272 0.452662 0.452176 0.451829 0.451389 0.449063 0.433364 0.352733 
0.373811 0.456047 0.469657 0.470658 0.470014 0.469224 0.468387 0.467516 0.466603 
0.465654 0.46467 0.46366 0.462632 0.461594 0.460555 0.459527 0.45852 0.457545 
0.456613 0.455737 0.454926 0.454195 0.453553 0.453021 0.452605 0.45232 0.451953 
0.449783 0.434546 0.354629 0.373706 0.454941 0.468282 0.469259 0.468653 0.467914 
0.467139 0.466338 0.465502 0.464636 0.463741 0.462825 0.461893 0.460955 0.460018 
0.459092 0.458186 0.457311 0.456477 0.455694 0.454972 0.454325 0.453761 0.453299 
0.452945 0.452716 0.452415 0.450393 0.435608 0.356432 0.373708 0.453944 0.467002 
0.467952 0.46738 0.466688 0.465969 0.465231 0.464464 0.463672 0.462858 0.462026 
0.461182 0.460333 0.459487 0.458653 0.457839 0.457055 0.456308 0.45561 0.454968 
0.454397 0.453902 0.453504 0.453206 0.453028 0.452786 0.450903 0.436561 0.358154 
0.373806 0.453044 0.465807 0.466729 0.466186 0.465537 0.464868 0.464186 0.463482 
0.462758 0.462016 0.461259 0.460494 0.459726 0.458963 0.458212 0.45748 0.456777 
0.456109 0.455487 0.454919 0.454415 0.453984 0.453642 0.453395 0.453262 0.453074 
0.451322 0.437415 0.359802 0.373994 0.452233 0.46469 0.46558 0.465064 0.464452 
0.463829 0.463198 0.46255 0.461887 0.46121 0.460522 0.459828 0.459133 0.458445 
0.457768 0.457111 0.45648 0.455884 0.455331 0.454827 0.454385 0.45401 0.45372 
0.453519 0.453427 0.453288 0.45166 0.438179 0.361385 0.374262 0.451498 0.463643 
0.464499 0.464005 0.463428 0.462846 0.46226 0.461664 0.461056 0.460437 0.459811 
0.459181 0.458552 0.45793 0.457321 0.456731 0.456166 0.455634 0.455143 0.454699 
0.454312 0.453988 0.453744 0.453584 0.453528 0.453434 0.451923 0.438863 0.362911 
0.374604 0.450832 0.46266 0.463478 0.463005 0.462458 0.461913 0.461369 0.460818 
0.46026 0.459694 0.459123 0.458551 0.457982 0.45742 0.456872 0.456342 0.455837 
0.455363 0.454927 0.454536 0.454199 0.453921 0.453718 0.453596 0.453573 0.45352 
0.45212 0.439473 0.364386 0.375013 0.450227 0.461734 0.462512 0.462056 0.461537 
0.461026 0.460519 0.46001 0.459495 0.458978 0.458457 0.457937 0.457421 0.456914 
0.45642 0.455945 0.455493 0.455071 0.454686 0.454343 0.45405 0.453814 0.453649 
0.45356 0.453567 0.45355 0.452256 0.440017 0.365817 0.375485 0.449677 0.460859 
0.461594 0.461154 0.46066 0.460179 0.459706 0.459234 0.45876 0.458285 0.457809 
0.457337 0.456869 0.456411 0.455966 0.45554 0.455137 0.454762 0.454422 0.454121 
0.45387 0.453671 0.453539 0.453481 0.453514 0.453531 0.452337 0.4405 0.367209 
0.376014 0.449175 0.460031 0.460721 0.460295 0.459823 0.459369 0.458926 0.458487 
0.45805 0.457614 0.457179 0.456748 0.456324 0.45591 0.45551 0.455128 0.454768 
0.454436 0.454137 0.453875 0.45366 0.453495 0.453393 0.453362 0.45342 0.453468 
0.452369 0.440928 0.368567 0.376597 0.448716 0.459243 0.459888 0.459473 0.459022 
0.458592 0.458176 0.457768 0.457363 0.456962 0.456564 0.456171 0.455786 0.455412 
0.455052 0.45471 0.45439 0.454095 0.453833 0.453606 0.453424 0.453289 0.453215 
0.453208 0.453288 0.453363 0.452355 0.441306 0.369896 0.377228 0.448295 0.458491 
0.45909 0.458686 0.458252 0.457845 0.457453 0.457072 0.456697 0.456327 0.455962 
0.455604 0.455254 0.454916 0.454592 0.454286 0.454001 0.453741 0.453512 0.453317 
0.453164 0.453056 0.453007 0.453022 0.453122 0.453223 0.452302 0.441639 0.3712 
0.377905 0.447908 0.457773 0.458325 0.457929 0.457512 0.457124 0.456755 0.456399 
0.456049 0.455708 0.455373 0.455046 0.454728 0.454422 0.454131 0.453857 0.453604 
0.453375 0.453176 0.453009 0.452883 0.4528 0.452773 0.452808 0.452925 0.453049 
0.452211 0.44193 0.372483 0.378624 0.447551 0.457084 0.457589 0.4572 0.456798 
0.456428 0.456078 0.455744 0.455419 0.455103 0.454795 0.454496 0.454207 0.45393 
0.453668 0.453423 0.453199 0.452998 0.452826 0.452685 0.452582 0.452521 0.452515 
0.452568 0.4527 0.452846 0.452087 0.442183 0.373748 0.379382 0.447221 0.456421 
0.456879 0.456496 0.456107 0.455753 0.455421 0.455107 0.454804 0.454511 0.454227 
0.453953 0.45369 0.453439 0.453204 0.452985 0.452787 0.452611 0.452463 0.452345 
0.452265 0.452224 0.452235 0.452304 0.452451 0.452616 0.451932 0.442401 0.374999 
0.380178 0.446913 0.455781 0.456192 0.455814 0.455437 0.455098 0.454782 0.454486 
0.454202 0.45393 0.453668 0.453417 0.453177 0.45295 0.452738 0.452543 0.452368 
0.452215 0.452089 0.451992 0.451931 0.451908 0.451936 0.452019 0.452179 0.452362 
0.45175 0.442588 0.376238 0.381008 0.446626 0.455162 0.455527 0.455153 0.454786 
0.45446 0.454159 0.45388 0.453613 0.45336 0.453117 0.452886 0.452667 0.452462 
0.452271 0.452098 0.451944 0.451811 0.451705 0.451627 0.451583 0.451576 0.451619 
0.451715 0.451887 0.452086 0.451544 0.442745 0.377468 0.381872 0.446357 0.454562 
0.454881 0.45451 0.454153 0.453839 0.453551 0.453286 0.453034 0.452798 0.452573 
0.452361 0.452161 0.451975 0.451803 0.451649 0.451514 0.4514 0.451312 0.45125 
0.451222 0.45123 0.451286 0.451394 0.451576 0.45179 0.451314 0.442876 0.378691 
0.382766 0.446103 0.453978 0.454251 0.453884 0.453535 0.453231 0.452955 0.452703 
0.452466 0.452245 0.452036 0.45184 0.451657 0.451489 0.451335 0.451198 0.45108 
0.450983 0.45091 0.450864 0.45085 0.450871 0.450939 0.451057 0.451249 0.451477 
0.451064 0.442982 0.379909 0.38369 0.445863 0.453409 0.453637 0.453272 0.452931 
0.452637 0.452371 0.452131 0.451907 0.4517 0.451505 0.451324 0.451157 0.451003 
0.450865 0.450744 0.450641 0.450559 0.450501 0.450468 0.450468 0.450501 0.450579 
0.450707 0.450907 0.451147 0.450795 0.443065 0.381125 0.384642 0.445633 0.452852 
0.453037 0.452674 0.45234 0.452054 0.451798 0.451569 0.451356 0.451161 0.450979 
0.450812 0.450658 0.450519 0.450395 0.450288 0.450199 0.45013 0.450085 0.450065 
0.450076 0.450119 0.450208 0.450344 0.450552 0.450803 0.450509 0.443126 0.38234 
0.385621 0.445413 0.452308 0.452449 0.452088 0.45176 0.451482 0.451234 0.451015 
0.450812 0.450628 0.450458 0.450303 0.450162 0.450035 0.449924 0.449829 0.449753 
0.449697 0.449663 0.449654 0.449676 0.449729 0.449826 0.44997 0.450184 0.450446 
0.450207 0.443168 0.383556 0.386626 0.445201 0.451773 0.451873 0.451512 0.45119 
0.450919 0.450679 0.450468 0.450275 0.450101 0.449942 0.449798 0.449667 0.449552 
0.449453 0.449369 0.449304 0.449259 0.449236 0.449237 0.449268 0.449329 0.449434 
0.449585 0.449806 0.450077 0.449892 0.443191 0.384774 0.387655 0.444995 0.451247 
0.451306 0.450947 0.450629 0.450365 0.450132 0.449929 0.449744 0.449579 0.449429 
0.449295 0.449175 0.44907 0.448981 0.448908 0.448853 0.448817 0.448804 0.448814 
0.448853 0.448923 0.449035 0.449192 0.449418 0.449698 0.449563 0.443197 0.385996 
0.388709 0.444794 0.450729 0.450749 0.45039 0.450077 0.449818 0.449592 0.449395 
0.449219 0.449062 0.44892 0.448795 0.448684 0.448588 0.448508 0.448445 0.448399 
0.448372 0.448367 0.448385 0.448432 0.448509 0.448627 0.44879 0.449022 0.449309 
0.449222 0.443186 0.387223 0.389786 0.444597 0.450218 0.4502 0.449842 0.449533 
0.449279 0.449058 0.448868 0.448698 0.448548 0.448414 0.448297 0.448194 0.448107 
0.448036 0.44798 0.447943 0.447924 0.447927 0.447952 0.448006 0.448089 0.448213 
0.448381 0.448617 0.448911 0.448871 0.44316 0.388456 0.390886 0.444402 0.449713 
0.449658 0.4493 0.448995 0.448746 0.44853 0.448345 0.448181 0.448038 0.447912 
0.447802 0.447706 0.447627 0.447563 0.447515 0.447485 0.447473 0.447483 0.447515 
0.447575 0.447663 0.447793 0.447965 0.448205 0.448506 0.448509 0.443119 0.389696 
0.392008 0.444209 0.449213 0.449122 0.448765 0.448463 0.448218 0.448007 0.447828 
0.447669 0.447532 0.447412 0.447308 0.44722 0.447147 0.447089 0.447048 0.447025 
0.44702 0.447036 0.447074 0.447139 0.447233 0.447367 0.447543 0.447787 0.448094 
0.448139 0.443064 0.390945 0.393152 0.444016 0.448718 0.448593 0.448236 0.447937 
0.447696 0.447489 0.447314 0.447161 0.447029 0.446914 0.446816 0.446734 0.446667 
0.446616 0.446581 0.446564 0.446564 0.446586 0.446629 0.4467 0.446798 0.446936 
0.447116 0.447363 0.447675 0.447759 0.442996 0.392202 0.394317 0.443822 0.448227 
0.448069 0.447712 0.447416 0.447178 0.446975 0.446804 0.446656 0.446529 0.446419 
0.446327 0.44625 0.446188 0.446143 0.446113 0.446101 0.446107 0.446134 0.446182 
0.446256 0.446359 0.446501 0.446684 0.446934 0.447251 0.447373 0.442914 0.39347 
0.395503 0.443628 0.447738 0.44755 0.447193 0.446899 0.446665 0.446465 0.446298 
0.446154 0.446031 0.445926 0.445838 0.445766 0.44571 0.445669 0.445645 0.445637 
0.445648 0.445679 0.445731 0.44581 0.445916 0.446061 0.446247 0.4465 0.446821 
0.446978 0.44282 0.394748 0.396709 0.443431 0.447253 0.447035 0.446679 0.446387 
0.446155 0.445959 0.445795 0.445654 0.445536 0.445435 0.445352 0.445284 0.445232 
0.445196 0.445176 0.445173 0.445188 0.445223 0.445279 0.445361 0.445471 0.445619 