# vtk DataFile Version 5.1
vtk output
ASCII
DATASET UNSTRUCTURED_GRID
POINTS 4929 double
0.1016 1.5 0 0.1016 1.45 0 0.1016 1.4 0 
0.1016 1.35 0 0.1016 1.3 0 0.1016 1.25 0 
0.1016 1.2 0 0.1016 1.15 0 0.1016 1.1 0 
0.1016 1.05 0 0.1016 1 0 0.1016 0.95 0 
0.1016 0.9 0 0.1016 0.85 0 0.1016 0.8 0 
0.1016 0.75 0 0.1016 0.7 0 0.1016 0.65 0 
0.1016 0.6 0 0.1016 0.55 0 0.1016 0.5 0 
0.1016 0.45 0 0.1016 0.4 0 0.1016 0.35 0 
0.1016 0.3 0 0.1016 0.25 0 0.1016 0.2 0 
0.1016 0.15 0 0.1016 0.1 0 0.1016 0.05 0 
0.1016 0 0 5.08 1.5 0 5.08 1.45 0 
5.08 1.4 0 5.08 1.35 0 5.08 1.3 0 
5.08 1.25 0 5.08 1.2 0 5.08 1.15 0 
5.08 1.1 0 5.08 1.05 0 5.08 1 0 
5.08 0.95 0 5.08 0.9 0 5.08 0.85 0 
5.08 0.8 0 5.08 0.75 0 5.08 0.7 0 
5.08 0.65 0 5.08 0.6 0 5.08 0.55 0 
5.08 0.5 0 5.08 0.45 0 5.08 0.4 0 
5.08 0.35 0 5.08 0.3 0 5.08 0.25 0 
5.08 0.2 0 5.08 0.15 0 5.08 0.1 0 
5.08 0.05 0 5.08 0 0 0.12737462728 1.5 0 
0.12737462728 1.45 0 0.12737462728 1.4 0 0.12737462728 1.35 0 
0.12737462728 1.3 0 0.12737462728 1.25 0 0.12737462728 1.2 0 
0.12737462728 1.15 0 0.12737462728 1.1 0 0.12737462728 1.05 0 
0.12737462728 1 0 0.12737462728 0.95 0 0.12737462728 0.9 0 
0.12737462728 0.85 0 0.12737462728 0.8 0 0.12737462728 0.75 0 
0.12737462728 0.7 0 0.12737462728 0.65 0 0.12737462728 0.6 0 
0.12737462728 0.55 0 0.12737462728 0.5 0 0.12737462728 0.45 0 
0.12737462728 0.4 0 0.12737462728 0.35 0 0.12737462728 0.3 0 
0.12737462728 0.25 0 0.12737462728 0.2 0 0.12737462728 0.15 0 
0.12737462728 0.1 0 0.12737462728 0.05 0 0.12737462728 0 0 
0.15441581276 1.5 0 0.15441581276 1.45 0 0.15441581276 1.4 0 
0.15441581276 1.35 0 0.15441581276 1.3 0 0.15441581276 1.25 0 
0.15441581276 1.2 0 0.15441581276 1.15 0 0.15441581276 1.1 0 
0.15441581276 1.05 0 0.15441581276 1 0 0.15441581276 0.95 0 
0.15441581276 0.9 0 0.15441581276 0.85 0 0.15441581276 0.8 0 
0.15441581276 0.75 0 0.15441581276 0.7 0 0.15441581276 0.65 0 
0.15441581276 0.6 0 0.15441581276 0.55 0 0.15441581276 0.5 0 
0.15441581276 0.45 0 0.15441581276 0.4 0 0.15441581276 0.35 0 
0.15441581276 0.3 0 0.15441581276 0.25 0 0.15441581276 0.2 0 
0.15441581276 0.15 0 0.15441581276 0.1 0 0.15441581276 0.05 0 
0.15441581276 0 0 0.18278579477 1.5 0 0.18278579477 1.45 0 
0.18278579477 1.4 0 0.18278579477 1.35 0 0.18278579477 1.3 0 
0.18278579477 1.25 0 0.18278579477 1.2 0 0.18278579477 1.15 0 
0.18278579477 1.1 0 0.18278579477 1.05 0 0.18278579477 1 0 
0.18278579477 0.95 0 0.18278579477 0.9 0 0.18278579477 0.85 0 
0.18278579477 0.8 0 0.18278579477 0.75 0 0.18278579477 0.7 0 
0.18278579477 0.65 0 0.18278579477 0.6 0 0.18278579477 0.55 0 
0.18278579477 0.5 0 0.18278579477 0.45 0 0.18278579477 0.4 0 
0.18278579477 0.35 0 0.18278579477 0.3 0 0.18278579477 0.25 0 
0.18278579477 0.2 0 0.18278579477 0.15 0 0.18278579477 0.1 0 
0.18278579477 0.05 0 0.18278579477 0 0 0.21254987001 1.5 0 
0.21254987001 1.45 0 0.21254987001 1.4 0 0.21254987001 1.35 0 
0.21254987001 1.3 0 0.21254987001 1.25 0 0.21254987001 1.2 0 
0.21254987001 1.15 0 0.21254987001 1.1 0 0.21254987001 1.05 0 
0.21254987001 1 0 0.21254987001 0.95 0 0.21254987001 0.9 0 
0.21254987001 0.85 0 0.21254987001 0.8 0 0.21254987001 0.75 0 
0.21254987001 0.7 0 0.21254987001 0.65 0 0.21254987001 0.6 0 
0.21254987001 0.55 0 0.21254987001 0.5 0 0.21254987001 0.45 0 
0.21254987001 0.4 0 0.21254987001 0.35 0 0.21254987001 0.3 0 
0.21254987001 0.25 0 0.21254987001 0.2 0 0.21254987001 0.15 0 
0.21254987001 0.1 0 0.21254987001 0.05 0 0.21254987001 0 0 
0.24377654385 1.5 0 0.24377654385 1.45 0 0.24377654385 1.4 0 
0.24377654385 1.35 0 0.24377654385 1.3 0 0.24377654385 1.25 0 
0.24377654385 1.2 0 0.24377654385 1.15 0 0.24377654385 1.1 0 
0.24377654385 1.05 0 0.24377654385 1 0 0.24377654385 0.95 0 
0.24377654385 0.9 0 0.24377654385 0.85 0 0.24377654385 0.8 0 
0.24377654385 0.75 0 0.24377654385 0.7 0 0.24377654385 0.65 0 
0.24377654385 0.6 0 0.24377654385 0.55 0 0.24377654385 0.5 0 
0.24377654385 0.45 0 0.24377654385 0.4 0 0.24377654385 0.35 0 
0.24377654385 0.3 0 0.24377654385 0.25 0 0.24377654385 0.2 0 
0.24377654385 0.15 0 0.24377654385 0.1 0 0.24377654385 0.05 0 
0.24377654385 0 0 0.27653768798 1.5 0 0.27653768798 1.45 0 
0.27653768798 1.4 0 0.27653768798 1.35 0 0.27653768798 1.3 0 
0.27653768798 1.25 0 0.27653768798 1.2 0 0.27653768798 1.15 0 
0.27653768798 1.1 0 0.27653768798 1.05 0 0.27653768798 1 0 
0.27653768798 0.95 0 0.27653768798 0.9 0 0.27653768798 0.85 0 
0.27653768798 0.8 0 0.27653768798 0.75 0 0.27653768798 0.7 0 
0.27653768798 0.65 0 0.27653768798 0.6 0 0.27653768798 0.55 0 
0.27653768798 0.5 0 0.27653768798 0.45 0 0.27653768798 0.4 0 
0.27653768798 0.35 0 0.27653768798 0.3 0 0.27653768798 0.25 0 
0.27653768798 0.2 0 0.27653768798 0.15 0 0.27653768798 0.1 0 
0.27653768798 0.05 0 0.27653768798 0 0 0.31090870586 1.5 0 
0.31090870586 1.45 0 0.31090870586 1.4 0 0.31090870586 1.35 0 
0.31090870586 1.3 0 0.31090870586 1.25 0 0.31090870586 1.2 0 
0.31090870586 1.15 0 0.31090870586 1.1 0 0.31090870586 1.05 0 
0.31090870586 1 0 0.31090870586 0.95 0 0.31090870586 0.9 0 
0.31090870586 0.85 0 0.31090870586 0.8 0 0.31090870586 0.75 0 
0.31090870586 0.7 0 0.31090870586 0.65 0 0.31090870586 0.6 0 
0.31090870586 0.55 0 0.31090870586 0.5 0 0.31090870586 0.45 0 
0.31090870586 0.4 0 0.31090870586 0.35 0 0.31090870586 0.3 0 
0.31090870586 0.25 0 0.31090870586 0.2 0 0.31090870586 0.15 0 
0.31090870586 0.1 0 0.31090870586 0.05 0 0.31090870586 0 0 
0.34696870625 1.5 0 0.34696870625 1.45 0 0.34696870625 1.4 0 
0.34696870625 1.35 0 0.34696870625 1.3 0 0.34696870625 1.25 0 
0.34696870625 1.2 0 0.34696870625 1.15 0 0.34696870625 1.1 0 
0.34696870625 1.05 0 0.34696870625 1 0 0.34696870625 0.95 0 
0.34696870625 0.9 0 0.34696870625 0.85 0 0.34696870625 0.8 0 
0.34696870625 0.75 0 0.34696870625 0.7 0 0.34696870625 0.65 0 
0.34696870625 0.6 0 0.34696870625 0.55 0 0.34696870625 0.5 0 
0.34696870625 0.45 0 0.34696870625 0.4 0 0.34696870625 0.35 0 
0.34696870625 0.3 0 0.34696870625 0.25 0 0.34696870625 0.2 0 
0.34696870625 0.15 0 0.34696870625 0.1 0 0.34696870625 0.05 0 
0.34696870625 0 0 0.3848006853 1.5 0 0.3848006853 1.45 0 
0.3848006853 1.4 0 0.3848006853 1.35 0 0.3848006853 1.3 0 
0.3848006853 1.25 0 0.3848006853 1.2 0 0.3848006853 1.15 0 
0.3848006853 1.1 0 0.3848006853 1.05 0 0.3848006853 1 0 
0.3848006853 0.95 0 0.3848006853 0.9 0 0.3848006853 0.85 0 
0.3848006853 0.8 0 0.3848006853 0.75 0 0.3848006853 0.7 0 
0.3848006853 0.65 0 0.3848006853 0.6 0 0.3848006853 0.55 0 
0.3848006853 0.5 0 0.3848006853 0.45 0 0.3848006853 0.4 0 
0.3848006853 0.35 0 0.3848006853 0.3 0 0.3848006853 0.25 0 
0.3848006853 0.2 0 0.3848006853 0.15 0 0.3848006853 0.1 0 
0.3848006853 0.05 0 0.3848006853 0 0 0.42449171754 1.5 0 
0.42449171754 1.45 0 0.42449171754 1.4 0 0.42449171754 1.35 0 
0.42449171754 1.3 0 0.42449171754 1.25 0 0.42449171754 1.2 0 
0.42449171754 1.15 0 0.42449171754 1.1 0 0.42449171754 1.05 0 
0.42449171754 1 0 0.42449171754 0.95 0 0.42449171754 0.9 0 
0.42449171754 0.85 0 0.42449171754 0.8 0 0.42449171754 0.75 0 
0.42449171754 0.7 0 0.42449171754 0.65 0 0.42449171754 0.6 0 
0.42449171754 0.55 0 0.42449171754 0.5 0 0.42449171754 0.45 0 
0.42449171754 0.4 0 0.42449171754 0.35 0 0.42449171754 0.3 0 
0.42449171754 0.25 0 0.42449171754 0.2 0 0.42449171754 0.15 0 
0.42449171754 0.1 0 0.42449171754 0.05 0 0.42449171754 0 0 
0.46613315636 1.5 0 0.46613315636 1.45 0 0.46613315636 1.4 0 
0.46613315636 1.35 0 0.46613315636 1.3 0 0.46613315636 1.25 0 
0.46613315636 1.2 0 0.46613315636 1.15 0 0.46613315636 1.1 0 
0.46613315636 1.05 0 0.46613315636 1 0 0.46613315636 0.95 0 
0.46613315636 0.9 0 0.46613315636 0.85 0 0.46613315636 0.8 0 
0.46613315636 0.75 0 0.46613315636 0.7 0 0.46613315636 0.65 0 
0.46613315636 0.6 0 0.46613315636 0.55 0 0.46613315636 0.5 0 
0.46613315636 0.45 0 0.46613315636 0.4 0 0.46613315636 0.35 0 
0.46613315636 0.3 0 0.46613315636 0.25 0 0.46613315636 0.2 0 
0.46613315636 0.15 0 0.46613315636 0.1 0 0.46613315636 0.05 0 
0.46613315636 0 0 0.5098208442 1.5 0 0.5098208442 1.45 0 
0.5098208442 1.4 0 0.5098208442 1.35 0 0.5098208442 1.3 0 
0.5098208442 1.25 0 0.5098208442 1.2 0 0.5098208442 1.15 0 
0.5098208442 1.1 0 0.5098208442 1.05 0 0.5098208442 1 0 
0.5098208442 0.95 0 0.5098208442 0.9 0 0.5098208442 0.85 0 
0.5098208442 0.8 0 0.5098208442 0.75 0 0.5098208442 0.7 0 
0.5098208442 0.65 0 0.5098208442 0.6 0 0.5098208442 0.55 0 
0.5098208442 0.5 0 0.5098208442 0.45 0 0.5098208442 0.4 0 
0.5098208442 0.35 0 0.5098208442 0.3 0 0.5098208442 0.25 0 
0.5098208442 0.2 0 0.5098208442 0.15 0 0.5098208442 0.1 0 
0.5098208442 0.05 0 0.5098208442 0 0 0.55565533319 1.5 0 
0.55565533319 1.45 0 0.55565533319 1.4 0 0.55565533319 1.35 0 
0.55565533319 1.3 0 0.55565533319 1.25 0 0.55565533319 1.2 0 
0.55565533319 1.15 0 0.55565533319 1.1 0 0.55565533319 1.05 0 
0.55565533319 1 0 0.55565533319 0.95 0 0.55565533319 0.9 0 
0.55565533319 0.85 0 0.55565533319 0.8 0 0.55565533319 0.75 0 
0.55565533319 0.7 0 0.55565533319 0.65 0 0.55565533319 0.6 0 
0.55565533319 0.55 0 0.55565533319 0.5 0 0.55565533319 0.45 0 
0.55565533319 0.4 0 0.55565533319 0.35 0 0.55565533319 0.3 0 
0.55565533319 0.25 0 0.55565533319 0.2 0 0.55565533319 0.15 0 
0.55565533319 0.1 0 0.55565533319 0.05 0 0.55565533319 0 0 
0.60374211656 1.5 0 0.60374211656 1.45 0 0.60374211656 1.4 0 
0.60374211656 1.35 0 0.60374211656 1.3 0 0.60374211656 1.25 0 
0.60374211656 1.2 0 0.60374211656 1.15 0 0.60374211656 1.1 0 
0.60374211656 1.05 0 0.60374211656 1 0 0.60374211656 0.95 0 
0.60374211656 0.9 0 0.60374211656 0.85 0 0.60374211656 0.8 0 
0.60374211656 0.75 0 0.60374211656 0.7 0 0.60374211656 0.65 0 
0.60374211656 0.6 0 0.60374211656 0.55 0 0.60374211656 0.5 0 
0.60374211656 0.45 0 0.60374211656 0.4 0 0.60374211656 0.35 0 
0.60374211656 0.3 0 0.60374211656 0.25 0 0.60374211656 0.2 0 
0.60374211656 0.15 0 0.60374211656 0.1 0 0.60374211656 0.05 0 
0.60374211656 0 0 0.65419187143 1.5 0 0.65419187143 1.45 0 
0.65419187143 1.4 0 0.65419187143 1.35 0 0.65419187143 1.3 0 
0.65419187143 1.25 0 0.65419187143 1.2 0 0.65419187143 1.15 0 
[...]
CELL_DATA 4740
FIELD FieldData 7
B_Stress_n_p_m2 1 4740 float
1.36269 1.3803 1.39745 1.41575 1.43565 1.45805 1.48326 1.51091 1.53916 
1.56383 1.5763 1.55913 1.49897 1.37196 0.855085 0.258464 0.121878 0.0945466 
0.076302 0.0677038 0.0631352 0.0604608 0.058825 0.0576921 0.0567175 0.0556872 0.0543299 
0.0509117 0.0514105 0.0496899 1.31823 1.33524 1.35085 1.36697 1.38386 1.40235 
1.42274 1.44478 1.46716 1.48681 1.49745 1.48737 1.44829 1.36032 1.07725 
0.690057 0.431651 0.282824 0.208635 0.164455 0.135157 0.114744 0.0998677 0.08861 
0.0796692 0.0718612 0.0649753 0.0549403 0.0311173 0.101581 1.2725 1.28884 1.30293 
1.31678 1.33055 1.34494 1.36014 1.37585 1.39091 1.40279 1.40638 1.3929 
1.35397 1.26721 1.0495 0.724379 0.489315 0.346999 0.259654 0.203384 0.164811 
0.137106 0.116541 0.100846 0.0884918 0.078311 0.0695273 0.0594421 0.0456146 0.0652966 
1.22579 1.24141 1.25399 1.26556 1.27621 1.28649 1.29641 1.30555 1.31272 
1.31552 1.30949 1.28747 1.24091 1.14969 0.968854 0.721066 0.526947 0.392411 
0.300122 0.236982 0.192249 0.15948 0.134845 0.115883 0.10091 0.0886918 0.0783082 
0.0682133 0.0587036 0.0639667 1.17839 1.19326 1.20437 1.21372 1.22136 1.22768 
1.23254 1.23535 1.23485 1.22871 1.21298 1.18176 1.12748 1.03553 0.884774 
0.696501 0.536157 0.413736 0.324276 0.259857 0.212669 0.177376 0.150462 0.129543 
0.112949 0.0994717 0.0882743 0.0785245 0.0708681 0.072183 1.13059 1.14469 1.15442 
1.16166 1.16652 1.16919 1.16943 1.16655 1.15924 1.14533 1.12144 1.08286 
1.02369 0.934764 0.80788 0.659966 0.527462 0.4201 0.337554 0.275327 0.228218 
0.192164 0.164214 0.142245 0.124726 0.110559 0.0990343 0.0896899 0.0828357 0.0814253 
1.08274 1.09608 1.10451 1.10984 1.11218 1.11164 1.10789 1.10021 1.08735 
1.06738 1.03756 0.994375 0.933705 0.850584 0.743159 0.623863 0.513769 0.420756 
0.346082 0.287505 0.24176 0.205917 0.177636 0.155131 0.137069 0.122488 0.110787 
0.101637 0.0949808 0.0921017 1.03519 1.04777 1.05503 1.05868 1.05886 1.05561 
1.0486 1.03713 1.0201 0.9959 0.962452 0.917298 0.857899 0.782055 0.690676 
0.592539 0.500175 0.419597 0.352547 0.298135 0.254419 0.219376 0.191229 0.168539 
0.150189 0.135356 0.123524 0.114398 0.107697 0.104252 0.988286 1.00014 1.00637 
1.00859 1.00699 1.00159 0.992067 0.977831 0.957959 0.93122 0.896123 0.851096 
0.794789 0.726621 0.648445 0.566357 0.488065 0.418034 0.358019 0.307886 0.266568 
0.232728 0.205073 0.182485 0.164057 0.149104 0.137185 0.128009 0.121212 0.117573 
0.942382 0.953543 0.958887 0.959955 0.956968 0.949953 0.938661 0.922606 0.901087 
0.873216 0.838013 0.794578 0.742365 0.681638 0.61436 0.544764 0.477777 0.416673 
0.363028 0.317097 0.278375 0.246027 0.219151 0.196911 0.178596 0.163647 0.151697 
0.142466 0.135587 0.131863 0.897803 0.908307 0.91293 0.913111 0.909122 0.901016 
0.888619 0.87158 0.849404 0.821507 0.787309 0.746389 0.698698 0.644873 0.586667 
0.527048 0.469285 0.415773 0.367851 0.325953 0.289918 0.259268 0.233405 0.21173 
0.193701 0.178881 0.166969 0.157713 0.150784 0.146996 0.854846 0.86474 0.868794 
0.868347 0.863715 0.854987 0.84207 0.824743 0.802695 0.775589 0.743143 0.705254 
0.662151 0.614583 0.56401 0.512543 0.462427 0.415424 0.372637 0.334559 0.301231 
0.272421 0.247759 0.226833 0.209251 0.19468 0.182886 0.173652 0.166707 0.162853 
0.813772 0.823105 0.826735 0.825895 0.82094 0.811997 0.799049 0.78199 0.760664 
0.734921 0.704689 0.670061 0.6314 0.589442 0.545362 0.50069 0.457012 0.415638 
0.377465 0.342977 0.312328 0.285445 0.262125 0.242105 0.225112 0.210905 0.199313 
0.190155 0.183227 0.179303 0.774798 0.783622 0.786955 0.78593 0.780926 0.772105 
0.759519 0.743153 0.722973 0.698966 0.671197 0.639872 0.605401 0.568448 0.529949 
0.491033 0.452852 0.416389 0.382369 0.351238 0.323202 0.298291 0.276416 0.257425 
0.241143 0.227406 0.216096 0.207073 0.200193 0.196194 0.738093 0.746459 0.749609 
0.748572 0.743743 0.735313 0.723385 0.70802 0.68927 0.667216 0.64201 0.61391 
0.583326 0.550834 0.517178 0.483207 0.449774 0.417629 0.387357 0.359352 0.333839 
0.310905 0.29054 0.272673 0.257202 0.244026 0.233072 0.224237 0.217436 0.213361 
0.703779 0.711735 0.714795 0.713887 0.709409 0.70157 0.690514 0.676354 0.659205 
0.639207 0.616556 0.591533 0.564519 0.536006 0.506585 0.476907 0.447618 0.419297 
0.392413 0.36731 0.34421 0.323229 0.304406 0.287727 0.273144 0.260604 0.25007 
0.241474 0.234778 0.230624 0.67193 0.679523 0.682568 0.681894 0.677894 0.670787 
0.660743 0.647912 0.632444 0.614517 0.594346 0.57221 0.548454 0.523493 0.497801 
0.471884 0.44624 0.42132 0.397507 0.375091 0.35428 0.335202 0.317925 0.30247 
0.288827 0.27698 0.266919 0.258603 0.252034 0.247799 0.642575 0.649848 0.652936 
0.652571 0.649134 0.642847 0.633893 0.622444 0.608673 0.592771 0.574959 0.555501 
0.534704 0.512917 0.490524 0.467924 0.445505 0.423627 0.402596 0.382661 0.364007 
0.346763 0.33101 0.316789 0.304117 0.293001 0.283451 0.275446 0.269022 0.264705 
0.615704 0.622697 0.625867 0.625861 0.623036 0.617611 0.609777 0.599713 0.587601 
0.573636 0.558035 0.54104 0.522921 0.503972 0.484508 0.464845 0.445294 0.42614 
0.407633 0.38998 0.373346 0.357851 0.343578 0.330579 0.318887 0.308522 0.299507 
0.291837 0.285569 0.281169 0.591273 0.59802 0.6013 0.601677 0.599483 0.594928 
0.588202 0.579486 0.568962 0.55682 0.543265 0.528518 0.512815 0.496404 0.479544 
0.462492 0.445496 0.428786 0.412565 0.397007 0.382251 0.368407 0.355553 0.343746 
0.333022 0.323411 0.314942 0.307619 0.301513 0.29703 0.569207 0.575741 0.579146 
0.579912 0.578342 0.574639 0.568981 0.561548 0.552515 0.542064 0.530385 0.517676 
0.504144 0.490001 0.475459 0.460729 0.446013 0.431495 0.417342 0.403697 0.390677 
0.378377 0.366869 0.356205 0.346424 0.337555 0.329629 0.322656 0.316713 0.31215 
0.54941 0.555758 0.559295 0.560441 0.559473 0.556579 0.55193 0.545695 0.538042 
0.529141 0.519166 0.508294 0.496707 0.484584 0.472104 0.45944 0.446756 0.434203 
0.421914 0.410009 0.398583 0.387716 0.377469 0.367889 0.359009 0.350857 0.343462 
0.336834 0.331051 0.326408 0.531768 0.537954 0.541621 0.543128 0.542727 0.540587 
0.536872 0.531739 0.525345 0.517849 0.509409 0.500183 0.49033 0.480003 0.469353 
0.458523 0.447648 0.43685 0.426238 0.415906 0.405934 0.396385 0.387308 0.378742 
0.370712 0.363244 0.356357 0.350063 0.344434 0.339715 0.516152 0.522198 0.525989 
0.527832 0.52795 0.526502 0.523637 0.519503 0.514246 0.508011 0.500942 0.493181 
0.484865 0.476129 0.467098 0.457893 0.448623 0.439389 0.430276 0.421361 0.412704 
0.404357 0.396355 0.388726 0.38149 0.374661 0.368254 0.362277 0.356793 0.352001 
0.502427 0.508352 0.512257 0.514404 0.514993 0.514167 0.512066 0.508826 0.504582 
0.499468 0.493614 0.487147 0.480188 0.472853 0.465249 0.457476 0.449626 0.441776 
0.433998 0.42635 0.418877 0.411615 0.404591 0.397821 0.391314 0.385078 0.379118 
0.373437 0.368088 0.363228 0.490452 0.496272 0.500279 0.502698 0.503704 0.503431 
0.502005 0.499555 0.496205 0.492077 0.487291 0.481959 0.476189 0.470081 0.463728 
0.457212 0.450609 0.443981 0.437384 0.43086 0.424443 0.418156 0.412014 0.406021 
0.400178 0.394484 0.388935 0.383527 0.378301 0.37338 0.480085 0.485814 0.48991 
0.492566 0.493937 0.494146 0.493311 0.49155 0.488979 0.48571 0.481853 0.477509 
0.472773 0.467734 0.46247 0.45705 0.451537 0.44598 0.440421 0.43489 0.429408 
0.423988 0.418632 0.413337 0.408094 0.40289 0.397715 0.392556 0.387442 0.382465 
0.471183 0.476833 0.481006 0.483864 0.485549 0.486173 0.485846 0.484679 0.482779 
0.480252 0.477195 0.473703 0.46986 0.465743 0.46142 0.456951 0.452383 0.447758 
0.443104 0.438442 0.433783 0.429127 0.424469 0.419795 0.415087 0.410323 0.405484 
0.40055 0.395537 0.390511 0.463608 0.469189 0.473424 0.476454 0.478404 0.479379 
0.479483 0.47882 0.477492 0.475595 0.473221 0.470456 0.467376 0.46405 0.460535 
0.456881 0.453129 0.449308 0.445439 0.441532 0.43759 0.433604 0.429559 0.425433 
0.421198 0.416826 0.412287 0.407555 0.402634 0.397564 0.457224 0.462746 0.467031 
0.4702 0.47237 0.473637 0.474101 0.473859 0.47301 0.471643 0.469845 0.467695 
0.465261 0.462604 0.459775 0.456817 0.453761 0.450629 0.447434 0.444179 0.440858 
0.437454 0.433944 0.430298 0.426481 0.422455 0.418183 0.41363 0.408791 0.403686 
0.451902 0.457372 0.461694 0.464976 0.467322 0.468827 0.469584 0.469689 0.469235 
0.468308 0.466989 0.465351 0.463457 0.461363 0.459112 0.456741 0.454275 0.451728 
0.449108 0.446411 0.443623 0.440721 0.437676 0.434448 0.430997 0.427275 0.423239 
0.418847 0.414081 0.408947 0.447521 0.452945 0.457293 0.46066 0.463144 0.464836 
0.465828 0.466211 0.466077 0.465508 0.46458 0.463364 0.461917 0.460289 0.45852 
0.45664 0.454668 0.452615 0.450481 0.448258 0.445925 0.443455 0.44081 0.437945 
0.434813 0.431359 0.427531 0.423282 0.418584 0.413427 0.443964 0.449348 0.45371 
0.457138 0.459725 0.46156 0.462732 0.463333 0.463451 0.463167 0.462555 0.46168 
0.460597 0.459352 0.457979 0.456504 0.454943 0.453302 0.451577 0.449753 0.447807 
0.445705 0.443404 0.440855 0.438001 0.434782 0.431139 0.427019 0.422382 0.41721 
0.441126 0.446473 0.45084 0.454307 0.456965 0.458901 0.460206 0.46097 0.461281 
0.461219 0.460854 0.46025 0.459459 0.458522 0.457471 0.456329 0.455106 0.453806 
0.45242 0.450932 0.449313 0.447525 0.44552 0.443244 0.440633 0.437623 0.434146 
0.430141 0.425563 0.420381 0.43891 0.444223 0.448584 0.45207 0.454769 0.45677 
0.458165 0.459044 0.459496 0.459599 0.459424 0.459031 0.458469 0.457777 0.456984 
0.45611 0.455162 0.454142 0.453038 0.451829 0.450486 0.448965 0.447216 0.445178 
0.442783 0.439958 0.436631 0.432733 0.428211 0.423025 0.437228 0.442508 0.446854 
0.45034 0.453053 0.455086 0.456532 0.457485 0.458032 0.458252 0.458216 0.457981 
0.457595 0.457094 0.456506 0.455845 0.45512 0.454327 0.453455 0.45248 0.451369 
0.450077 0.448549 0.446721 0.444517 0.441861 0.438673 0.434876 0.43041 0.425226 
0.436001 0.44125 0.445571 0.449038 0.451742 0.453776 0.45524 0.456228 0.45683 
0.457127 0.457186 0.457066 0.456811 0.456457 0.456026 0.455534 0.454986 0.454378 
0.453696 0.452915 0.452 0.450905 0.449572 0.44793 0.445902 0.443403 0.440345 
0.436647 0.432236 0.42706 0.435164 0.440381 0.444666 0.448097 0.450766 0.452775 
0.454225 0.455215 0.455839 0.456176 0.456296 0.456254 0.456093 0.455847 0.455537 
0.455176 0.454769 0.454308 0.453781 0.453162 0.452415 0.451492 0.450331 0.448861 
0.446996 0.444646 0.441716 0.438116 0.433765 0.428602 0.434658 0.439841 0.44408 
0.447457 0.450069 0.452024 0.453432 0.454397 0.455012 0.455361 0.45551 0.455516 
0.45542 0.455251 0.455031 0.454771 0.454473 0.454131 0.453732 0.453249 0.452646 
0.451874 0.45087 0.449559 0.447851 0.445649 0.442848 0.43935 0.435064 0.42992 
0.434438 0.439584 0.443764 0.447066 0.449598 0.451475 0.452814 0.453726 0.454308 
0.454643 0.454799 0.454828 0.454772 0.454657 0.454502 0.454317 0.454105 0.453858 
0.453563 0.453194 0.452717 0.452082 0.451225 0.450067 0.448514 0.446461 0.443796 
0.440407 0.436194 0.431077 0.43447 0.439572 0.443678 0.446884 0.44931 0.451082 
0.452328 0.453163 0.453689 0.45399 0.454133 0.454168 0.454133 0.454052 0.453944 
0.453815 0.453669 0.453497 0.453288 0.453018 0.452651 0.452141 0.451423 0.450416 
0.449022 0.447128 0.444609 0.441342 0.437213 0.432131 0.434728 0.439779 0.443792 
0.446877 0.449168 0.450807 0.451934 0.452671 0.453124 0.453375 0.45349 0.453517 
0.453489 0.453429 0.453352 0.453265 0.453168 0.453057 0.452918 0.452732 0.452465 
0.452071 0.451488 0.450634 0.449406 0.447683 0.445328 0.442202 0.438174 0.433136 
0.435201 0.440189 0.444085 0.447016 0.449139 0.450616 0.451599 0.452218 0.452582 
0.452771 0.452849 0.452857 0.452827 0.452778 0.452722 0.452664 0.452606 0.452542 
0.452461 0.452347 0.452169 0.451885 0.451435 0.450738 0.449688 0.448155 0.44599 
0.443031 0.439126 0.434147 0.435893 0.4408 0.444543 0.447278 0.449193 0.450474 
0.451288 0.451773 0.452036 0.452157 0.452191 0.452177 0.452139 0.452095 0.452052 
0.452015 0.451984 0.451956 0.451923 0.451869 0.451771 0.45159 0.451271 0.450737 
0.44988 0.448563 0.446621 0.443868 0.440119 0.435218 0.436824 0.441622 0.44516 
0.447642 0.449298 0.450346 0.450967 0.451304 0.451462 0.451511 0.451502 0.451465 
0.451418 0.451375 0.45134 0.451318 0.451307 0.451307 0.45131 0.451306 0.451276 
0.451189 0.450998 0.45063 0.449982 0.448913 0.447239 0.444747 0.441205 0.436412 
0.438039 0.442677 0.44593 0.448078 0.449414 0.45019 0.4506 0.450785 0.450839 
0.450823 0.450776 0.450719 0.450665 0.450622 0.450594 0.450581 0.450584 0.450601 
0.45063 0.450664 0.450689 0.450683 0.45061 0.450408 0.449982 0.449194 0.447849 
0.445694 0.442439 0.437804 0.439642 0.444022 0.44685 0.448543 0.449481 0.449948 
0.450139 0.450178 0.450141 0.450074 0.449999 0.449931 0.449876 0.449835 0.449812 
0.449805 0.449816 0.449843 0.449887 0.449943 0.450006 0.450063 0.45009 0.450042 
0.449844 0.44937 0.448427 0.44673 0.443902 0.439524 0.441833 0.445709 0.447843 
0.448907 0.449369 0.449516 0.449508 0.449435 0.449343 0.449253 0.449175 0.449112 
0.449065 0.449034 0.449017 0.449015 0.449026 0.449053 0.449095 0.449153 0.449227 
0.449313 0.449401 0.449471 0.449475 0.449327 0.448862 0.447798 0.445663 0.441788 
0.44458 0.447341 0.448486 0.448888 0.448971 0.448929 0.448846 0.448759 0.448683 
0.448621 0.448572 0.448536 0.448511 0.448495 0.448487 0.448486 0.448493 0.448508 
0.448532 0.448567 0.448614 0.448676 0.448751 0.448837 0.448919 0.448961 0.448877 
0.448474 0.44733 0.44457 1.70836 1.72916 1.75513 1.78483 1.81828 1.85337 
1.88547 1.90553 1.89841 1.84119 1.70358 1.45242 1.05284 0.524879 0.0883171 
537.417 398.385 327.745 308.375 312.425 324.972 338.921 351.338 361.037 
367.246 368.988 363.634 346.231 318.995 200.882 1.66649 1.68713 1.71254 
1.74176 1.77511 1.81114 1.84624 1.87276 1.87713 1.83773 1.72448 1.50044 
1.11846 0.594142 0.109738 556.604 404.491 331.454 311.363 315.567 328.565 
342.92 355.615 365.513 371.949 373.888 368.381 351.181 317.124 188.495 
1.62387 1.64424 1.66892 1.69731 1.73002 1.76621 1.80322 1.83486 1.84938 
1.82707 1.7391 1.54575 1.18922 0.679045 0.133614 594.529 415.867 340.295 
319.622 323.245 335.603 349.273 361.319 370.678 376.732 378.322 372.028 
352.507 311.54 193.422 1.58069 1.60072 1.62448 1.65174 1.68328 1.71882 
1.75657 1.79176 1.81462 1.80787 1.74491 1.58446 1.2613 0.781627 0.173847 
665.079 438.866 359.037 336.064 336.738 346.176 357.304 367.32 375.121 
380.013 380.668 373.368 351.881 306.529 199.252 1.53716 1.55678 1.57946 
1.6053 1.63519 1.66931 1.70661 1.74363 1.77262 1.77909 1.73944 1.61212 
1.33016 0.901615 0.19792 759.433 476.405 391.781 363.09 357.659 361.692 
368.436 375.091 380.371 383.409 382.786 374.875 353.691 309.222 202.199 
1.4935 1.51265 1.53411 1.55829 1.58613 1.61811 1.65379 1.69087 1.72351 
1.74018 1.7208 1.62576 1.39612 1.04674 0.190266 850.286 534.106 444.527 
402.91 386.619 382.279 382.724 384.719 386.543 387.037 384.721 376.396 
357.158 317.438 201.932 1.44987 1.46854 1.48864 1.51098 1.53642 1.56565 
1.59868 1.63409 1.66777 1.69109 1.68787 1.62402 1.45814 1.20619 0.315643 
1006.59 635.764 518.905 451.967 419.746 404.674 397.587 394.175 392.009 
389.498 385.034 375.884 357.776 322.379 201.186 1.40634 1.42449 1.44315 
1.46352 1.48629 1.51229 1.54176 1.57395 1.6061 1.6321 1.63987 1.60369 
1.49974 1.32619 0.621392 1378.86 767.12 585.319 488.045 441.646 418.28 
405.731 398.537 393.629 389.044 383.093 373.345 353.983 323.666 218.776 
0.809693 0.816863 0.819875 0.818817 0.81382 0.805012 0.792545 0.776592 0.757353 
0.735047 0.709915 0.682217 0.652231 0.620252 0.586589 0.551565 0.515518 0.478798 
0.441772 0.40482 0.368347 0.33278 0.298581 0.266251 0.236341 0.209453 0.186237 
0.167376 0.153555 0.145374 0.827769 0.834839 0.837624 0.836195 0.830663 0.82116 
0.807848 0.79091 0.770557 0.747022 0.720561 0.691449 0.659981 0.626469 0.59124 
0.554635 0.517006 0.47872 0.440156 0.401709 0.363791 0.326838 0.291319 0.257741 
0.226662 0.198702 0.174538 0.154894 0.140501 0.13201 0.840158 0.847236 0.849902 
0.848232 0.842338 0.832359 0.818462 0.800838 0.779708 0.755315 0.727925 0.697827 
0.665328 0.630752 0.59444 0.556744 0.518031 0.478677 0.439071 0.399616 0.36073 
0.322854 0.286457 0.25205 0.220196 0.19152 0.166719 0.146548 0.131783 0.123136 
0.85506 0.862162 0.864701 0.862752 0.856431 0.845882 0.831281 0.81283 0.790758 
0.765325 0.736808 0.705513 0.671762 0.635896 0.59827 0.559255 0.519232 0.478592 
0.437737 0.397081 0.35705 0.318092 0.28068 0.245327 0.212599 0.183127 0.157625 
0.136879 0.121714 0.112912 0.870379 0.877506 0.879908 0.877663 0.870892 0.859747 
0.844411 0.825098 0.80205 0.775537 0.745855 0.713323 0.678282 0.641089 0.602118 
0.561756 0.520402 0.478462 0.436354 0.394502 0.353342 0.313329 0.274939 0.238685 
0.205132 0.174916 0.148758 0.12747 0.111925 0.102974 0.886539 0.893692 0.895949 
0.893391 0.886142 0.874364 0.858247 0.838018 0.813932 0.786273 0.755355 0.721514 
0.685107 0.646513 0.606125 0.564348 0.521599 0.478305 0.434896 0.391812 0.3495 
0.30842 0.269053 0.231912 0.197557 0.166623 0.139836 0.118026 0.102111 0.0930131 
0.903412 0.910592 0.912696 0.909806 0.902054 0.889607 0.872669 0.851475 0.826298 
0.797436 0.765221 0.730008 0.692174 0.652117 0.610252 0.567005 0.522814 0.478123 
0.433381 0.389044 0.34557 0.303427 0.263099 0.225098 0.189979 0.15837 0.130995 
0.108695 0.0924258 0.0831851 0.921032 0.92824 0.930182 0.926942 0.918659 0.90551 
0.887706 0.8655 0.839176 0.809052 0.775478 0.738827 0.699501 0.657917 0.614514 
0.56974 0.524054 0.477922 0.431813 0.386198 0.34155 0.298346 0.257073 0.218242 
0.1824 0.150164 0.122247 0.0994955 0.0828952 0.0735176 0.93942 0.946656 0.948427 
0.944819 0.935978 0.922088 0.903377 0.880107 0.85258 0.821133 0.786135 0.747982 
0.707096 0.663921 0.618916 0.572556 0.525323 0.477705 0.430192 0.383275 0.337441 
0.293179 0.25098 0.211352 0.174834 0.142027 0.113627 0.0904735 0.073572 0.0640665 
0.958616 0.965882 0.967472 0.963477 0.954048 0.939381 0.919715 0.895329 0.866541 
0.833708 0.797219 0.757494 0.71498 0.670143 0.623471 0.575463 0.526626 0.477474 
0.42852 0.380273 0.33324 0.287921 0.244815 0.204426 0.167285 0.133971 0.105158 
0.0816639 0.0645019 0.0548819 0.978675 0.985971 0.98737 0.982966 0.972919 0.957436 
0.936767 0.911208 0.881097 0.84681 0.80876 0.767391 0.723174 0.676604 0.628194 
0.578472 0.527972 0.477233 0.426795 0.377189 0.328942 0.282566 0.23857 0.197459 
0.159751 0.126004 0.0968597 0.0731031 0.055735 0.0460203 0.999661 1.00699 1.00818 
1.00335 0.992653 0.97631 0.954588 0.927797 0.896298 0.860486 0.8208 0.777709 
0.731711 0.68333 0.633107 0.5816 0.529371 0.47699 0.425021 0.374022 0.32454 
0.277106 0.232237 0.190442 0.152228 0.118129 0.0887501 0.0648267 0.0473253 0.0375452 
1.02165 1.02901 1.02999 1.0247 1.01332 0.996074 0.973243 0.945159 0.912201 
0.87479 0.833388 0.788492 0.74063 0.690354 0.638238 0.58487 0.530843 0.476757 
0.423206 0.370775 0.320033 0.271534 0.225807 0.183365 0.144708 0.110348 0.0808431 
0.0568704 0.0393323 0.0295305 1.04472 1.05211 1.05287 1.04711 1.035 1.0168 
0.992807 0.963364 0.928874 0.889784 0.846582 0.799795 0.74998 0.697722 0.643627 
0.588315 0.532414 0.476556 0.421365 0.367457 0.315428 0.265851 0.219276 0.176222 
0.137185 0.102656 0.0731499 0.0492693 0.0318234 0.022066 1.06897 1.0764 1.07692 
1.07065 1.05778 1.03858 1.01336 0.982492 0.946394 0.905542 0.860453 0.811683 
0.759822 0.705489 0.649324 0.591981 0.534126 0.476422 0.41953 0.364095 0.310742 
0.260072 0.212653 0.169016 0.12966 0.0950582 0.0656846 0.0420639 0.0248814 0.0152727 
1.09449 1.10195 1.10222 1.09542 1.08176 1.0615 1.035 1.00263 0.964845 
0.922146 0.875078 0.824231 0.770229 0.713724 0.655394 0.595931 0.536035 0.476409 
0.417747 0.360729 0.306013 0.254225 0.205957 0.161759 0.122135 0.0875507 0.0584471 
0.0352768 0.0185838 0.009301 1.12136 1.12885 1.12886 1.1215 1.107 1.08565 
1.0578 1.02386 0.984309 0.939677 0.890541 0.837523 0.781282 0.722509 0.66192 
0.600245 0.538225 0.4766 0.416101 0.357445 0.301322 0.24839 0.199265 0.154516 
0.114659 0.0801603 0.0514407 0.0289 0.0129595 0.00432589 1.14965 1.15718 1.15691 
1.14897 1.13359 1.11109 1.08183 1.04625 1.00486 0.958209 0.906914 0.851631 
0.793057 0.731923 0.668984 0.605012 0.54079 0.477097 0.414707 0.354372 0.29682 