# vtk DataFile Version 5.1
vtk output
ASCII
DATASET UNSTRUCTURED_GRID
POINTS 10043 double
-10.1 1.4499999993 2.6138659237e-08 -10.049999999 1.4499999993 6.6014543165e-08 -10.049999999 1.5 -2.6505426831e-07 
-9.9999999985 1.4499999993 8.0297247962e-08 -9.9999999985 1.5 -3.0927753869e-07 -9.9499999978 1.4499999993 8.627990411e-08 
-9.9499999978 1.5 -3.3100718611e-07 -9.899999997 1.4499999993 8.9823295468e-08 -9.899999997 1.5 -3.4393292481e-07 
-9.8499999963 1.4499999993 9.2322586909e-08 -9.8499999963 1.5 -3.5284051592e-07 -9.7999999955 1.4499999993 9.4079730673e-08 
-9.7999999955 1.5 -3.5961261347e-07 -9.7499999948 1.4499999993 9.5433058789e-08 -9.7499999948 1.5 -3.6483129406e-07 
-9.699999994 1.4499999993 9.6613582912e-08 -9.699999994 1.5 -3.6927872316e-07 -9.6499999933 1.4499999993 9.7741356342e-08 
-9.6499999933 1.5 -3.7328049984e-07 -9.5999999925 1.4499999993 9.8614471256e-08 -9.5999999925 1.5 -3.7698396227e-07 
-9.5499999918 1.4499999993 9.9640381279e-08 -9.5499999918 1.5 -3.8041639527e-07 -9.4999999911 1.4499999993 1.0039344289e-07 
-9.4999999911 1.5 -3.836560154e-07 -9.4499999903 1.4499999993 1.0129202366e-07 -9.4499999903 1.5 -3.8700841287e-07 
-9.3999999896 1.4499999993 1.0208146506e-07 -9.3999999896 1.5 -3.9021529119e-07 -9.3499999888 1.4499999993 1.0304007247e-07 
-9.3499999888 1.5 -3.9336759983e-07 -9.2999999881 1.4499999993 1.038422468e-07 -9.2999999881 1.5 -3.966345048e-07 
-9.2499999873 1.4499999993 1.0462623123e-07 -9.2499999873 1.5 -3.9987048694e-07 -9.1999999866 1.4499999993 1.0554663987e-07 
-9.1999999866 1.5 -4.0324107431e-07 -9.1499999858 1.4499999993 1.063651851e-07 -9.1499999858 1.5 -4.0655163502e-07 
-9.0999999851 1.4499999993 1.0732015454e-07 -9.0999999851 1.5 -4.1005500862e-07 -9.0499999844 1.4499999993 1.0828421892e-07 
-9.0499999844 1.5 -4.1352200242e-07 -8.9999999836 1.4499999993 1.0923918836e-07 -8.9999999836 1.5 -4.1713997234e-07 
-8.9499999829 1.4499999993 1.1010684631e-07 -8.9499999829 1.5 -4.2074702833e-07 -8.8999999821 1.4499999993 1.1112729936e-07 
-8.8999999821 1.5 -4.245978289e-07 -8.8499999814 1.4499999993 1.1212592455e-07 -8.8499999814 1.5 -4.2848682824e-07 
-8.7999999806 1.4499999993 1.1316274851e-07 -8.7999999806 1.5 -4.3236491365e-07 -8.7499999799 1.4499999993 1.1425959912e-07 
-8.7499999799 1.5 -4.3647219172e-07 -8.6999999791 1.4499999993 1.1481257189e-07 -8.6999999791 1.5 -4.3858585741e-07 
-8.6499999784 1.4499999993 1.1585667181e-07 -8.6499999784 1.5 -4.4278954192e-07 -8.5999999776 1.4499999993 1.1690986668e-07 
-8.5999999776 1.5 -4.471187367e-07 -8.5499999769 1.4499999993 1.1820862511e-07 -8.5499999769 1.5 -4.5151159611e-07 
-8.4999999762 1.4499999993 1.193964323e-07 -8.4999999762 1.5 -4.5610454436e-07 -8.4499999754 1.4499999993 1.2061333621e-07 
-8.4499999754 1.5 -4.6073023441e-07 -8.3999999747 1.4499999993 1.2186480092e-07 -8.3999999747 1.5 -4.656760666e-07 
-8.3499999739 1.4499999993 1.2313081754e-07 -8.3499999739 1.5 -4.7048365559e-07 -8.2999999732 1.4499999993 1.244604988e-07 
-8.2999999732 1.5 -4.7568414629e-07 -8.2499999724 1.4499999993 1.258502067e-07 -8.2499999724 1.5 -4.8085553317e-07 
-8.1999999717 1.4499999993 1.2720535381e-07 -8.1999999717 1.5 -4.8612150749e-07 -8.1499999709 1.4499999993 1.2857323384e-07 
-8.1499999709 1.5 -4.9158938964e-07 -8.0999999702 1.4499999993 1.300739001e-07 -8.0999999702 1.5 -4.9720824791e-07 
-8.0499999695 1.4499999993 1.3161094614e-07 -8.0499999695 1.5 -5.0285802899e-07 -7.9999999687 1.4499999993 1.3318255299e-07 
-7.9999999687 1.5 -5.0884978009e-07 -7.949999968 1.4499999993 1.3482691941e-07 -7.949999968 1.5 -5.1491974773e-07 
-7.8999999672 1.4499999993 1.3643672503e-07 -7.8999999672 1.5 -5.2121163208e-07 -7.8499999665 1.4499999993 1.3803197874e-07 
-7.8499999665 1.5 -5.2749987844e-07 -7.7999999657 1.4499999993 1.3977820856e-07 -7.7999999657 1.5 -5.3410099099e-07 
-7.749999965 1.4499999993 1.4149715355e-07 -7.749999965 1.5 -5.4085489865e-07 -7.6999999642 1.4499999993 1.4336161769e-07 
-7.6999999642 1.5 -5.4769884628e-07 -7.6499999635 1.4499999993 1.4520516345e-07 -7.6499999635 1.5 -5.5477289607e-07 
-7.5999999627 1.4499999993 1.4719331887e-07 -7.5999999627 1.5 -5.6206522459e-07 -7.549999962 1.4499999993 1.4905232604e-07 
-7.549999962 1.5 -5.6957128436e-07 -7.4999999613 1.4499999993 1.5107595175e-07 -7.4999999613 1.5 -5.7729744185e-07 
-7.4499999605 1.4499999993 1.531277718e-07 -7.4499999605 1.5 -5.8519094637e-07 -7.3999999598 1.4499999993 1.5525417041e-07 
-7.3999999598 1.5 -5.9328908719e-07 -7.349999959 1.4499999993 1.5744787163e-07 -7.349999959 1.5 -6.0162824411e-07 
-7.2999999583 1.4499999993 1.5965794375e-07 -7.2999999583 1.5 -6.1025480136e-07 -7.2499999575 1.4499999993 1.6201171604e-07 
-7.2499999575 1.5 -6.1906143856e-07 -7.1999999568 1.4499999993 1.6434002248e-07 -7.1999999568 1.5 -6.2811091084e-07 
-7.149999956 1.4499999993 1.6681748605e-07 -7.149999956 1.5 -6.3750508161e-07 -7.0999999553 1.4499999993 1.6807531722e-07 
-7.0999999553 1.5 -6.4226355789e-07 -7.0499999546 1.4499999993 1.7064373026e-07 -7.0499999546 1.5 -6.5196968535e-07 
-6.9999999538 1.4499999993 1.7323669965e-07 -6.9999999538 1.5 -6.6201232585e-07 -6.9499999531 1.4499999993 1.7600702051e-07 
-6.9499999531 1.5 -6.7237874646e-07 -6.8999999523 1.4499999993 1.7878825531e-07 -6.8999999523 1.5 -6.8301346801e-07 
-6.8499999516 1.4499999993 1.816404307e-07 -6.8499999516 1.5 -6.9398652158e-07 -6.7999999508 1.4499999993 1.8455263273e-07 
-6.7999999508 1.5 -7.0527698881e-07 -6.7499999501 1.4499999993 1.8767129006e-07 -6.7499999501 1.5 -7.1699946602e-07 
-6.6999999493 1.4499999993 1.9079904234e-07 -6.6999999493 1.5 -7.290020676e-07 -6.6499999486 1.4499999993 1.9405594287e-07 
-6.6499999486 1.5 -7.4147487794e-07 -6.5999999478 1.4499999993 1.9743835367e-07 -6.5999999478 1.5 -7.5430693869e-07 
-6.5499999471 1.4499999993 2.0094081776e-07 -6.5499999471 1.5 -7.6756555245e-07 -6.4999999464 1.4499999993 2.0450603699e-07 
-6.4999999464 1.5 -7.8124708125e-07 -6.4499999456 1.4499999993 2.0816311519e-07 -6.4499999456 1.5 -7.9547066889e-07 
-6.3999999449 1.4499999993 2.1197026001e-07 -6.3999999449 1.5 -8.1009716268e-07 -6.3499999441 1.4499999993 2.1596476074e-07 
-6.3499999441 1.5 -8.2527390077e-07 -6.2999999434 1.4499999993 2.2013024648e-07 -6.2999999434 1.5 -8.4092994257e-07 
-6.2499999426 1.4499999993 2.2435484937e-07 -6.2499999426 1.5 -8.5725082499e-07 -6.1999999419 1.4499999993 2.2883411077e-07 
-6.1999999419 1.5 -8.740901194e-07 -6.1499999411 1.4499999993 2.3331973864e-07 -6.1499999411 1.5 -8.9162517725e-07 
-6.0999999404 1.4499999993 2.3811095673e-07 -6.0999999404 1.5 -9.0984872259e-07 -6.0499999397 1.4499999993 2.4303403734e-07 
-6.0499999397 1.5 -9.2873528956e-07 -5.9999999389 1.4499999993 2.4822179512e-07 -5.9999999389 1.5 -9.4842857834e-07 
-5.9499999382 1.4499999993 2.5354233912e-07 -5.9499999382 1.5 -9.6889493761e-07 -5.8999999374 1.4499999993 2.5916983759e-07 
-5.8999999374 1.5 -9.901652902e-07 -5.8499999367 1.4499999993 2.6498014449e-07 -5.8499999367 1.5 -1.0124638266e-06 
-5.7999999359 1.4499999993 2.7105011213e-07 -5.7999999359 1.5 -1.03564048e-06 -5.7499999352 1.4499999993 2.7738428798e-07 
-5.7499999352 1.5 -1.0599035249e-06 -5.6999999344 1.4499999993 2.8402405405e-07 -5.6999999344 1.5 -1.0852634205e-06 
-5.6499999337 1.4499999993 2.9100806387e-07 -5.6499999337 1.5 -1.1118474958e-06 -5.5999999329 1.4499999993 2.9827310755e-07 
-5.5999999329 1.5 -1.1397453363e-06 -5.5499999322 1.4499999993 3.0205660551e-07 -5.5499999322 1.5 -1.1542072116e-06 
-5.4999999315 1.4499999993 3.0992055144e-07 -5.4999999315 1.5 -1.1842137155e-06 -5.4499999307 1.4499999993 3.1823060453e-07 
-5.4499999307 1.5 -1.2158291156e-06 -5.39999993 1.4499999993 3.2695083974e-07 -5.39999993 1.5 -1.2491166217e-06 
-5.3499999292 1.4499999993 3.3614264794e-07 -5.3499999292 1.5 -1.2843213426e-06 -5.2999999285 1.4499999993 3.4586832953e-07 
-5.2999999285 1.5 -1.3216028947e-06 -5.2499999277 1.4499999993 3.5622156247e-07 -5.2499999277 1.5 -1.3610695078e-06 
-5.199999927 1.4499999993 3.6722826735e-07 -5.199999927 1.5 -1.4030158582e-06 -5.1499999262 1.4499999993 3.7892800719e-07 
-5.1499999262 1.5 -1.4477079731e-06 -5.0999999255 1.4499999993 3.914244644e-07 -5.0999999255 1.5 -1.4955091956e-06 
-5.0499999247 1.4499999993 4.048217761e-07 -5.0499999247 1.5 -1.5466118839e-06 -4.999999924 1.4499999993 4.1919497562e-07 
-4.999999924 1.5 -1.6015203528e-06 -4.9499999233 1.4499999993 4.34664571e-07 -4.9499999233 1.5 -1.6607211819e-06 
-4.8999999225 1.4499999993 4.5147157834e-07 -4.8999999225 1.5 -1.7247409687e-06 -4.8499999218 1.4499999993 4.6965419642e-07 
-4.8499999218 1.5 -1.7942286377e-06 -4.799999921 1.4499999993 4.8950573728e-07 -4.799999921 1.5 -1.870000915e-06 
-4.7499999203 1.4499999993 5.1126585277e-07 -4.7499999203 1.5 -1.9530014015e-06 -4.6999999195 1.4499999993 5.3518874665e-07 
-4.6999999195 1.5 -2.0443742414e-06 -4.6499999188 1.4499999993 5.6169506024e-07 -4.6499999188 1.5 -2.1454877697e-06 
-4.599999918 1.4499999993 5.9126364249e-07 -4.599999918 1.5 -2.2581350549e-06 -4.5499999173 1.4499999993 6.2431195147e-07 
-4.5499999173 1.5 -2.3844183943e-06 -4.4999999166 1.4499999993 6.6170923674e-07 -4.4999999166 1.5 -2.5269894195e-06 
-4.4499999158 1.4499999993 7.0429882726e-07 -4.4499999158 1.5 -2.6892948881e-06 -4.3999999151 1.4499999993 7.5323896453e-07 
-4.3999999151 1.5 -2.8757635846e-06 -4.3499999143 1.4499999993 8.1001803665e-07 -4.3499999143 1.5 -3.0920498375e-06 
-4.2999999136 1.4499999993 8.7668263404e-07 -4.2999999136 1.5 -3.3458152302e-06 -4.2499999128 1.4499999993 9.5592531579e-07 
-4.2499999128 1.5 -3.6471919884e-06 -4.1999999121 1.4499999993 1.0514247606e-06 -4.1999999121 1.5 -4.0101799641e-06 
-4.1499999113 1.4499999993 1.1684455785e-06 -4.1499999113 1.5 -4.4544253797e-06 -4.0999999106 1.4499999993 1.3144558579e-06 
-4.0999999106 1.5 -5.0080766414e-06 -4.0499999098 1.4499999993 1.5006685317e-06 -4.0499999098 1.5 -5.7128677327e-06 
-3.9999999091 1.4499999993 1.7442566786e-06 -3.9999999091 1.5 -6.6327120294e-06 -3.9499999084 1.4499999993 1.8956432086e-06 
[...]
CELL_DATA 9510
FIELD FieldData 4
Water_Depth_m 1 9510 float
0.759997 0.759991 0.759987 0.759983 0.759982 0.759984 0.759988 0.759995 0.760006 
0.760019 0.760036 0.760055 0.760078 0.760104 0.760134 0.760166 0.760201 0.760238 
0.760278 0.760321 0.760366 0.760412 0.760461 0.76051 0.760561 0.760611 0.760662 
0.760713 0.760763 0.760812 0.760859 0.760904 0.760947 0.760987 0.761024 0.761058 
0.761089 0.761116 0.761139 0.761159 0.761175 0.761187 0.761194 0.761198 0.761197 
0.761191 0.761181 0.761166 0.761146 0.761121 0.761091 0.761055 0.761015 0.76097 
0.760921 0.760868 0.760812 0.760753 0.760694 0.760633 0.760573 0.760513 0.760455 
0.760399 0.760346 0.760296 0.760249 0.760207 0.76017 0.760137 0.76011 0.760088 
0.760073 0.760063 0.76006 0.760063 0.760072 0.760087 0.760108 0.760134 0.760163 
0.760197 0.760233 0.760271 0.760311 0.76035 0.76039 0.760428 0.760464 0.760498 
0.76053 0.760559 0.760585 0.760609 0.76063 0.760649 0.760666 0.760681 0.760694 
0.760705 0.760715 0.760724 0.760732 0.760738 0.760742 0.760744 0.760744 0.760742 
0.760736 0.760727 0.760715 0.760698 0.760679 0.760655 0.760629 0.7606 0.760569 
0.760539 0.76051 0.760486 0.760468 0.76046 0.760466 0.76049 0.760534 0.760601 
0.760696 0.760819 0.760976 0.761179 0.761492 0.761442 0.756013 0.742677 0.72319 
0.699226 0.672085 0.642894 0.612712 0.582557 0.553987 0.527871 0.505216 0.487423 
0.476433 0.474656 0.474751 0.474834 0.474909 0.474975 0.475034 0.475087 0.475133 
0.475173 0.475209 0.475241 0.475269 0.475294 0.475316 0.475336 0.475354 0.47537 
0.475384 0.475397 0.475408 0.475416 0.475424 0.475428 0.475408 0.475405 0.475299 
0.47378 0.473243 0.473691 0.473442 0.472718 0.475778 0.480781 0.485273 0.488092 
0.490617 0.492997 0.495365 0.496938 0.496949 0.495772 0.495411 0.496671 0.500777 
0.502613 0.507256 0.513068 0.51329 0.510655 0.500303 0.495134 0.486376 0.483122 
0.485242 0.486661 0.489796 0.49064 0.490721 0.490822 0.490926 0.490891 0.48896 
0.477182 0.476977 0.476888 0.476884 0.476901 0.476922 0.476945 0.476968 0.476989 
0.477009 0.477027 0.477043 0.477059 0.477072 0.477085 0.477096 0.477107 0.477116 
0.477124 0.477132 0.477139 0.477145 0.477151 0.477156 0.477161 0.477165 0.477169 
0.477172 0.477176 0.477179 0.477181 0.477184 0.477186 0.477188 0.47719 0.477192 
0.477194 0.477195 0.477197 0.477198 0.4772 0.477201 0.477202 0.477203 0.477204 
0.477205 0.477206 0.477207 0.477208 0.477209 0.477209 0.47721 0.477211 0.477212 
0.477212 0.477213 0.477214 0.477214 0.477215 0.477216 0.477217 0.477217 0.477218 
0.477219 0.477219 0.47722 0.47722 0.477221 0.477222 0.477222 0.477223 0.477224 
0.477224 0.477225 0.477226 0.477226 0.477227 0.477228 0.477228 0.477229 0.47723 
0.477231 0.477231 0.477232 0.477223 0.477216 0.475837 0.471713 0.759996 0.75999 
0.759985 0.759981 0.75998 0.759981 0.759985 0.759992 0.760002 0.760015 0.760032 
0.760051 0.760074 0.7601 0.760129 0.760161 0.760196 0.760234 0.760274 0.760317 
0.760362 0.760408 0.760457 0.760506 0.760557 0.760608 0.760659 0.76071 0.760761 
0.76081 0.760857 0.760903 0.760946 0.760987 0.761025 0.761059 0.76109 0.761118 
0.761142 0.761162 0.761178 0.76119 0.761198 0.761202 0.761201 0.761195 0.761185 
0.76117 0.76115 0.761124 0.761093 0.761057 0.761016 0.760971 0.760921 0.760867 
0.76081 0.760751 0.760691 0.760629 0.760568 0.760508 0.76045 0.760394 0.76034 
0.76029 0.760244 0.760201 0.760164 0.760131 0.760103 0.760082 0.760066 0.760056 
0.760053 0.760056 0.760065 0.760081 0.760102 0.760128 0.760158 0.760193 0.76023 
0.760269 0.760309 0.760349 0.760389 0.760428 0.760464 0.760499 0.760531 0.76056 
0.760587 0.76061 0.760631 0.76065 0.760666 0.760681 0.760694 0.760705 0.760715 
0.760724 0.760732 0.760738 0.760742 0.760745 0.760745 0.760743 0.760737 0.760728 
0.760716 0.760699 0.760679 0.760655 0.760627 0.760596 0.760564 0.760531 0.7605 
0.760473 0.760451 0.76044 0.760442 0.760461 0.760501 0.760563 0.760651 0.760765 
0.760904 0.761047 0.761192 0.761215 0.756359 0.743723 0.724701 0.700853 0.673553 
0.644022 0.613392 0.582709 0.553335 0.526424 0.503394 0.485906 0.476111 0.474685 
0.474771 0.474847 0.474919 0.474984 0.47504 0.47509 0.475135 0.475174 0.475208 
0.475239 0.475266 0.475291 0.475312 0.475332 0.475349 0.475365 0.475379 0.475392 
0.475404 0.475416 0.475428 0.475438 0.475423 0.475479 0.475292 0.470776 0.465568 
0.467923 0.47043 0.475025 0.478908 0.48209 0.486059 0.489181 0.491612 0.494187 
0.496826 0.499655 0.50232 0.505234 0.508855 0.512956 0.520474 0.520645 0.52866 
0.532176 0.530951 0.528711 0.517372 0.509721 0.492004 0.484154 0.487109 0.487669 
0.489946 0.491316 0.49185 0.491908 0.493524 0.494272 0.491707 0.477797 0.476738 
0.476783 0.476821 0.476857 0.47689 0.47692 0.476948 0.476972 0.476994 0.477014 
0.477032 0.477049 0.477063 0.477077 0.477089 0.477099 0.477109 0.477118 0.477126 
0.477133 0.47714 0.477146 0.477151 0.477156 0.477161 0.477165 0.477169 0.477172 
0.477175 0.477178 0.477181 0.477183 0.477185 0.477187 0.477189 0.477191 0.477193 
0.477194 0.477196 0.477197 0.477198 0.4772 0.477201 0.477202 0.477203 0.477204 
0.477205 0.477206 0.477207 0.477207 0.477208 0.477209 0.47721 0.477211 0.477211 
0.477212 0.477213 0.477214 0.477214 0.477215 0.477216 0.477216 0.477217 0.477218 
0.477218 0.477219 0.47722 0.47722 0.477221 0.477222 0.477222 0.477223 0.477224 
0.477224 0.477225 0.477226 0.477226 0.477227 0.477228 0.477229 0.477229 0.47723 
0.477231 0.477221 0.477214 0.475836 0.47171 0.759996 0.759988 0.759982 0.759977 
0.759975 0.759976 0.759979 0.759986 0.759996 0.760009 0.760025 0.760044 0.760067 
0.760093 0.760122 0.760154 0.760189 0.760227 0.760267 0.76031 0.760355 0.760401 
0.76045 0.7605 0.760551 0.760603 0.760655 0.760706 0.760757 0.760807 0.760856 
0.760902 0.760947 0.760988 0.761027 0.761063 0.761095 0.761123 0.761148 0.761169 
0.761186 0.761198 0.761207 0.76121 0.76121 0.761204 0.761194 0.761178 0.761157 
0.761131 0.761099 0.761062 0.76102 0.760973 0.760922 0.760866 0.760808 0.760747 
0.760686 0.760623 0.760562 0.760501 0.760442 0.760385 0.760331 0.76028 0.760234 
0.760191 0.760153 0.760119 0.760092 0.76007 0.760054 0.760044 0.760041 0.760044 
0.760053 0.760069 0.760091 0.760119 0.76015 0.760186 0.760225 0.760265 0.760307 
0.760349 0.76039 0.76043 0.760468 0.760503 0.760535 0.760565 0.760591 0.760615 
0.760636 0.760654 0.76067 0.760684 0.760696 0.760708 0.760718 0.760726 0.760734 
0.760741 0.760746 0.760749 0.76075 0.760749 0.760744 0.760735 0.760723 0.760706 
0.760685 0.760659 0.760629 0.760596 0.760561 0.760524 0.760488 0.760455 0.760429 
0.760412 0.760408 0.760421 0.760455 0.760514 0.760598 0.760711 0.76085 0.760998 
0.761196 0.761173 0.756471 0.744188 0.725503 0.701823 0.674497 0.644778 0.613846 
0.582819 0.553023 0.525758 0.502657 0.485475 0.476067 0.474683 0.474779 0.474862 
0.474934 0.474997 0.475053 0.475101 0.475144 0.475182 0.475216 0.475246 0.475272 
0.475296 0.475317 0.475336 0.475352 0.475368 0.475381 0.475394 0.475406 0.475418 
0.475429 0.475438 0.475413 0.475474 0.475294 0.470124 0.466107 0.468539 0.471173 
0.475991 0.479687 0.482127 0.486186 0.488984 0.490874 0.493597 0.497324 0.501925 
0.507088 0.511697 0.516921 0.520306 0.531639 0.532172 0.531562 0.534296 0.532594 
0.528231 0.519103 0.511126 0.504278 0.491642 0.489184 0.489836 0.491296 0.492062 
0.492603 0.492659 0.494622 0.496013 0.494129 0.477495 0.47675 0.476794 0.47683 
0.476865 0.476897 0.476927 0.476953 0.476977 0.476999 0.477018 0.477036 0.477052 
0.477066 0.477079 0.477091 0.477102 0.477111 0.47712 0.477128 0.477135 0.477141 
0.477147 0.477152 0.477157 0.477162 0.477166 0.477169 0.477173 0.477176 0.477179 
0.477181 0.477184 0.477186 0.477188 0.47719 0.477191 0.477193 0.477195 0.477196 
0.477197 0.477199 0.4772 0.477201 0.477202 0.477203 0.477204 0.477205 0.477206 
0.477207 0.477208 0.477208 0.477209 0.47721 0.477211 0.477212 0.477212 0.477213 
0.477214 0.477214 0.477215 0.477216 0.477216 0.477217 0.477218 0.477219 0.477219 
0.47722 0.477221 0.477221 0.477222 0.477223 0.477223 0.477224 0.477225 0.477225 
0.477226 0.477227 0.477227 0.477228 0.477229 0.477229 0.47723 0.477231 0.477221 
0.477214 0.475836 0.47171 0.759995 0.759985 0.759977 0.759971 0.759968 0.759968 
0.759971 0.759977 0.759987 0.759999 0.760016 0.760035 0.760057 0.760083 0.760112 
0.760144 0.760179 0.760216 0.760257 0.7603 0.760345 0.760392 0.760441 0.760491 
0.760543 0.760595 0.760648 0.7607 0.760752 0.760803 0.760853 0.760901 0.760947 
0.76099 0.76103 0.761067 0.761101 0.761131 0.761156 0.761178 0.761196 0.76121 
0.761219 0.761223 0.761222 0.761217 0.761206 0.76119 0.761168 0.761141 0.761108 
0.76107 0.761025 0.760976 0.760922 0.760865 0.760804 0.760742 0.760678 0.760614 
0.760551 0.760489 0.760429 0.760372 0.760317 0.760266 0.760218 0.760175 0.760136 
0.760102 0.760074 0.760051 0.760035 0.760025 0.760022 0.760025 0.760035 0.760052 
0.760075 0.760104 0.760138 0.760176 0.760217 0.76026 0.760304 0.760348 0.760392 
0.760433 0.760473 0.760509 0.760542 0.760572 0.760599 0.760622 0.760642 0.76066 
0.760675 0.760688 0.7607 0.760711 0.76072 0.760729 0.760738 0.760745 0.760751 
0.760756 0.760758 0.760758 0.760754 0.760746 0.760733 0.760716 0.760693 0.760666 
0.760633 0.760596 0.760556 0.760513 0.76047 0.760429 0.760394 0.760367 0.760354 
0.760359 0.760385 0.760435 0.760514 0.760622 0.760759 0.760904 0.761103 0.761102 
0.756477 0.744375 0.725899 0.702358 0.675053 0.645241 0.614131 0.582907 0.552892 
0.525501 0.502421 0.485383 0.476109 0.474722 0.474813 0.474891 0.47496 0.475019 
0.475072 0.475118 0.475159 0.475195 0.475227 0.475255 0.475281 0.475303 0.475323 
0.475341 0.475357 0.475371 0.475384 0.475396 0.475408 0.475419 0.475432 0.475442 
0.475421 0.475484 0.475306 0.47018 0.46582 0.468264 0.47095 0.476011 0.479659 
0.482079 0.485898 0.488588 0.490574 0.493522 0.497143 0.501519 0.506525 0.510985 
0.516098 0.520809 0.526283 0.526389 0.524799 0.524776 0.521515 0.515293 0.512978 
0.509674 0.507876 0.507167 0.49071 0.492111 0.492568 0.492672 0.493114 0.493133 
0.494805 0.496673 0.494732 0.477834 0.476749 0.476794 0.476834 0.47687 0.476903 
0.476932 0.476958 0.476982 0.477003 0.477023 0.47704 0.477055 0.47707 0.477082 
0.477094 0.477104 0.477113 0.477122 0.477129 0.477136 0.477143 0.477148 0.477154 
0.477158 0.477163 0.477166 0.47717 0.477173 0.477176 0.477179 0.477182 0.477184 
0.477186 0.477188 0.47719 0.477192 0.477193 0.477195 0.477196 0.477197 0.477199 
0.4772 0.477201 0.477202 0.477203 0.477204 0.477205 0.477206 0.477207 0.477208 
0.477208 0.477209 0.47721 0.477211 0.477211 0.477212 0.477213 0.477214 0.477214 
0.477215 0.477216 0.477216 0.477217 0.477218 0.477218 0.477219 0.47722 0.47722 
0.477221 0.477222 0.477222 0.477223 0.477224 0.477224 0.477225 0.477226 0.477226 
0.477227 0.477228 0.477228 0.477229 0.47723 0.477231 0.477221 0.477214 0.475836 
0.47171 0.759993 0.759982 0.759972 0.759965 0.75996 0.759959 0.759961 0.759967 
0.759976 0.759988 0.760004 0.760023 0.760046 0.760071 0.7601 0.760132 0.760167 
0.760204 0.760244 0.760287 0.760333 0.76038 0.760429 0.76048 0.760532 0.760586 
0.760639 0.760693 0.760746 0.760799 0.76085 0.760899 0.760947 0.760992 0.761034 
0.761073 0.761108 0.761139 0.761167 0.76119 0.761209 0.761224 0.761234 0.761238 
0.761238 0.761232 0.761221 0.761205 0.761182 0.761154 0.761119 0.761078 0.761032 
0.76098 0.760923 0.760862 0.760798 0.760733 0.760667 0.760601 0.760536 0.760473 
0.760412 0.760354 0.760298 0.760247 0.760199 0.760154 0.760115 0.76008 0.760051 
0.760027 0.76001 0.76 0.759997 0.76 0.760011 0.760029 0.760054 0.760085 
0.760122 0.760163 0.760207 0.760254 0.760301 0.760348 0.760394 0.760439 0.76048 
0.760518 0.760552 0.760582 0.760609 0.760632 0.760651 0.760668 0.760682 0.760694 
0.760705 0.760715 0.760724 0.760733 0.760742 0.76075 0.760758 0.760764 0.760768 
0.76077 0.760767 0.76076 0.760748 0.76073 0.760706 0.760676 0.76064 0.760597 
0.76055 0.760499 0.760446 0.760395 0.760347 0.760308 0.760282 0.760274 0.760288 
0.760329 0.760398 0.760501 0.760636 0.760786 0.760995 0.761006 0.756423 0.744419 
0.726066 0.702623 0.675353 0.645507 0.61431 0.582988 0.55287 0.525439 0.502388 
0.485409 0.476164 0.474771 0.474856 0.474929 0.474993 0.475048 0.475096 0.475139 
0.475177 0.475211 0.475241 0.475268 0.475292 0.475313 0.475332 0.475348 0.475363 
0.475376 0.475388 0.475399 0.475409 0.47542 0.475431 0.475442 0.475428 0.475507 
0.47533 0.470206 0.464588 0.466592 0.468585 0.472813 0.475335 0.47736 0.47947 
0.481701 0.484292 0.487394 0.489785 0.492276 0.495678 0.498919 0.502772 0.509833 
0.50987 0.506622 0.507371 0.497928 0.499244 0.501322 0.505295 0.507767 0.508185 
0.507895 0.492246 0.492879 0.493582 0.494147 0.494684 0.494736 0.496508 0.498243 
0.496114 0.477774 0.476763 0.476808 0.476846 0.476881 0.476913 0.476942 0.476967 
0.47699 0.477011 0.477029 0.477046 0.477061 0.477075 0.477087 0.477098 0.477108 
0.477117 0.477125 0.477132 0.477139 0.477145 0.477151 0.477156 0.47716 0.477164 
0.477168 0.477171 0.477174 0.477177 0.47718 0.477182 0.477185 0.477187 0.477189 
0.47719 0.477192 0.477194 0.477195 0.477196 0.477198 0.477199 0.4772 0.477201 
0.477202 0.477203 0.477204 0.477205 0.477206 0.477207 0.477208 0.477208 0.477209 
0.47721 0.477211 0.477212 0.477212 0.477213 0.477214 0.477214 0.477215 0.477216 
0.477216 0.477217 0.477218 0.477218 0.477219 0.47722 0.47722 0.477221 0.477222 
0.477222 0.477223 0.477224 0.477224 0.477225 0.477226 0.477226 0.477227 0.477228 
0.477228 0.477229 0.47723 0.477231 0.477221 0.477214 0.475836 0.47171 0.759992 
0.759978 0.759966 0.759957 0.759951 0.759949 0.75995 0.759955 0.759964 0.759976 
0.759991 0.76001 0.760033 0.760058 0.760087 0.760118 0.760153 0.760191 0.760231 
0.760274 0.760319 0.760367 0.760417 0.760468 0.760521 0.760575 0.76063 0.760685 
0.760739 0.760793 0.760846 0.760898 0.760947 0.760994 0.761038 0.761078 0.761116 
0.761149 0.761178 0.761203 0.761224 0.761239 0.76125 0.761255 0.761256 0.76125 
0.761239 0.761222 0.761198 0.761168 0.761131 0.761088 0.761038 0.760983 0.760922 
0.760858 0.760791 0.760722 0.760653 0.760584 0.760517 0.760453 0.760391 0.760332 
0.760276 0.760224 0.760175 0.76013 0.760089 0.760053 0.760023 0.759999 0.759981 
0.75997 0.759966 0.75997 0.759982 0.760002 0.760029 0.760063 0.760103 0.760147 
0.760196 0.760246 0.760298 0.760349 0.760399 0.760446 0.76049 0.760529 0.760565 
0.760596 0.760622 0.760644 0.760663 0.760678 0.760691 0.760701 0.760711 0.76072 
0.760728 0.760737 0.760747 0.760756 0.760766 0.760774 0.760781 0.760785 0.760784 
0.760779 0.760767 0.760749 0.760724 0.76069 0.760649 0.760601 0.760545 0.760483 
0.760418 0.760352 0.760289 0.760233 0.76019 0.760166 0.760165 0.760191 0.760248 
0.760343 0.760475 0.760628 0.760847 0.760876 0.756326 0.74438 0.726105 0.702732 
0.675503 0.645658 0.614434 0.583076 0.552914 0.525472 0.502439 0.48548 0.476236 
0.474834 0.474911 0.474976 0.475033 0.475082 0.475126 0.475165 0.475199 0.47523 
0.475258 0.475283 0.475305 0.475325 0.475342 0.475358 0.475371 0.475383 0.475393 
0.475402 0.475411 0.475419 0.475427 0.475437 0.475432 0.4755 0.475363 0.472251 
0.467708 0.46818 0.468584 0.468597 0.467781 0.466957 0.469167 0.471037 0.472314 
0.475764 0.477198 0.477509 0.479141 0.481802 0.48363 0.484452 0.485342 0.488399 
0.489046 0.49072 0.494214 0.498211 0.500874 0.504484 0.505116 0.507361 0.493097 
0.49323 0.494852 0.495571 0.495156 0.494828 0.497761 0.499732 0.497555 0.477944 
0.47678 0.476823 0.476861 0.476895 0.476926 0.476954 0.476978 0.477 0.47702 
0.477038 0.477054 0.477068 0.477081 0.477093 0.477103 0.477113 0.477121 0.477129 
0.477136 0.477142 0.477148 0.477153 0.477158 0.477162 0.477166 0.47717 0.477173 
0.477176 0.477179 0.477181 0.477183 0.477186 0.477188 0.477189 0.477191 0.477193 
0.477194 0.477196 0.477197 0.477198 0.477199 0.4772 0.477201 0.477203 0.477203 
0.477204 0.477205 0.477206 0.477207 0.477208 0.477209 0.477209 0.47721 0.477211 
0.477212 0.477212 0.477213 0.477214 0.477214 0.477215 0.477216 0.477216 0.477217 
0.477218 0.477218 0.477219 0.47722 0.47722 0.477221 0.477222 0.477222 0.477223 
0.477224 0.477224 0.477225 0.477226 0.477226 0.477227 0.477228 0.477228 0.477229 
0.47723 0.477231 0.477221 0.477214 0.475836 0.47171 0.75999 0.759973 0.759958 
0.759947 0.75994 0.759937 0.759937 0.759942 0.75995 0.759962 0.759978 0.759997 
0.760019 0.760044 0.760073 0.760104 0.760139 0.760176 0.760217 0.76026 0.760305 
0.760353 0.760403 0.760455 0.760509 0.760563 0.760619 0.760675 0.760732 0.760787 
0.760842 0.760895 0.760947 0.760996 0.761042 0.761084 0.761123 0.761158 0.761189 
0.761216 0.761238 0.761255 0.761267 0.761273 0.761274 0.761268 0.761257 0.761239 
0.761215 0.761183 0.761144 0.761098 0.761045 0.760985 0.760921 0.760852 0.760781 
0.760708 0.760636 0.760565 0.760497 0.760431 0.760369 0.760309 0.760253 0.7602 
0.76015 0.760104 0.760062 0.760025 0.759993 0.759967 0.759948 0.759937 0.759933 
0.759937 0.75995 0.759972 0.760002 0.760039 0.760082 0.760131 0.760183 0.760239 
0.760295 0.760351 0.760404 0.760455 0.760502 0.760544 0.760581 0.760612 0.760638 
0.76066 0.760677 0.760691 0.760702 0.76071 0.760718 0.760725 0.760732 0.760741 
0.760751 0.760762 0.760774 0.760786 0.760796 0.760802 0.760805 0.760801 0.76079 
0.760772 0.760746 0.760709 0.760663 0.760606 0.76054 0.760466 0.760385 0.760302 
0.760219 0.760142 0.760079 0.760035 0.760017 0.760029 0.760074 0.760162 0.76029 
0.760444 0.760671 0.760718 0.756198 0.744293 0.726074 0.702757 0.675572 0.645751 
0.614536 0.583179 0.553004 0.52556 0.502532 0.485575 0.476321 0.474908 0.474974 
0.47503 0.475079 0.475121 0.475159 0.475194 0.475225 0.475253 0.475278 0.4753 
0.475321 0.475339 0.475355 0.475368 0.47538 0.475391 0.475399 0.475406 0.475412 
0.475417 0.47542 0.475423 0.475424 0.475444 0.477394 0.479352 0.47883 0.47572 
0.477237 0.477098 0.47547 0.475796 0.478141 0.47976 0.480895 0.480849 0.480686 
0.482048 0.482356 0.483949 0.48586 0.485908 0.486937 0.488158 0.490203 0.490578 
0.490454 0.492769 0.494538 0.496261 0.500309 0.503886 0.493216 0.493782 0.495866 
0.496571 0.496076 0.495658 0.498104 0.500569 0.498731 0.478061 0.476801 0.476843 
0.47688 0.476913 0.476942 0.476968 0.476992 0.477013 0.477031 0.477048 0.477063 
0.477077 0.477089 0.4771 0.477109 0.477118 0.477126 0.477133 0.47714 0.477146 
0.477151 0.477156 0.47716 0.477165 0.477168 0.477172 0.477175 0.477177 0.47718 
0.477182 0.477185 0.477187 0.477188 0.47719 0.477192 0.477193 0.477195 0.477196 
0.477197 0.477199 0.4772 0.477201 0.477202 0.477203 0.477204 0.477205 0.477206 
0.477206 0.477207 0.477208 0.477209 0.47721 0.47721 0.477211 0.477212 0.477212 
0.477213 0.477214 0.477214 0.477215 0.477216 0.477217 0.477217 0.477218 0.477219 
0.477219 0.47722 0.477221 0.477221 0.477222 0.477223 0.477223 0.477224 0.477224 
0.477225 0.477226 0.477226 0.477227 0.477228 0.477228 0.477229 0.47723 0.477231 
0.477221 0.477214 0.475836 0.47171 0.759988 0.759967 0.75995 0.759937 0.759929 
0.759924 0.759924 0.759929 0.759937 0.759949 0.759964 0.759983 0.760006 0.760031 
0.760059 0.760091 0.760125 0.760163 0.760203 0.760246 0.760291 0.760339 0.76039 
0.760442 0.760496 0.760552 0.760609 0.760666 0.760723 0.760781 0.760837 0.760892 
0.760945 0.760996 0.761044 0.761089 0.76113 0.761167 0.7612 0.761228 0.761251 
0.761269 0.761282 0.761289 0.76129 0.761286 0.761274 0.761256 0.76123 0.761197 
0.761156 0.761106 0.76105 0.760987 0.760918 0.760845 0.76077 0.760694 0.760619 
0.760547 0.760477 0.760411 0.760348 0.760288 0.760232 0.760178 0.760127 0.76008 
0.760036 0.759997 0.759964 0.759937 0.759917 0.759904 0.7599 0.759905 0.75992 
0.759943 0.759975 0.760015 0.760062 0.760114 0.760172 0.760232 0.760293 0.760353 
0.760411 0.760466 0.760516 0.76056 0.760598 0.760631 0.760657 0.760677 0.760693 
0.760705 0.760714 0.76072 0.760725 0.760731 0.760737 0.760745 0.760755 0.760768 
0.760782 0.760797 0.760811 0.760821 0.760827 0.760826 0.760817 0.7608 0.760771 
0.760732 0.76068 0.760615 0.760537 0.760449 0.760351 0.760247 0.760142 0.760043 
0.759957 0.759894 0.759862 0.759866 0.759909 0.759997 0.760123 0.760276 0.760507 
0.760568 0.756068 0.744195 0.726014 0.702745 0.675605 0.645822 0.614637 0.583301 
0.55313 0.525685 0.502654 0.485687 0.47642 0.474992 0.475045 0.47509 0.475129 