# vtk DataFile Version 5.1
vtk output
ASCII
DATASET UNSTRUCTURED_GRID
POINTS 10043 double
-10.1 1.4499999993 0 -10.049999999 1.4499999993 0 -10.049999999 1.5 0 
-9.9999999985 1.4499999993 0 -9.9999999985 1.5 0 -9.9499999978 1.4499999993 0 
-9.9499999978 1.5 0 -9.899999997 1.4499999993 0 -9.899999997 1.5 0 
-9.8499999963 1.4499999993 0 -9.8499999963 1.5 0 -9.7999999955 1.4499999993 0 
-9.7999999955 1.5 0 -9.7499999948 1.4499999993 0 -9.7499999948 1.5 0 
-9.699999994 1.4499999993 0 -9.699999994 1.5 0 -9.6499999933 1.4499999993 0 
-9.6499999933 1.5 0 -9.5999999925 1.4499999993 0 -9.5999999925 1.5 0 
-9.5499999918 1.4499999993 0 -9.5499999918 1.5 0 -9.4999999911 1.4499999993 0 
-9.4999999911 1.5 0 -9.4499999903 1.4499999993 0 -9.4499999903 1.5 0 
-9.3999999896 1.4499999993 0 -9.3999999896 1.5 0 -9.3499999888 1.4499999993 0 
-9.3499999888 1.5 0 -9.2999999881 1.4499999993 0 -9.2999999881 1.5 0 
-9.2499999873 1.4499999993 0 -9.2499999873 1.5 0 -9.1999999866 1.4499999993 0 
-9.1999999866 1.5 0 -9.1499999858 1.4499999993 0 -9.1499999858 1.5 0 
-9.0999999851 1.4499999993 0 -9.0999999851 1.5 0 -9.0499999844 1.4499999993 0 
-9.0499999844 1.5 0 -8.9999999836 1.4499999993 0 -8.9999999836 1.5 0 
-8.9499999829 1.4499999993 0 -8.9499999829 1.5 0 -8.8999999821 1.4499999993 0 
-8.8999999821 1.5 0 -8.8499999814 1.4499999993 0 -8.8499999814 1.5 0 
-8.7999999806 1.4499999993 0 -8.7999999806 1.5 0 -8.7499999799 1.4499999993 0 
-8.7499999799 1.5 0 -8.6999999791 1.4499999993 0 -8.6999999791 1.5 0 
-8.6499999784 1.4499999993 0 -8.6499999784 1.5 0 -8.5999999776 1.4499999993 0 
-8.5999999776 1.5 0 -8.5499999769 1.4499999993 0 -8.5499999769 1.5 0 
-8.4999999762 1.4499999993 0 -8.4999999762 1.5 0 -8.4499999754 1.4499999993 0 
-8.4499999754 1.5 0 -8.3999999747 1.4499999993 0 -8.3999999747 1.5 0 
-8.3499999739 1.4499999993 0 -8.3499999739 1.5 0 -8.2999999732 1.4499999993 0 
-8.2999999732 1.5 0 -8.2499999724 1.4499999993 0 -8.2499999724 1.5 0 
-8.1999999717 1.4499999993 0 -8.1999999717 1.5 0 -8.1499999709 1.4499999993 0 
-8.1499999709 1.5 0 -8.0999999702 1.4499999993 0 -8.0999999702 1.5 0 
-8.0499999695 1.4499999993 0 -8.0499999695 1.5 0 -7.9999999687 1.4499999993 0 
-7.9999999687 1.5 0 -7.949999968 1.4499999993 0 -7.949999968 1.5 0 
-7.8999999672 1.4499999993 0 -7.8999999672 1.5 0 -7.8499999665 1.4499999993 0 
-7.8499999665 1.5 0 -7.7999999657 1.4499999993 0 -7.7999999657 1.5 0 
-7.749999965 1.4499999993 0 -7.749999965 1.5 0 -7.6999999642 1.4499999993 0 
-7.6999999642 1.5 0 -7.6499999635 1.4499999993 0 -7.6499999635 1.5 0 
-7.5999999627 1.4499999993 0 -7.5999999627 1.5 0 -7.549999962 1.4499999993 0 
-7.549999962 1.5 0 -7.4999999613 1.4499999993 0 -7.4999999613 1.5 0 
-7.4499999605 1.4499999993 0 -7.4499999605 1.5 0 -7.3999999598 1.4499999993 0 
-7.3999999598 1.5 0 -7.349999959 1.4499999993 0 -7.349999959 1.5 0 
-7.2999999583 1.4499999993 0 -7.2999999583 1.5 0 -7.2499999575 1.4499999993 0 
-7.2499999575 1.5 0 -7.1999999568 1.4499999993 0 -7.1999999568 1.5 0 
-7.149999956 1.4499999993 0 -7.149999956 1.5 0 -7.0999999553 1.4499999993 0 
-7.0999999553 1.5 0 -7.0499999546 1.4499999993 0 -7.0499999546 1.5 0 
-6.9999999538 1.4499999993 0 -6.9999999538 1.5 0 -6.9499999531 1.4499999993 0 
-6.9499999531 1.5 0 -6.8999999523 1.4499999993 0 -6.8999999523 1.5 0 
-6.8499999516 1.4499999993 0 -6.8499999516 1.5 0 -6.7999999508 1.4499999993 0 
-6.7999999508 1.5 0 -6.7499999501 1.4499999993 0 -6.7499999501 1.5 0 
-6.6999999493 1.4499999993 0 -6.6999999493 1.5 0 -6.6499999486 1.4499999993 0 
-6.6499999486 1.5 0 -6.5999999478 1.4499999993 0 -6.5999999478 1.5 0 
-6.5499999471 1.4499999993 0 -6.5499999471 1.5 0 -6.4999999464 1.4499999993 0 
-6.4999999464 1.5 0 -6.4499999456 1.4499999993 0 -6.4499999456 1.5 0 
-6.3999999449 1.4499999993 0 -6.3999999449 1.5 0 -6.3499999441 1.4499999993 0 
-6.3499999441 1.5 0 -6.2999999434 1.4499999993 0 -6.2999999434 1.5 0 
-6.2499999426 1.4499999993 0 -6.2499999426 1.5 0 -6.1999999419 1.4499999993 0 
-6.1999999419 1.5 0 -6.1499999411 1.4499999993 0 -6.1499999411 1.5 0 
-6.0999999404 1.4499999993 0 -6.0999999404 1.5 0 -6.0499999397 1.4499999993 0 
-6.0499999397 1.5 0 -5.9999999389 1.4499999993 0 -5.9999999389 1.5 0 
-5.9499999382 1.4499999993 0 -5.9499999382 1.5 0 -5.8999999374 1.4499999993 0 
-5.8999999374 1.5 0 -5.8499999367 1.4499999993 0 -5.8499999367 1.5 0 
-5.7999999359 1.4499999993 0 -5.7999999359 1.5 0 -5.7499999352 1.4499999993 0 
-5.7499999352 1.5 0 -5.6999999344 1.4499999993 0 -5.6999999344 1.5 0 
-5.6499999337 1.4499999993 0 -5.6499999337 1.5 0 -5.5999999329 1.4499999993 0 
-5.5999999329 1.5 0 -5.5499999322 1.4499999993 0 -5.5499999322 1.5 0 
-5.4999999315 1.4499999993 0 -5.4999999315 1.5 0 -5.4499999307 1.4499999993 0 
-5.4499999307 1.5 0 -5.39999993 1.4499999993 0 -5.39999993 1.5 0 
-5.3499999292 1.4499999993 0 -5.3499999292 1.5 0 -5.2999999285 1.4499999993 0 
-5.2999999285 1.5 0 -5.2499999277 1.4499999993 0 -5.2499999277 1.5 0 
-5.199999927 1.4499999993 0 -5.199999927 1.5 0 -5.1499999262 1.4499999993 0 
-5.1499999262 1.5 0 -5.0999999255 1.4499999993 0 -5.0999999255 1.5 0 
-5.0499999247 1.4499999993 0 -5.0499999247 1.5 0 -4.999999924 1.4499999993 0 
-4.999999924 1.5 0 -4.9499999233 1.4499999993 0 -4.9499999233 1.5 0 
-4.8999999225 1.4499999993 0 -4.8999999225 1.5 0 -4.8499999218 1.4499999993 0 
-4.8499999218 1.5 0 -4.799999921 1.4499999993 0 -4.799999921 1.5 0 
-4.7499999203 1.4499999993 0 -4.7499999203 1.5 0 -4.6999999195 1.4499999993 0 
-4.6999999195 1.5 0 -4.6499999188 1.4499999993 0 -4.6499999188 1.5 0 
-4.599999918 1.4499999993 0 -4.599999918 1.5 0 -4.5499999173 1.4499999993 0 
-4.5499999173 1.5 0 -4.4999999166 1.4499999993 0 -4.4999999166 1.5 0 
-4.4499999158 1.4499999993 0 -4.4499999158 1.5 0 -4.3999999151 1.4499999993 0 
-4.3999999151 1.5 0 -4.3499999143 1.4499999993 0 -4.3499999143 1.5 0 
-4.2999999136 1.4499999993 0 -4.2999999136 1.5 0 -4.2499999128 1.4499999993 0 
-4.2499999128 1.5 0 -4.1999999121 1.4499999993 0 -4.1999999121 1.5 0 
-4.1499999113 1.4499999993 0 -4.1499999113 1.5 0 -4.0999999106 1.4499999993 0 
-4.0999999106 1.5 0 -4.0499999098 1.4499999993 0 -4.0499999098 1.5 0 
-3.9999999091 1.4499999993 0 -3.9999999091 1.5 0 -3.9499999084 1.4499999993 0 
-3.9499999084 1.5 0 -3.8999999076 1.4499999993 0 -3.8999999076 1.5 0 
-3.8499999069 1.4499999993 0 -3.8499999069 1.5 0 -3.7999999061 1.4499999993 0 
-3.7999999061 1.5 0 -3.7499999054 1.4499999993 0 -3.7499999054 1.5 0 
-3.6999999046 1.4499999993 0 -3.6999999046 1.5 0 -3.6499999039 1.4499999993 0 
-3.6499999039 1.5 0 -3.5999999031 1.4499999993 0 -3.5999999031 1.5 0 
-3.5499999024 1.4499999993 0 -3.5499999024 1.5 0 -3.4999999017 1.4499999993 0 
-3.4999999017 1.5 0 -3.4499999009 1.4499999993 0 -3.4499999009 1.5 0 
-3.3999999002 1.4499999993 0 -3.3999999002 1.5 0 -3.3499998994 1.4499999993 0 
-3.3499998994 1.5 0 -3.2999998987 1.4499999993 0 -3.2999998987 1.5 0 
-3.2499998979 1.4499999993 0 -3.2499998979 1.5 0 -3.1999998972 1.4499999993 0 
-3.1999998972 1.5 0 -3.1499998964 1.4499999993 0 -3.1499998964 1.5 0 
-3.0999998957 1.4499999993 0 -3.0999998957 1.5 0 -3.0499998949 1.4499999993 0 
-3.0499998949 1.5 0 -2.9999998942 1.4499999993 0 -2.9999998942 1.5 0 
-2.9499998935 1.4499999993 0 -2.9499998935 1.5 0 -2.8999998927 1.4499999993 0 
-2.8999998927 1.5 0 -2.849999892 1.4499999993 0 -2.849999892 1.5 0 
-2.7999998912 1.4499999993 0 -2.7999998912 1.5 0 -2.7499998905 1.4499999993 0 
-2.7499998905 1.5 0 -2.6999998897 1.4499999993 0 -2.6999998897 1.5 0 
-2.649999889 1.4499999993 0 -2.649999889 1.5 0 -2.5999998882 1.4499999993 0 
-2.5999998882 1.5 0 -2.5499998875 1.4499999993 0 -2.5499998875 1.5 0 
-2.4999998868 1.4499999993 0 -2.4999998868 1.5 0 -2.449999886 1.4499999993 0 
-2.449999886 1.5 0 -2.3999998853 1.4499999993 0 -2.3999998853 1.5 0 
-2.3499998845 1.4499999993 0 -2.3499998845 1.5 0 -2.2999998838 1.4499999993 0 
-2.2999998838 1.5 0 -2.249999883 1.4499999993 0 -2.249999883 1.5 0 
-2.1999998823 1.4499999993 0 -2.1999998823 1.5 0 -2.1499998815 1.4499999993 0 
-2.1499998815 1.5 0 -2.0999998808 1.4499999993 0 -2.0999998808 1.5 0 
-2.04999988 1.4499999993 0 -2.04999988 1.5 0 -1.9999998793 1.4499999993 0 
-1.9999998793 1.5 0 -1.9499998786 1.4499999993 0 -1.9499998786 1.5 0 
-1.8999998778 1.4499999993 0 -1.8999998778 1.5 0 -1.8499998771 1.4499999993 0 
-1.8499998771 1.5 0 -1.7999998763 1.4499999993 0 -1.7999998763 1.5 0 
-1.7499998756 1.4499999993 0 -1.7499998756 1.5 0 -1.6999998748 1.4499999993 0 
-1.6999998748 1.5 0 -1.6499998741 1.4499999993 0 -1.6499998741 1.5 0 
-1.5999998733 1.4499999993 0 -1.5999998733 1.5 0 -1.5499998726 1.4499999993 0 
-1.5499998726 1.5 0 -1.4999998718 1.4499999993 0 -1.4999998718 1.5 0 
-1.4499998711 1.4499999993 0 -1.4499998711 1.5 0 -1.3999998704 1.4499999993 0 
-1.3999998704 1.5 0 -1.3499998696 1.4499999993 0 -1.3499998696 1.5 0 
-1.2999998689 1.4499999993 0 -1.2999998689 1.5 0 -1.2499998681 1.4499999993 0 
-1.2499998681 1.5 0 -1.1999998674 1.4499999993 0 -1.1999998674 1.5 0 
-1.1499998666 1.4499999993 0 -1.1499998666 1.5 0 -1.0999998659 1.4499999993 0 
-1.0999998659 1.5 0 -1.0499998651 1.4499999993 0 -1.0499998651 1.5 0 
-0.9999998644 1.4499999993 0 -0.9999998644 1.5 0 -0.94999986365 1.4499999993 0 
-0.94999986365 1.5 0 -0.89999986291 1.4499999993 0 -0.89999986291 1.5 0 
-0.84999986216 1.4499999993 0 -0.84999986216 1.5 0 -0.79999986142 1.4499999993 0 
-0.79999986142 1.5 0 -0.74999986067 1.4499999993 0 -0.74999986067 1.5 0 
-0.69999985993 1.4499999993 0 -0.69999985993 1.5 0 -0.64999985918 1.4499999993 0 
-0.64999985918 1.5 0 -0.59999985844 1.4499999993 0 -0.59999985844 1.5 0 
-0.54999985769 1.4499999993 0 -0.54999985769 1.5 0 -0.49999985695 1.4499999993 0 
-0.49999985695 1.5 0 -0.4499998562 1.4499999993 0 -0.4499998562 1.5 0 
-0.39999985546 1.4499999993 0 -0.39999985546 1.5 0 -0.34999985471 1.4499999993 0 
-0.34999985471 1.5 0 -0.29999985397 1.4499999993 0 -0.29999985397 1.5 0 
-0.24999985322 1.4499999993 0 -0.24999985322 1.5 0 -0.191663057 1.4499999993 0 
-0.17548248559 1.5 0 0.18862900414 1.4499999993 0 0.25000015423 1.4499999993 0 
[...]
CELL_DATA 9510
FIELD FieldData 4
Water_Depth_m 1 9510 float
0.480003 0.480008 0.480014 0.480019 0.480024 0.48003 0.480035 0.48004 0.480045 
0.480049 0.480054 0.480058 0.480061 0.480065 0.480068 0.48007 0.480072 0.480073 
0.480073 0.480073 0.480072 0.48007 0.480066 0.480062 0.480057 0.480051 0.480044 
0.480035 0.480025 0.480014 0.480002 0.479988 0.479974 0.479958 0.47994 0.479922 
0.479903 0.479883 0.479863 0.479841 0.47982 0.479799 0.479778 0.479757 0.479738 
0.47972 0.479704 0.479689 0.479677 0.479668 0.479661 0.479658 0.479658 0.479662 
0.479668 0.479678 0.479692 0.479708 0.479727 0.479748 0.479772 0.479797 0.479823 
0.479851 0.479879 0.479907 0.479935 0.479963 0.47999 0.480016 0.480042 0.480066 
0.480089 0.480111 0.480133 0.480154 0.480176 0.480197 0.48022 0.480245 0.480272 
0.480302 0.480336 0.480375 0.480418 0.480467 0.480523 0.480583 0.48065 0.480722 
0.480799 0.48088 0.480964 0.48105 0.481137 0.481224 0.481309 0.481392 0.481472 
0.481548 0.481618 0.481684 0.481743 0.481796 0.481843 0.481882 0.481915 0.481941 
0.48196 0.481972 0.481977 0.481976 0.481968 0.481953 0.481933 0.481907 0.481874 
0.481836 0.481794 0.481746 0.481694 0.48164 0.481582 0.481523 0.481464 0.481405 
0.481349 0.481297 0.48125 0.481209 0.481175 0.481149 0.481131 0.481122 0.481121 
0.481127 0.48114 0.481159 0.481182 0.481208 0.481236 0.481264 0.481291 0.481317 
0.481341 0.481361 0.481379 0.481394 0.481406 0.481415 0.481422 0.481427 0.481431 
0.481434 0.481438 0.481442 0.481447 0.481453 0.481461 0.481471 0.481483 0.481496 
0.481512 0.481528 0.481546 0.481564 0.481583 0.481602 0.481621 0.48164 0.48166 
0.481679 0.481699 0.481719 0.481739 0.481761 0.481784 0.481808 0.481835 0.481865 
0.481898 0.481936 0.481979 0.482028 0.482083 0.482146 0.482218 0.482299 0.482392 
0.482495 0.482612 0.482741 0.482884 0.483041 0.483213 0.483396 0.483601 0.483843 
0.485802 0.48602 0.4862 0.486367 0.486521 0.486662 0.48679 0.486906 0.487011 
0.487106 0.487192 0.487269 0.487338 0.4874 0.487456 0.487507 0.487552 0.487593 
0.48763 0.487663 0.487693 0.487721 0.487746 0.487768 0.487789 0.487808 0.487825 
0.487841 0.487855 0.487868 0.487881 0.487892 0.487902 0.487912 0.487921 0.487929 
0.487937 0.487945 0.487952 0.487958 0.487964 0.48797 0.487975 0.487981 0.487985 
0.48799 0.487995 0.487999 0.488003 0.488007 0.488011 0.488014 0.488018 0.488021 
0.488025 0.488028 0.488031 0.488034 0.488037 0.48804 0.488042 0.488045 0.488048 
0.48805 0.488053 0.488055 0.488058 0.48806 0.488062 0.488064 0.488067 0.488069 
0.488071 0.488073 0.488075 0.488077 0.488079 0.488081 0.488083 0.488084 0.488086 
0.488088 0.48809 0.488091 0.488093 0.488095 0.488096 0.488098 0.488099 0.488101 
0.488102 0.488103 0.488105 0.488097 0.48809 0.486829 0.482659 0.480003 0.480008 
0.480014 0.480019 0.480025 0.48003 0.480035 0.48004 0.480045 0.48005 0.480054 
0.480058 0.480062 0.480065 0.480068 0.48007 0.480072 0.480073 0.480074 0.480074 
0.480072 0.48007 0.480067 0.480063 0.480058 0.480052 0.480045 0.480036 0.480026 
0.480015 0.480003 0.479989 0.479974 0.479958 0.479941 0.479923 0.479903 0.479883 
0.479862 0.479841 0.479819 0.479798 0.479776 0.479756 0.479736 0.479718 0.479701 
0.479686 0.479674 0.479665 0.479658 0.479655 0.479655 0.479658 0.479665 0.479675 
0.479689 0.479705 0.479724 0.479746 0.47977 0.479796 0.479822 0.47985 0.479879 
0.479907 0.479936 0.479964 0.479991 0.480017 0.480043 0.480067 0.48009 0.480112 
0.480133 0.480154 0.480175 0.480196 0.480218 0.480242 0.480269 0.480298 0.480331 
0.480369 0.480413 0.480462 0.480516 0.480577 0.480644 0.480717 0.480794 0.480875 
0.48096 0.481047 0.481134 0.481222 0.481308 0.481392 0.481473 0.481549 0.481621 
0.481687 0.481747 0.4818 0.481847 0.481887 0.48192 0.481947 0.481966 0.481978 
0.481983 0.481982 0.481974 0.48196 0.481939 0.481912 0.481879 0.481841 0.481797 
0.481749 0.481696 0.48164 0.481582 0.481521 0.481461 0.481401 0.481344 0.481291 
0.481242 0.481201 0.481166 0.48114 0.481123 0.481114 0.481113 0.481121 0.481135 
0.481155 0.481179 0.481206 0.481235 0.481264 0.481293 0.481319 0.481343 0.481364 
0.481382 0.481397 0.481408 0.481417 0.481424 0.481428 0.481431 0.481434 0.481437 
0.481441 0.481445 0.481451 0.481459 0.481469 0.481481 0.481495 0.48151 0.481527 
0.481545 0.481563 0.481582 0.481602 0.481621 0.48164 0.48166 0.481679 0.481698 
0.481718 0.481738 0.481759 0.481782 0.481806 0.481832 0.481861 0.481894 0.481931 
0.481973 0.48202 0.482075 0.482137 0.482208 0.482288 0.482379 0.482482 0.482596 
0.482724 0.482867 0.483023 0.483193 0.483379 0.483582 0.483818 0.485803 0.486023 
0.486205 0.486373 0.486527 0.486668 0.486796 0.486912 0.487017 0.487112 0.487197 
0.487274 0.487343 0.487405 0.48746 0.48751 0.487555 0.487596 0.487633 0.487666 
0.487696 0.487723 0.487748 0.48777 0.48779 0.487809 0.487826 0.487842 0.487856 
0.487869 0.487881 0.487893 0.487903 0.487913 0.487922 0.48793 0.487938 0.487945 
0.487952 0.487958 0.487964 0.48797 0.487976 0.487981 0.487986 0.48799 0.487995 
0.487999 0.488003 0.488007 0.488011 0.488014 0.488018 0.488021 0.488025 0.488028 
0.488031 0.488034 0.488037 0.48804 0.488042 0.488045 0.488048 0.48805 0.488053 
0.488055 0.488058 0.48806 0.488062 0.488064 0.488067 0.488069 0.488071 0.488073 
0.488075 0.488077 0.488079 0.488081 0.488083 0.488084 0.488086 0.488088 0.48809 
0.488091 0.488093 0.488095 0.488096 0.488098 0.488099 0.488101 0.488102 0.488103 
0.488105 0.488097 0.48809 0.486829 0.482659 0.480003 0.480008 0.480014 0.480019 
0.480025 0.48003 0.480035 0.48004 0.480045 0.48005 0.480054 0.480059 0.480063 
0.480066 0.480069 0.480072 0.480074 0.480075 0.480075 0.480075 0.480074 0.480072 
0.480069 0.480065 0.48006 0.480054 0.480047 0.480038 0.480028 0.480017 0.480005 
0.479991 0.479976 0.47996 0.479942 0.479923 0.479904 0.479883 0.479862 0.47984 
0.479818 0.479796 0.479774 0.479752 0.479732 0.479713 0.479696 0.479681 0.479668 
0.479658 0.479651 0.479648 0.479648 0.479651 0.479658 0.479669 0.479683 0.4797 
0.47972 0.479742 0.479767 0.479793 0.479821 0.479849 0.479878 0.479908 0.479937 
0.479965 0.479993 0.480019 0.480045 0.480069 0.480091 0.480113 0.480134 0.480154 
0.480173 0.480193 0.480214 0.480237 0.480262 0.48029 0.480322 0.480359 0.480401 
0.48045 0.480504 0.480565 0.480632 0.480705 0.480783 0.480866 0.480952 0.48104 
0.481129 0.481218 0.481306 0.481392 0.481474 0.481552 0.481625 0.481693 0.481754 
0.481809 0.481857 0.481898 0.481932 0.481958 0.481978 0.481991 0.481996 0.481995 
0.481987 0.481972 0.481951 0.481923 0.481889 0.48185 0.481805 0.481755 0.4817 
0.481642 0.481581 0.481518 0.481455 0.481393 0.481333 0.481278 0.481228 0.481184 
0.481149 0.481122 0.481105 0.481097 0.481098 0.481107 0.481124 0.481146 0.481173 
0.481203 0.481234 0.481266 0.481296 0.481324 0.481349 0.48137 0.481388 0.481403 
0.481414 0.481422 0.481429 0.48143 0.481432 0.481434 0.481436 0.481438 0.481442 
0.481448 0.481456 0.481466 0.481478 0.481492 0.481508 0.481525 0.481543 0.481562 
0.481582 0.481601 0.481621 0.48164 0.48166 0.481679 0.481698 0.481717 0.481736 
0.481757 0.481778 0.481801 0.481827 0.481854 0.481886 0.481921 0.481961 0.482007 
0.482059 0.482119 0.482187 0.482265 0.482354 0.482454 0.482566 0.482692 0.482832 
0.482986 0.483155 0.483342 0.483542 0.483779 0.485805 0.486029 0.486213 0.486383 
0.486539 0.486681 0.486809 0.486926 0.48703 0.487124 0.487209 0.487285 0.487353 
0.487414 0.487469 0.487518 0.487562 0.487602 0.487638 0.487671 0.4877 0.487727 
0.487751 0.487774 0.487794 0.487812 0.487829 0.487844 0.487858 0.487871 0.487883 
0.487894 0.487904 0.487914 0.487923 0.487931 0.487939 0.487946 0.487953 0.487959 
0.487965 0.487971 0.487976 0.487981 0.487986 0.487991 0.487995 0.487999 0.488003 
0.488007 0.488011 0.488015 0.488018 0.488021 0.488025 0.488028 0.488031 0.488034 
0.488037 0.48804 0.488042 0.488045 0.488048 0.48805 0.488053 0.488055 0.488058 
0.48806 0.488062 0.488064 0.488067 0.488069 0.488071 0.488073 0.488075 0.488077 
0.488079 0.488081 0.488083 0.488084 0.488086 0.488088 0.48809 0.488091 0.488093 
0.488095 0.488096 0.488098 0.488099 0.488101 0.488102 0.488103 0.488105 0.488097 
0.48809 0.486829 0.482659 0.480003 0.480008 0.480014 0.48002 0.480025 0.48003 
0.480036 0.480041 0.480046 0.480051 0.480055 0.48006 0.480064 0.480067 0.480071 
0.480073 0.480075 0.480077 0.480078 0.480078 0.480077 0.480075 0.480072 0.480068 
0.480063 0.480057 0.48005 0.480041 0.480031 0.48002 0.480007 0.479993 0.479978 
0.479961 0.479944 0.479924 0.479904 0.479883 0.479861 0.479838 0.479815 0.479792 
0.479769 0.479747 0.479726 0.479706 0.479688 0.479672 0.479658 0.479648 0.479641 
0.479637 0.479637 0.479641 0.479648 0.479659 0.479674 0.479692 0.479712 0.479736 
0.479761 0.479789 0.479818 0.479848 0.479878 0.479908 0.479938 0.479967 0.479995 
0.480022 0.480048 0.480072 0.480094 0.480115 0.480134 0.480153 0.480171 0.48019 
0.480209 0.480229 0.480252 0.480278 0.480308 0.480343 0.480384 0.480431 0.480485 
0.480546 0.480614 0.480688 0.480767 0.480851 0.480939 0.48103 0.481121 0.481213 
0.481303 0.481391 0.481476 0.481556 0.481632 0.481701 0.481765 0.481821 0.481871 
0.481913 0.481948 0.481976 0.481997 0.48201 0.482015 0.482014 0.482006 0.48199 
0.481968 0.481939 0.481904 0.481863 0.481816 0.481763 0.481706 0.481644 0.48158 
0.481513 0.481446 0.48138 0.481317 0.481257 0.481204 0.481159 0.481122 0.481095 
0.481078 0.481072 0.481075 0.481087 0.481107 0.481133 0.481164 0.481198 0.481233 
0.481268 0.481301 0.481331 0.481357 0.48138 0.481398 0.481412 0.481421 0.481427 
0.481429 0.481433 0.481433 0.481433 0.481433 0.481435 0.481437 0.481442 0.48145 
0.48146 0.481472 0.481487 0.481503 0.481522 0.481541 0.481561 0.481581 0.481601 
0.481621 0.48164 0.48166 0.481678 0.481697 0.481715 0.481734 0.481753 0.481773 
0.481795 0.481818 0.481844 0.481873 0.481906 0.481944 0.481986 0.482036 0.482092 
0.482157 0.482232 0.482316 0.482412 0.482521 0.482643 0.482779 0.48293 0.483098 
0.483283 0.483483 0.483721 0.485808 0.486038 0.486227 0.4864 0.486558 0.486701 
0.48683 0.486946 0.48705 0.487143 0.487226 0.487301 0.487368 0.487428 0.487481 
0.48753 0.487573 0.487612 0.487647 0.487679 0.487708 0.487734 0.487757 0.487779 
0.487798 0.487816 0.487833 0.487848 0.487861 0.487874 0.487886 0.487896 0.487906 
0.487916 0.487924 0.487933 0.48794 0.487947 0.487954 0.48796 0.487966 0.487972 
0.487977 0.487982 0.487987 0.487991 0.487996 0.488 0.488004 0.488008 0.488011 
0.488015 0.488018 0.488022 0.488025 0.488028 0.488031 0.488034 0.488037 0.48804 
0.488043 0.488045 0.488048 0.48805 0.488053 0.488055 0.488058 0.48806 0.488062 
0.488064 0.488067 0.488069 0.488071 0.488073 0.488075 0.488077 0.488079 0.488081 
0.488083 0.488084 0.488086 0.488088 0.48809 0.488091 0.488093 0.488095 0.488096 
0.488098 0.488099 0.488101 0.488102 0.488103 0.488105 0.488097 0.48809 0.486829 
0.482659 0.480003 0.480009 0.480014 0.48002 0.480025 0.480031 0.480036 0.480042 
0.480047 0.480052 0.480056 0.480061 0.480065 0.480069 0.480073 0.480076 0.480078 
0.48008 0.480081 0.480081 0.48008 0.480078 0.480076 0.480072 0.480067 0.480061 
0.480054 0.480045 0.480035 0.480024 0.480011 0.479997 0.479981 0.479964 0.479946 
0.479926 0.479905 0.479883 0.47986 0.479836 0.479812 0.479788 0.479764 0.47974 
0.479718 0.479696 0.479677 0.47966 0.479646 0.479634 0.479627 0.479623 0.479622 
0.479626 0.479634 0.479646 0.479662 0.479681 0.479703 0.479727 0.479755 0.479784 
0.479814 0.479845 0.479877 0.479909 0.47994 0.47997 0.479999 0.480026 0.480052 
0.480076 0.480098 0.480117 0.480136 0.480153 0.480169 0.480185 0.480201 0.480219 
0.480239 0.480262 0.480289 0.480322 0.480361 0.480406 0.480459 0.48052 0.480588 
0.480663 0.480745 0.480832 0.480922 0.481016 0.481111 0.481206 0.481299 0.481391 
0.481479 0.481562 0.48164 0.481713 0.481779 0.481838 0.481889 0.481934 0.48197 
0.481999 0.482021 0.482035 0.482041 0.48204 0.482031 0.482015 0.481992 0.481961 
0.481924 0.481881 0.481831 0.481775 0.481714 0.481648 0.481578 0.481506 0.481434 
0.481362 0.481293 0.48123 0.481172 0.481124 0.481085 0.481057 0.481041 0.481036 
0.481043 0.481059 0.481084 0.481115 0.481152 0.481192 0.481232 0.481271 0.481308 
0.481341 0.48137 0.481393 0.481411 0.481424 0.481433 0.481437 0.481438 0.481437 
0.481435 0.481432 0.48143 0.481429 0.481431 0.481435 0.481441 0.481451 0.481464 
0.48148 0.481498 0.481517 0.481538 0.481559 0.48158 0.481601 0.481621 0.481641 
0.48166 0.481678 0.481696 0.481713 0.481731 0.481748 0.481767 0.481786 0.481807 
0.481831 0.481857 0.481887 0.481921 0.48196 0.482005 0.482057 0.482117 0.482187 
0.482266 0.482357 0.48246 0.482577 0.482709 0.482855 0.48302 0.483204 0.483403 
0.483641 0.485813 0.486052 0.486246 0.486424 0.486584 0.486728 0.486857 0.486973 
0.487076 0.487168 0.48725 0.487323 0.487388 0.487446 0.487498 0.487545 0.487587 
0.487625 0.487659 0.487689 0.487717 0.487742 0.487765 0.487786 0.487805 0.487822 
0.487838 0.487852 0.487865 0.487878 0.487889 0.487899 0.487909 0.487918 0.487927 
0.487934 0.487942 0.487949 0.487955 0.487961 0.487967 0.487973 0.487978 0.487983 
0.487987 0.487992 0.487996 0.488 0.488004 0.488008 0.488012 0.488015 0.488019 
0.488022 0.488025 0.488028 0.488031 0.488034 0.488037 0.48804 0.488043 0.488045 
0.488048 0.48805 0.488053 0.488055 0.488058 0.48806 0.488062 0.488065 0.488067 
0.488069 0.488071 0.488073 0.488075 0.488077 0.488079 0.488081 0.488083 0.488084 
0.488086 0.488088 0.48809 0.488091 0.488093 0.488095 0.488096 0.488098 0.488099 
0.488101 0.488102 0.488103 0.488105 0.488097 0.48809 0.486829 0.482659 0.480003 
0.480009 0.480014 0.48002 0.480026 0.480031 0.480037 0.480042 0.480048 0.480053 
0.480058 0.480063 0.480067 0.480071 0.480075 0.480078 0.480081 0.480083 0.480084 
0.480085 0.480084 0.480083 0.48008 0.480077 0.480072 0.480066 0.480059 0.48005 
0.48004 0.480029 0.480016 0.480001 0.479985 0.479968 0.479949 0.479928 0.479906 
0.479883 0.479859 0.479834 0.479809 0.479783 0.479757 0.479732 0.479707 0.479684 
0.479663 0.479645 0.479629 0.479617 0.479609 0.479604 0.479604 0.479608 0.479617 
0.479629 0.479646 0.479666 0.47969 0.479717 0.479746 0.479777 0.479809 0.479843 
0.479877 0.47991 0.479943 0.479974 0.480004 0.480032 0.480058 0.480081 0.480103 
0.480121 0.480138 0.480153 0.480166 0.480179 0.480192 0.480206 0.480222 0.480241 
0.480265 0.480295 0.480331 0.480374 0.480426 0.480487 0.480556 0.480633 0.480717 
0.480807 0.480901 0.480998 0.481097 0.481196 0.481294 0.481389 0.481481 0.481569 
0.481651 0.481727 0.481796 0.481858 0.481912 0.481959 0.481997 0.482028 0.482051 
0.482065 0.482072 0.482071 0.482062 0.482045 0.482021 0.481989 0.481949 0.481903 
0.481849 0.481789 0.481723 0.481652 0.481576 0.481498 0.481418 0.481339 0.481263 
0.481193 0.48113 0.481077 0.481036 0.481007 0.480992 0.48099 0.481 0.481022 
0.481054 0.481093 0.481137 0.481184 0.481232 0.481277 0.481319 0.481356 0.481387 
0.481412 0.48143 0.481442 0.481448 0.481449 0.481447 0.481443 0.481437 0.481431 
0.481426 0.481422 0.481421 0.481424 0.48143 0.48144 0.481454 0.481471 0.48149 
0.481512 0.481534 0.481557 0.481579 0.481601 0.481622 0.481642 0.481661 0.481678 
0.481695 0.481711 0.481727 0.481743 0.481759 0.481776 0.481795 0.481815 0.481837 
0.481863 0.481893 0.481927 0.481967 0.482014 0.482068 0.482131 0.482204 0.482288 
0.482384 0.482494 0.482619 0.48276 0.482919 0.4831 0.483297 0.483536 0.485821 
0.486071 0.486273 0.486455 0.486618 0.486764 0.486893 0.487007 0.487109 0.487199 
0.487279 0.48735 0.487413 0.487469 0.487519 0.487564 0.487604 0.48764 0.487673 
0.487702 0.487728 0.487752 0.487774 0.487794 0.487812 0.487829 0.487844 0.487858 
0.48787 0.487882 0.487893 0.487903 0.487912 0.487921 0.487929 0.487937 0.487944 
0.487951 0.487957 0.487963 0.487969 0.487974 0.487979 0.487984 0.487988 0.487993 
0.487997 0.488001 0.488005 0.488009 0.488012 0.488016 0.488019 0.488022 0.488026 
0.488029 0.488032 0.488035 0.488037 0.48804 0.488043 0.488046 0.488048 0.488051 
0.488053 0.488055 0.488058 0.48806 0.488062 0.488065 0.488067 0.488069 0.488071 
0.488073 0.488075 0.488077 0.488079 0.488081 0.488083 0.488084 0.488086 0.488088 
0.48809 0.488091 0.488093 0.488095 0.488096 0.488098 0.488099 0.488101 0.488102 
0.488103 0.488105 0.488097 0.48809 0.486829 0.482659 0.480003 0.480009 0.480015 
0.48002 0.480026 0.480032 0.480038 0.480043 0.480049 0.480054 0.480059 0.480064 
0.480069 0.480074 0.480078 0.480082 0.480085 0.480087 0.480089 0.480089 0.480089 
0.480088 0.480086 0.480083 0.480078 0.480072 0.480065 0.480056 0.480046 0.480035 
0.480021 0.480007 0.47999 0.479972 0.479952 0.479931 0.479908 0.479884 0.479858 
0.479831 0.479804 0.479776 0.479748 0.479721 0.479695 0.47967 0.479647 0.479626 
0.479609 0.479596 0.479586 0.479581 0.479581 0.479586 0.479595 0.479609 0.479627 
0.479649 0.479675 0.479704 0.479735 0.479769 0.479804 0.47984 0.479876 0.479912 
0.479946 0.47998 0.480011 0.480039 0.480066 0.480089 0.480109 0.480127 0.480142 
0.480154 0.480164 0.480173 0.480181 0.48019 0.480201 0.480216 0.480235 0.480261 
0.480294 0.480335 0.480386 0.480447 0.480518 0.480598 0.480685 0.480779 0.480877 
0.480979 0.481082 0.481186 0.481288 0.481389 0.481485 0.481577 0.481663 0.481743 
0.481816 0.481881 0.481939 0.481988 0.482029 0.482062 0.482086 0.482102 0.482109 
0.482108 0.482099 0.482081 0.482055 0.482021 0.481979 0.48193 0.481872 0.481807 
0.481735 0.481657 0.481574 0.481486 0.481398 0.48131 0.481225 0.481146 0.481076 
0.481018 0.480973 0.480943 0.480929 0.480931 0.480947 0.480976 0.481016 0.481065 
0.481119 0.481176 0.481233 0.481286 0.481335 0.481376 0.48141 0.481436 0.481454 
0.481464 0.481467 0.481465 0.481459 0.48145 0.48144 0.481429 0.481419 0.481412 
0.481408 0.481409 0.481415 0.481425 0.48144 0.481459 0.481481 0.481505 0.48153 
0.481555 0.48158 0.481603 0.481624 0.481644 0.481663 0.48168 0.481695 0.48171 
0.481724 0.481737 0.481751 0.481765 0.48178 0.481796 0.481815 0.481836 0.48186 
0.481889 0.481923 0.481963 0.48201 0.482065 0.48213 0.482205 0.482293 0.482394 
0.482511 0.482644 0.482796 0.482969 0.483162 0.483401 0.485832 0.486096 0.486308 
0.486495 0.486662 0.486808 0.486937 0.48705 0.487149 0.487237 0.487314 0.487382 
0.487442 0.487496 0.487544 0.487586 0.487624 0.487659 0.487689 0.487717 0.487742 
0.487765 0.487785 0.487804 0.487821 0.487837 0.487851 0.487864 0.487876 0.487888 
0.487898 0.487907 0.487916 0.487925 0.487932 0.48794 0.487947 0.487953 0.487959 
0.487965 0.48797 0.487975 0.48798 0.487985 0.487989 0.487994 0.487998 0.488002 
0.488006 0.488009 0.488013 0.488016 0.48802 0.488023 0.488026 0.488029 0.488032 
0.488035 0.488038 0.48804 0.488043 0.488046 0.488048 0.488051 0.488053 0.488056 
0.488058 0.48806 0.488063 0.488065 0.488067 0.488069 0.488071 0.488073 0.488075 
0.488077 0.488079 0.488081 0.488083 0.488085 0.488086 0.488088 0.48809 0.488091 
0.488093 0.488095 0.488096 0.488098 0.488099 0.488101 0.488102 0.488103 0.488105 
0.488097 0.48809 0.486829 0.482659 0.480003 0.480009 0.480015 0.480021 0.480027 
0.480032 0.480038 0.480044 0.48005 0.480055 0.480061 0.480066 0.480072 0.480077 
0.480081 0.480085 0.480089 0.480092 0.480094 0.480095 0.480095 0.480094 0.480092 
0.480089 0.480085 0.480079 0.480072 0.480063 0.480053 0.480042 0.480028 0.480013 
0.479996 0.479977 0.479956 0.479934 0.47991 0.479884 0.479857 0.479828 0.479799 
0.479769 0.479739 0.479709 0.47968 0.479652 0.479627 0.479604 0.479585 0.47957 
0.47956 0.479554 0.479554 0.479559 0.479569 0.479584 0.479604 0.479629 0.479657 
0.479688 0.479723 0.479759 0.479798 0.479836 0.479875 0.479914 0.479951 0.479986 
0.480018 0.480048 0.480075 0.480098 0.480118 0.480134 0.480146 0.480155 0.480162 
0.480166 0.480169 0.480173 0.480178 0.480187 0.480202 0.480223 0.480253 0.480292 
0.480344 0.480406 0.48048 0.480563 0.480654 0.480752 0.480855 0.480961 0.481069 
0.481177 0.481285 0.48139 0.481491 0.481587 0.481678 0.481762 0.481839 0.481908 
0.481969 0.482021 0.482065 0.4821 0.482126 0.482143 0.482151 0.48215 0.48214 
0.482122 0.482094 0.482058 0.482014 0.481961 0.481899 0.481828 0.481749 0.481663 
0.48157 0.481473 0.481373 0.481273 0.481177 0.481087 0.481008 0.480943 0.480894 
0.480863 0.480851 0.480858 0.480881 0.480919 0.48097 0.481031 0.481099 0.481168 