# vtk DataFile Version 5.1
vtk output
ASCII
DATASET UNSTRUCTURED_GRID
POINTS 10043 double
-10.1 1.4499999993 8.6074358308e-08 -10.049999999 1.4499999993 1.0829877084e-07 -10.049999999 1.5 -4.2207125261e-07 
-9.9999999985 1.4499999993 1.1536372568e-07 -9.9999999985 1.5 -4.417981927e-07 -9.9499999978 1.4499999993 1.1746647743e-07 
-9.9499999978 1.5 -4.49126901e-07 -9.899999997 1.4499999993 1.1845600767e-07 -9.899999997 1.5 -4.5235742618e-07 
-9.8499999963 1.4499999993 1.1882162454e-07 -9.8499999963 1.5 -4.5398209636e-07 -9.7999999955 1.4499999993 1.1905809316e-07 
-9.7999999955 1.5 -4.5500223678e-07 -9.7499999948 1.4499999993 1.1926728405e-07 -9.7499999948 1.5 -4.5569709073e-07 
-9.699999994 1.4499999993 1.1940552724e-07 -9.699999994 1.5 -4.5634646995e-07 -9.6499999933 1.4499999993 1.1957651225e-07 
-9.6499999933 1.5 -4.570576948e-07 -9.5999999925 1.4499999993 1.1986209358e-07 -9.5999999925 1.5 -4.5790716285e-07 
-9.5499999918 1.4499999993 1.2016040785e-07 -9.5499999918 1.5 -4.5881665756e-07 -9.4999999911 1.4499999993 1.2036777264e-07 
-9.4999999911 1.5 -4.6006812227e-07 -9.4499999903 1.4499999993 1.2068609578e-07 -9.4499999903 1.5 -4.6140507948e-07 
-9.3999999896 1.4499999993 1.2116267101e-07 -9.3999999896 1.5 -4.6286208999e-07 -9.3499999888 1.4499999993 1.2152101192e-07 
-9.3499999888 1.5 -4.6463924264e-07 -9.2999999881 1.4499999993 1.2201759603e-07 -9.2999999881 1.5 -4.6643822316e-07 
-9.2499999873 1.4499999993 1.2262513849e-07 -9.2499999873 1.5 -4.6853006097e-07 -9.1999999866 1.4499999993 1.2313445552e-07 
-9.1999999866 1.5 -4.7071316089e-07 -9.1499999858 1.4499999993 1.2372562708e-07 -9.1499999858 1.5 -4.7313028517e-07 
-9.0999999851 1.4499999993 1.2443685193e-07 -9.0999999851 1.5 -4.7556591198e-07 -9.0499999844 1.4499999993 1.2516626668e-07 
-9.0499999844 1.5 -4.781888947e-07 -8.9999999836 1.4499999993 1.2597207899e-07 -8.9999999836 1.5 -4.8104652706e-07 
-8.9499999829 1.4499999993 1.2671240768e-07 -8.9499999829 1.5 -4.8408060138e-07 -8.8999999821 1.4499999993 1.2747456424e-07 
-8.8999999821 1.5 -4.8717288337e-07 -8.8499999814 1.4499999993 1.2840042984e-07 -8.8499999814 1.5 -4.905489277e-07 
-8.7999999806 1.4499999993 1.2926444981e-07 -8.7999999806 1.5 -4.9403229241e-07 -8.7499999799 1.4499999993 1.3018667744e-07 
-8.7499999799 1.5 -4.976047876e-07 -8.6999999791 1.4499999993 1.3071418437e-07 -8.6999999791 1.5 -4.9949835557e-07 
-8.6499999784 1.4499999993 1.3178556912e-07 -8.6499999784 1.5 -5.034237347e-07 -8.5999999776 1.4499999993 1.3279328925e-07 
-8.5999999776 1.5 -5.0736548474e-07 -8.5499999769 1.4499999993 1.3396108045e-07 -8.5499999769 1.5 -5.1160009207e-07 
-8.4999999762 1.4499999993 1.3501791329e-07 -8.4999999762 1.5 -5.1591109695e-07 -8.4499999754 1.4499999993 1.3617479055e-07 
-8.4499999754 1.5 -5.2056770983e-07 -8.3999999747 1.4499999993 1.3742261729e-07 -8.3999999747 1.5 -5.2525160754e-07 
-8.3499999739 1.4499999993 1.3879049732e-07 -8.3499999739 1.5 -5.2989730648e-07 -8.2999999732 1.4499999993 1.4006742788e-07 
-8.2999999732 1.5 -5.3501230468e-07 -8.2499999724 1.4499999993 1.4137528126e-07 -8.2499999724 1.5 -5.4020370044e-07 
-8.1999999717 1.4499999993 1.4282865379e-07 -8.1999999717 1.5 -5.4558273632e-07 -8.1499999709 1.4499999993 1.4433295803e-07 
-8.1499999709 1.5 -5.5106124819e-07 -8.0999999702 1.4499999993 1.4576814067e-07 -8.0999999702 1.5 -5.5682380662e-07 
-8.0499999695 1.4499999993 1.4738522225e-07 -8.0499999695 1.5 -5.6277190197e-07 -7.9999999687 1.4499999993 1.4905141654e-07 
-7.9999999687 1.5 -5.6889825828e-07 -7.949999968 1.4499999993 1.5059210057e-07 -7.949999968 1.5 -5.7515558183e-07 
-7.8999999672 1.4499999993 1.523037696e-07 -7.8999999672 1.5 -5.816657449e-07 -7.8499999665 1.4499999993 1.5408728871e-07 
-7.8499999665 1.5 -5.8836599237e-07 -7.7999999657 1.4499999993 1.5581805712e-07 -7.7999999657 1.5 -5.9524904827e-07 
-7.749999965 1.4499999993 1.5775800932e-07 -7.749999965 1.5 -6.024022241e-07 -7.6999999642 1.4499999993 1.5962520195e-07 
-7.6999999642 1.5 -6.0980642047e-07 -7.6499999635 1.4499999993 1.615733396e-07 -7.6499999635 1.5 -6.1740433921e-07 
-7.5999999627 1.4499999993 1.6366426792e-07 -7.5999999627 1.5 -6.2521780819e-07 -7.549999962 1.4499999993 1.6573154937e-07 
-7.549999962 1.5 -6.3326075406e-07 -7.4999999613 1.4499999993 1.6792979807e-07 -7.4999999613 1.5 -6.4163509705e-07 
-7.4499999605 1.4499999993 1.7021626775e-07 -7.4499999605 1.5 -6.5012886807e-07 -7.3999999598 1.4499999993 1.7251910833e-07 
-7.3999999598 1.5 -6.58982799e-07 -7.349999959 1.4499999993 1.7488652304e-07 -7.349999959 1.5 -6.6811685429e-07 
-7.2999999583 1.4499999993 1.7737762903e-07 -7.2999999583 1.5 -6.7762744038e-07 -7.2499999575 1.4499999993 1.7987510148e-07 
-7.2499999575 1.5 -6.873235634e-07 -7.1999999568 1.4499999993 1.8252627854e-07 -7.1999999568 1.5 -6.9734073804e-07 
-7.149999956 1.4499999993 1.8526021961e-07 -7.149999956 1.5 -7.0768533078e-07 -7.0999999553 1.4499999993 1.8658262491e-07 
-7.0999999553 1.5 -7.1295403359e-07 -7.0499999546 1.4499999993 1.8945389968e-07 -7.0499999546 1.5 -7.2385614658e-07 
-6.9999999538 1.4499999993 1.9239975302e-07 -6.9999999538 1.5 -7.3503292697e-07 -6.9499999531 1.4499999993 1.9542018492e-07 
-6.9499999531 1.5 -7.4662807492e-07 -6.8999999523 1.4499999993 1.9858795497e-07 -6.8999999523 1.5 -7.5860521065e-07 
-6.8499999516 1.4499999993 2.0181666116e-07 -6.8499999516 1.5 -7.7095160123e-07 -6.7999999508 1.4499999993 2.0516542065e-07 
-6.7999999508 1.5 -7.837791145e-07 -6.7499999501 1.4499999993 2.0862695749e-07 -6.7499999501 1.5 -7.9700043898e-07 
-6.6999999493 1.4499999993 2.1218308177e-07 -6.6999999493 1.5 -8.1070106717e-07 -6.6499999486 1.4499999993 2.1583925047e-07 
-6.6499999486 1.5 -8.248237009e-07 -6.5999999478 1.4499999993 2.1971187891e-07 -6.5999999478 1.5 -8.3951294982e-07 
-6.5499999471 1.4499999993 2.2368728025e-07 -6.5499999471 1.5 -8.5461630306e-07 -6.4999999464 1.4499999993 2.2778546338e-07 
-6.4999999464 1.5 -8.7033299678e-07 -6.4499999456 1.4499999993 2.3204917454e-07 -6.4499999456 1.5 -8.866893495e-07 
-6.3999999449 1.4499999993 2.3647477576e-07 -6.3999999449 1.5 -9.0359958449e-07 -6.3499999441 1.4499999993 2.4112136998e-07 
-6.3499999441 1.5 -9.210891676e-07 -6.2999999434 1.4499999993 2.4580799618e-07 -6.2999999434 1.5 -9.3937637757e-07 
-6.2499999426 1.4499999993 2.507656518e-07 -6.2499999426 1.5 -9.5826294455e-07 -6.1999999419 1.4499999993 2.5593521968e-07 
-6.1999999419 1.5 -9.779780612e-07 -6.1499999411 1.4499999993 2.6132670428e-07 -6.1499999411 1.5 -9.9841759038e-07 
-6.0999999404 1.4499999993 2.6687143873e-07 -6.0999999404 1.5 -1.0197097708e-06 -6.0499999397 1.4499999993 2.7268038139e-07 
-6.0499999397 1.5 -1.0419364571e-06 -5.9999999389 1.4499999993 2.7872988539e-07 -5.9999999389 1.5 -1.0650730928e-06 
-5.9499999382 1.4499999993 2.8504905458e-07 -5.9499999382 1.5 -1.0891874354e-06 -5.8999999374 1.4499999993 2.9164243642e-07 
-5.8999999374 1.5 -1.1144335303e-06 -5.8499999367 1.4499999993 2.9856505535e-07 -5.8499999367 1.5 -1.1407671536e-06 
-5.7999999359 1.4499999993 3.0575733945e-07 -5.7999999359 1.5 -1.1683662251e-06 -5.7499999352 1.4499999993 3.1334025152e-07 
-5.7499999352 1.5 -1.1972440461e-06 -5.6999999344 1.4499999993 3.2123102756e-07 -5.6999999344 1.5 -1.2275293102e-06 
-5.6499999337 1.4499999993 3.2958428164e-07 -5.6499999337 1.5 -1.2593243355e-06 -5.5999999329 1.4499999993 3.3830542634e-07 
-5.5999999329 1.5 -1.2927246189e-06 -5.5499999322 1.4499999993 3.4286426853e-07 -5.5499999322 1.5 -1.3100749356e-06 
-5.4999999315 1.4499999993 3.5229300011e-07 -5.4999999315 1.5 -1.3462024526e-06 -5.4499999307 1.4499999993 3.6226970224e-07 
-5.4499999307 1.5 -1.3843152828e-06 -5.39999993 1.4499999993 3.7282620724e-07 -5.39999993 1.5 -1.4245258626e-06 
-5.3499999292 1.4499999993 3.8394250623e-07 -5.3499999292 1.5 -1.4671311419e-06 -5.2999999285 1.4499999993 3.9573956201e-07 
-5.2999999285 1.5 -1.5123061985e-06 -5.2499999277 1.4499999993 4.083242402e-07 -5.2499999277 1.5 -1.5602452095e-06 
-5.199999927 1.4499999993 4.2166789171e-07 -5.199999927 1.5 -1.6113237962e-06 -5.1499999262 1.4499999993 4.359619652e-07 
-5.1499999262 1.5 -1.6657975266e-06 -5.0999999255 1.4499999993 4.5123510972e-07 -5.0999999255 1.5 -1.724088861e-06 
-5.0499999247 1.4499999993 4.6759600991e-07 -5.0499999247 1.5 -1.7866220787e-06 -4.999999924 1.4499999993 4.8519063967e-07 
-4.999999924 1.5 -1.8539178654e-06 -4.9499999233 1.4499999993 5.0421772357e-07 -4.9499999233 1.5 -1.9265178253e-06 
-4.8999999225 1.4499999993 5.2477912504e-07 -4.8999999225 1.5 -2.0050929379e-06 -4.8499999218 1.4499999993 5.4715542319e-07 
-4.8499999218 1.5 -2.0905376914e-06 -4.799999921 1.4499999993 5.716024134e-07 -4.799999921 1.5 -2.1837604436e-06 
-4.7499999203 1.4499999993 5.983772553e-07 -4.7499999203 1.5 -2.2859858291e-06 -4.6999999195 1.4499999993 6.2787398747e-07 
-4.6999999195 1.5 -2.39858241e-06 -4.6499999188 1.4499999993 6.6055508796e-07 -4.6499999188 1.5 -2.523319381e-06 
-4.599999918 1.4499999993 6.9698558036e-07 -4.599999918 1.5 -2.6622569749e-06 -4.5499999173 1.4499999993 7.3782985055e-07 
-4.5499999173 1.5 -2.8180729714e-06 -4.4999999166 1.4499999993 7.8398761616e-07 -4.4999999166 1.5 -2.9940770219e-06 
-4.4499999158 1.4499999993 8.3654617811e-07 -4.4499999158 1.5 -3.1944391594e-06 -4.3999999151 1.4499999993 8.9692866823e-07 
-4.3999999151 1.5 -3.4245747429e-06 -4.3499999143 1.4499999993 9.6698613561e-07 -4.3499999143 1.5 -3.6914882457e-06 
-4.2999999136 1.4499999993 1.0492428828e-06 -4.2999999136 1.5 -4.0044587877e-06 -4.2499999128 1.4499999993 1.1469021501e-06 
-4.2499999128 1.5 -4.3760551307e-06 -4.1999999121 1.4499999993 1.264614184e-06 -4.1999999121 1.5 -4.8233941925e-06 
-4.1499999113 1.4499999993 1.4087047475e-06 -4.1499999113 1.5 -5.3704866332e-06 -4.0999999106 1.4499999993 1.5884165805e-06 
-4.0999999106 1.5 -6.0518841565e-06 -4.0499999098 1.4499999993 1.8173982426e-06 -4.0499999098 1.5 -6.9186639848e-06 
-3.9999999091 1.4499999993 2.1167159048e-06 -3.9999999091 1.5 -8.0490499386e-06 -3.9499999084 1.4499999993 2.3025834253e-06 
[...]
CELL_DATA 9510
FIELD FieldData 4
Water_Depth_m 1 9510 float
0.584001 0.584002 0.584003 0.584004 0.584005 0.584007 0.584008 0.584009 0.58401 
0.584011 0.584012 0.584013 0.584014 0.584016 0.584017 0.584018 0.584019 0.58402 
0.584021 0.584022 0.584023 0.584024 0.584026 0.584027 0.584028 0.584029 0.58403 
0.584031 0.584032 0.584033 0.584035 0.584036 0.584037 0.584038 0.584039 0.58404 
0.584041 0.584042 0.584044 0.584045 0.584046 0.584047 0.584048 0.584049 0.58405 
0.584051 0.584053 0.584054 0.584055 0.584056 0.584057 0.584058 0.584059 0.58406 
0.584062 0.584063 0.584064 0.584065 0.584066 0.584067 0.584068 0.584069 0.58407 
0.584072 0.584073 0.584074 0.584075 0.584076 0.584077 0.584078 0.584079 0.584081 
0.584082 0.584083 0.584084 0.584085 0.584086 0.584087 0.584089 0.58409 0.584091 
0.584092 0.584093 0.584094 0.584095 0.584097 0.584098 0.584099 0.5841 0.584101 
0.584102 0.584103 0.584105 0.584106 0.584107 0.584108 0.584109 0.584111 0.584112 
0.584113 0.584114 0.584115 0.584117 0.584118 0.584119 0.58412 0.584121 0.584123 
0.584124 0.584125 0.584126 0.584128 0.584129 0.58413 0.584131 0.584133 0.584134 
0.584135 0.584136 0.584137 0.584139 0.58414 0.584141 0.584142 0.584144 0.584146 
0.58415 0.584158 0.584177 0.584249 0.584483 0.584322 0.577713 0.561571 0.537957 
0.508813 0.475605 0.439573 0.401819 0.363422 0.326355 0.290767 0.258046 0.229808 
0.207575 0.192896 0.185144 0.183381 0.18711 0.192419 0.198372 0.202904 0.206415 
0.21044 0.217748 0.226711 0.233932 0.238348 0.24055 0.242463 0.24324 0.240499 
0.234929 0.234488 0.235167 0.238333 0.241841 0.245535 0.248721 0.25233 0.255774 
0.258282 0.261661 0.264326 0.266776 0.269949 0.271885 0.273386 0.27415 0.275443 
0.281056 0.288765 0.293401 0.298215 0.298816 0.307336 0.316481 0.326319 0.341425 
0.36157 0.385165 0.409278 0.445526 0.47468 0.49865 0.527054 0.545667 0.55772 
0.62437 0.586443 0.526821 0.502708 0.481108 0.439492 0.405264 0.37262 0.369645 
0.36964 0.369637 0.369639 0.369645 0.369651 0.369657 0.369662 0.369667 0.369672 
0.369678 0.369683 0.369688 0.369693 0.369699 0.369704 0.369709 0.369714 0.36972 
0.369725 0.36973 0.369736 0.369741 0.369746 0.369752 0.369757 0.369763 0.369768 
0.369773 0.369779 0.369784 0.36979 0.369795 0.369801 0.369806 0.369812 0.369817 
0.369823 0.369828 0.369834 0.369839 0.369845 0.36985 0.369856 0.369861 0.369867 
0.369872 0.369878 0.369883 0.369889 0.369894 0.3699 0.369905 0.369911 0.369916 
0.369922 0.369927 0.369933 0.369938 0.369944 0.369949 0.369955 0.36996 0.369966 
0.369971 0.369977 0.369982 0.369988 0.369993 0.369998 0.370004 0.370009 0.370015 
0.37002 0.370025 0.37003 0.370035 0.37004 0.370045 0.370049 0.370053 0.370056 
0.370058 0.37006 0.370051 0.370022 0.368909 0.366297 0.363036 0.584001 0.584002 
0.584003 0.584004 0.584005 0.584006 0.584007 0.584008 0.58401 0.584011 0.584012 
0.584013 0.584014 0.584015 0.584016 0.584017 0.584018 0.58402 0.584021 0.584022 
0.584023 0.584024 0.584025 0.584026 0.584027 0.584028 0.58403 0.584031 0.584032 
0.584033 0.584034 0.584035 0.584036 0.584037 0.584039 0.58404 0.584041 0.584042 
0.584043 0.584044 0.584045 0.584046 0.584047 0.584049 0.58405 0.584051 0.584052 
0.584053 0.584054 0.584055 0.584056 0.584058 0.584059 0.58406 0.584061 0.584062 
0.584063 0.584064 0.584065 0.584066 0.584068 0.584069 0.58407 0.584071 0.584072 
0.584073 0.584074 0.584075 0.584076 0.584078 0.584079 0.58408 0.584081 0.584082 
0.584083 0.584084 0.584085 0.584086 0.584088 0.584089 0.58409 0.584091 0.584092 
0.584093 0.584094 0.584095 0.584097 0.584098 0.584099 0.5841 0.584101 0.584102 
0.584103 0.584104 0.584106 0.584107 0.584108 0.584109 0.58411 0.584111 0.584112 
0.584114 0.584115 0.584116 0.584117 0.584118 0.584119 0.58412 0.584122 0.584123 
0.584124 0.584125 0.584126 0.584127 0.584128 0.584129 0.58413 0.584131 0.584131 
0.584132 0.584133 0.584133 0.584133 0.584133 0.584132 0.584131 0.584129 0.584127 
0.584125 0.584123 0.584151 0.584072 0.578161 0.562895 0.53989 0.510932 0.477558 
0.4411 0.402749 0.363646 0.325416 0.289055 0.255826 0.227404 0.205575 0.19068 
0.182735 0.181856 0.18646 0.19319 0.200188 0.205322 0.209383 0.215603 0.221789 
0.229197 0.232836 0.238017 0.240794 0.241279 0.241232 0.238728 0.234196 0.233617 
0.236091 0.239661 0.243121 0.245374 0.248182 0.251397 0.254983 0.257737 0.260768 
0.263465 0.266247 0.269476 0.271908 0.273956 0.275598 0.278395 0.283949 0.291337 
0.294853 0.303697 0.306062 0.312309 0.32058 0.329867 0.341052 0.355018 0.3812 
0.412232 0.449579 0.48696 0.512946 0.540634 0.55082 0.556245 0.624084 0.586376 
0.527151 0.502702 0.480955 0.439378 0.405353 0.373192 0.369667 0.369652 0.36964 
0.36964 0.369643 0.369648 0.369653 0.369658 0.369663 0.369668 0.369673 0.369679 
0.369684 0.369689 0.369695 0.3697 0.369705 0.369711 0.369716 0.369722 0.369727 
0.369733 0.369738 0.369744 0.369749 0.369755 0.36976 0.369766 0.369771 0.369777 
0.369782 0.369788 0.369793 0.369799 0.369804 0.36981 0.369815 0.369821 0.369826 
0.369832 0.369837 0.369843 0.369848 0.369854 0.369859 0.369865 0.369871 0.369876 
0.369882 0.369887 0.369893 0.369898 0.369904 0.369909 0.369915 0.36992 0.369926 
0.369931 0.369937 0.369942 0.369948 0.369954 0.369959 0.369965 0.36997 0.369976 
0.369981 0.369987 0.369992 0.369997 0.370003 0.370008 0.370014 0.370019 0.370024 
0.370029 0.370034 0.370039 0.370044 0.370048 0.370052 0.370056 0.370059 0.37006 
0.370057 0.370032 0.368904 0.366327 0.363024 0.584001 0.584002 0.584003 0.584004 
0.584005 0.584006 0.584007 0.584008 0.58401 0.584011 0.584012 0.584013 0.584014 
0.584015 0.584016 0.584017 0.584018 0.58402 0.584021 0.584022 0.584023 0.584024 
0.584025 0.584026 0.584027 0.584029 0.58403 0.584031 0.584032 0.584033 0.584034 
0.584035 0.584036 0.584037 0.584039 0.58404 0.584041 0.584042 0.584043 0.584044 
0.584045 0.584046 0.584047 0.584049 0.58405 0.584051 0.584052 0.584053 0.584054 
0.584055 0.584056 0.584058 0.584059 0.58406 0.584061 0.584062 0.584063 0.584064 
0.584065 0.584066 0.584068 0.584069 0.58407 0.584071 0.584072 0.584073 0.584074 
0.584075 0.584076 0.584078 0.584079 0.58408 0.584081 0.584082 0.584083 0.584084 
0.584085 0.584086 0.584088 0.584089 0.58409 0.584091 0.584092 0.584093 0.584094 
0.584095 0.584097 0.584098 0.584099 0.5841 0.584101 0.584102 0.584103 0.584104 
0.584106 0.584107 0.584108 0.584109 0.58411 0.584111 0.584112 0.584114 0.584115 
0.584116 0.584117 0.584118 0.584119 0.584121 0.584122 0.584123 0.584124 0.584125 
0.584126 0.584127 0.584128 0.584129 0.58413 0.584131 0.584132 0.584133 0.584133 
0.584134 0.584134 0.584134 0.584134 0.584133 0.584132 0.584131 0.58413 0.584132 
0.584219 0.584076 0.578362 0.56357 0.541054 0.512395 0.479081 0.442466 0.403781 
0.364214 0.324972 0.287989 0.254385 0.225815 0.205336 0.189572 0.181168 0.180968 
0.186318 0.193547 0.201217 0.206846 0.211069 0.216216 0.221639 0.227463 0.229871 
0.233549 0.236765 0.236831 0.232954 0.22942 0.229877 0.231701 0.235259 0.239346 
0.243237 0.245184 0.246548 0.248938 0.251819 0.255062 0.258466 0.261034 0.263982 
0.267057 0.270057 0.272956 0.275599 0.278623 0.283743 0.290942 0.296383 0.301222 
0.306096 0.311629 0.318561 0.32912 0.338434 0.353059 0.385371 0.423904 0.451561 
0.491633 0.526715 0.548872 0.556985 0.558951 0.624133 0.586163 0.526822 0.50271 
0.48094 0.439336 0.40526 0.37298 0.369625 0.36963 0.369633 0.369638 0.369643 
0.369648 0.369653 0.369658 0.369663 0.369668 0.369674 0.369679 0.369684 0.369689 
0.369695 0.3697 0.369706 0.369711 0.369716 0.369722 0.369727 0.369733 0.369738 
0.369744 0.369749 0.369755 0.36976 0.369766 0.369771 0.369777 0.369782 0.369788 
0.369793 0.369799 0.369804 0.36981 0.369815 0.369821 0.369826 0.369832 0.369837 
0.369843 0.369848 0.369854 0.36986 0.369865 0.369871 0.369876 0.369882 0.369887 
0.369893 0.369898 0.369904 0.369909 0.369915 0.36992 0.369926 0.369931 0.369937 
0.369943 0.369948 0.369954 0.369959 0.369965 0.36997 0.369976 0.369981 0.369987 
0.369992 0.369998 0.370003 0.370008 0.370014 0.370019 0.370024 0.370029 0.370035 
0.37004 0.370044 0.370049 0.370053 0.370058 0.370062 0.370065 0.370064 0.370045 
0.368907 0.366339 0.363025 0.584001 0.584002 0.584003 0.584004 0.584005 0.584006 
0.584007 0.584008 0.584009 0.584011 0.584012 0.584013 0.584014 0.584015 0.584016 
0.584017 0.584018 0.58402 0.584021 0.584022 0.584023 0.584024 0.584025 0.584026 
0.584027 0.584028 0.58403 0.584031 0.584032 0.584033 0.584034 0.584035 0.584036 
0.584037 0.584038 0.58404 0.584041 0.584042 0.584043 0.584044 0.584045 0.584046 
0.584047 0.584049 0.58405 0.584051 0.584052 0.584053 0.584054 0.584055 0.584056 
0.584058 0.584059 0.58406 0.584061 0.584062 0.584063 0.584064 0.584065 0.584066 
0.584067 0.584069 0.58407 0.584071 0.584072 0.584073 0.584074 0.584075 0.584076 
0.584078 0.584079 0.58408 0.584081 0.584082 0.584083 0.584084 0.584085 0.584086 
0.584088 0.584089 0.58409 0.584091 0.584092 0.584093 0.584094 0.584095 0.584096 
0.584098 0.584099 0.5841 0.584101 0.584102 0.584103 0.584104 0.584106 0.584107 
0.584108 0.584109 0.58411 0.584111 0.584112 0.584114 0.584115 0.584116 0.584117 
0.584118 0.584119 0.58412 0.584122 0.584123 0.584124 0.584125 0.584126 0.584127 
0.584128 0.584129 0.58413 0.584131 0.584132 0.584133 0.584133 0.584134 0.584134 
0.584134 0.584134 0.584134 0.584133 0.584131 0.584129 0.584125 0.584205 0.584078 
0.578478 0.56399 0.541861 0.51354 0.480433 0.443871 0.405087 0.365275 0.325634 
0.287501 0.253345 0.224888 0.204279 0.18893 0.180002 0.180349 0.18619 0.193553 
0.201032 0.206756 0.211381 0.215716 0.219106 0.220068 0.223232 0.226082 0.227584 
0.227793 0.227294 0.227067 0.227859 0.229176 0.231155 0.236145 0.240562 0.243091 
0.244744 0.247538 0.250313 0.25331 0.256896 0.259535 0.26221 0.264959 0.265897 
0.268043 0.271402 0.274504 0.278563 0.284668 0.292333 0.292305 0.296037 0.299992 
0.303435 0.318229 0.329145 0.352272 0.384874 0.422845 0.450122 0.49032 0.525448 
0.549207 0.560278 0.561927 0.624181 0.586162 0.526823 0.502711 0.480941 0.439333 
0.405261 0.373015 0.369626 0.369631 0.369633 0.369637 0.369642 0.369647 0.369652 
0.369657 0.369663 0.369668 0.369673 0.369678 0.369684 0.369689 0.369694 0.3697 
0.369705 0.369711 0.369716 0.369722 0.369727 0.369733 0.369738 0.369743 0.369749 
0.369754 0.36976 0.369765 0.369771 0.369776 0.369782 0.369788 0.369793 0.369799 
0.369804 0.36981 0.369815 0.369821 0.369826 0.369832 0.369837 0.369843 0.369848 
0.369854 0.369859 0.369865 0.36987 0.369876 0.369882 0.369887 0.369893 0.369898 
0.369904 0.369909 0.369915 0.36992 0.369926 0.369931 0.369937 0.369942 0.369948 
0.369954 0.369959 0.369965 0.36997 0.369976 0.369981 0.369987 0.369992 0.369997 
0.370003 0.370008 0.370014 0.370019 0.370024 0.37003 0.370035 0.37004 0.370045 
0.37005 0.370055 0.37006 0.370064 0.370069 0.370069 0.370052 0.368913 0.366344 
0.363025 0.584001 0.584002 0.584003 0.584004 0.584005 0.584006 0.584007 0.584008 
0.584009 0.584011 0.584012 0.584013 0.584014 0.584015 0.584016 0.584017 0.584018 
0.58402 0.584021 0.584022 0.584023 0.584024 0.584025 0.584026 0.584027 0.584028 
0.58403 0.584031 0.584032 0.584033 0.584034 0.584035 0.584036 0.584037 0.584038 
0.58404 0.584041 0.584042 0.584043 0.584044 0.584045 0.584046 0.584047 0.584049 
0.58405 0.584051 0.584052 0.584053 0.584054 0.584055 0.584056 0.584058 0.584059 
0.58406 0.584061 0.584062 0.584063 0.584064 0.584065 0.584066 0.584067 0.584069 
0.58407 0.584071 0.584072 0.584073 0.584074 0.584075 0.584076 0.584078 0.584079 
0.58408 0.584081 0.584082 0.584083 0.584084 0.584085 0.584086 0.584088 0.584089 
0.58409 0.584091 0.584092 0.584093 0.584094 0.584095 0.584096 0.584098 0.584099 
0.5841 0.584101 0.584102 0.584103 0.584104 0.584106 0.584107 0.584108 0.584109 
0.58411 0.584111 0.584112 0.584114 0.584115 0.584116 0.584117 0.584118 0.584119 
0.58412 0.584122 0.584123 0.584124 0.584125 0.584126 0.584127 0.584128 0.584129 
0.58413 0.584131 0.584132 0.584133 0.584134 0.584135 0.584135 0.584136 0.584136 
0.584136 0.584136 0.584135 0.584133 0.584133 0.584213 0.584085 0.578574 0.564333 
0.54256 0.514616 0.481836 0.445509 0.406852 0.367046 0.32726 0.288763 0.253141 
0.222611 0.1989 0.184531 0.178108 0.1803 0.186238 0.193268 0.199944 0.205273 
0.209538 0.211566 0.21359 0.21662 0.217683 0.22026 0.223218 0.224097 0.224968 
0.22615 0.227146 0.228381 0.230907 0.237314 0.24325 0.246035 0.247937 0.250965 
0.253799 0.256175 0.259374 0.261453 0.262825 0.264024 0.266133 0.268767 0.271713 
0.27319 0.274974 0.277591 0.282986 0.291397 0.293893 0.296305 0.308071 0.318744 
0.330036 0.361955 0.384895 0.41924 0.459827 0.487693 0.517093 0.546043 0.557828 
0.558942 0.624233 0.586379 0.527103 0.502698 0.480948 0.439361 0.405337 0.373049 
0.369622 0.369627 0.369632 0.369637 0.369642 0.369647 0.369652 0.369657 0.369662 
0.369668 0.369673 0.369678 0.369684 0.369689 0.369694 0.3697 0.369705 0.369711 
0.369716 0.369722 0.369727 0.369733 0.369738 0.369743 0.369749 0.369754 0.36976 
0.369765 0.369771 0.369776 0.369782 0.369787 0.369793 0.369799 0.369804 0.36981 
0.369815 0.369821 0.369826 0.369832 0.369837 0.369843 0.369848 0.369854 0.369859 
0.369865 0.36987 0.369876 0.369882 0.369887 0.369893 0.369898 0.369904 0.369909 
0.369915 0.36992 0.369926 0.369931 0.369937 0.369942 0.369948 0.369954 0.369959 
0.369965 0.36997 0.369976 0.369981 0.369987 0.369992 0.369998 0.370003 0.370008 
0.370014 0.370019 0.370025 0.37003 0.370035 0.370041 0.370046 0.370051 0.370056 
0.370061 0.370067 0.370072 0.370073 0.370056 0.368918 0.366346 0.363025 0.584001 
0.584002 0.584003 0.584004 0.584005 0.584006 0.584007 0.584008 0.584009 0.584011 
0.584012 0.584013 0.584014 0.584015 0.584016 0.584017 0.584018 0.58402 0.584021 
0.584022 0.584023 0.584024 0.584025 0.584026 0.584027 0.584028 0.58403 0.584031 
0.584032 0.584033 0.584034 0.584035 0.584036 0.584037 0.584038 0.58404 0.584041 
0.584042 0.584043 0.584044 0.584045 0.584046 0.584047 0.584049 0.58405 0.584051 
0.584052 0.584053 0.584054 0.584055 0.584056 0.584058 0.584059 0.58406 0.584061 
0.584062 0.584063 0.584064 0.584065 0.584066 0.584067 0.584069 0.58407 0.584071 
0.584072 0.584073 0.584074 0.584075 0.584076 0.584078 0.584079 0.58408 0.584081 
0.584082 0.584083 0.584084 0.584085 0.584086 0.584088 0.584089 0.58409 0.584091 
0.584092 0.584093 0.584094 0.584095 0.584096 0.584098 0.584099 0.5841 0.584101 
0.584102 0.584103 0.584104 0.584106 0.584107 0.584108 0.584109 0.58411 0.584111 
0.584112 0.584113 0.584115 0.584116 0.584117 0.584118 0.584119 0.58412 0.584122 
0.584123 0.584124 0.584125 0.584126 0.584127 0.584128 0.58413 0.584131 0.584132 
0.584133 0.584134 0.584135 0.584136 0.584137 0.584138 0.584138 0.584139 0.584139 
0.584139 0.584139 0.584139 0.58422 0.584095 0.578676 0.564687 0.543288 0.515782 
0.483448 0.447531 0.409226 0.369703 0.330129 0.291774 0.256211 0.225081 0.200252 
0.185757 0.180055 0.181961 0.18716 0.193286 0.19985 0.203707 0.204538 0.205978 
0.208024 0.211778 0.213759 0.216002 0.21689 0.218115 0.220076 0.224603 0.227987 
0.230862 0.233248 0.238808 0.243932 0.246681 0.248577 0.250967 0.253887 0.256422 
0.25936 0.264359 0.267562 0.26996 0.272726 0.275367 0.278527 0.282127 0.286581 
0.295463 0.308573 0.309384 0.322525 0.326541 0.326957 0.339146 0.348771 0.359465 
0.383699 0.414912 0.453913 0.481837 0.511183 0.535475 0.541928 0.543235 0.624282 
0.58638 0.527111 0.502698 0.480946 0.439359 0.405336 0.373053 0.369622 0.369627 
0.369631 0.369636 0.369641 0.369646 0.369652 0.369657 0.369662 0.369667 0.369673 
0.369678 0.369683 0.369689 0.369694 0.3697 0.369705 0.369711 0.369716 0.369721 
0.369727 0.369732 0.369738 0.369743 0.369749 0.369754 0.36976 0.369765 0.369771 
0.369776 0.369782 0.369787 0.369793 0.369799 0.369804 0.36981 0.369815 0.369821 
0.369826 0.369832 0.369837 0.369843 0.369848 0.369854 0.369859 0.369865 0.36987 
0.369876 0.369882 0.369887 0.369893 0.369898 0.369904 0.369909 0.369915 0.36992 
0.369926 0.369931 0.369937 0.369942 0.369948 0.369954 0.369959 0.369965 0.36997 
0.369976 0.369981 0.369987 0.369992 0.369998 0.370003 0.370009 0.370014 0.37002 
0.370025 0.37003 0.370036 0.370041 0.370047 0.370052 0.370058 0.370063 0.370069 
0.370075 0.370076 0.370059 0.368921 0.366348 0.363025 0.584001 0.584002 0.584003 
0.584004 0.584005 0.584006 0.584007 0.584008 0.58401 0.584011 0.584012 0.584013 
0.584014 0.584015 0.584016 0.584017 0.584018 0.58402 0.584021 0.584022 0.584023 
0.584024 0.584025 0.584026 0.584027 0.584028 0.58403 0.584031 0.584032 0.584033 
0.584034 0.584035 0.584036 0.584037 0.584039 0.58404 0.584041 0.584042 0.584043 
0.584044 0.584045 0.584046 0.584047 0.584049 0.58405 0.584051 0.584052 0.584053 
0.584054 0.584055 0.584056 0.584058 0.584059 0.58406 0.584061 0.584062 0.584063 
0.584064 0.584065 0.584066 0.584067 0.584069 0.58407 0.584071 0.584072 0.584073 
0.584074 0.584075 0.584076 0.584078 0.584079 0.58408 0.584081 0.584082 0.584083 
0.584084 0.584085 0.584086 0.584088 0.584089 0.58409 0.584091 0.584092 0.584093 
0.584094 0.584095 0.584096 0.584098 0.584099 0.5841 0.584101 0.584102 0.584103 
0.584104 0.584105 0.584107 0.584108 0.584109 0.58411 0.584111 0.584112 0.584113 
0.584115 0.584116 0.584117 0.584118 0.584119 0.58412 0.584122 0.584123 0.584124 
0.584125 0.584126 0.584128 0.584129 0.58413 0.584131 0.584132 0.584134 0.584135 
0.584136 0.584137 0.584138 0.58414 0.584141 0.584142 0.584143 0.584144 0.584146 
0.584149 0.584229 0.584106 0.578796 0.565089 0.544114 0.517126 0.485361 0.450019 
0.412278 0.373302 0.334289 0.2966 0.261948 0.232134 0.208751 0.193644 0.18612 
0.185202 0.189102 0.193928 0.198868 0.202351 0.204148 0.205562 0.207632 0.211175 
0.213307 0.215196 0.216086 0.216277 0.218967 0.224062 0.227437 0.230278 0.233214 
0.239119 0.244356 0.246885 0.248703 0.250644 0.252141 0.256077 0.262175 0.264675 
0.268378 0.273032 0.275069 0.277376 0.281918 0.288774 0.293637 0.299597 0.308983 
0.312497 0.323597 0.329481 0.330769 0.342467 0.358958 0.360154 0.374804 0.397346 
0.431801 0.463994 0.493149 0.517624 0.530897 0.54046 0.624331 0.586379 0.527104 
0.502696 0.480949 0.439358 0.405333 0.373048 0.36962 0.369626 0.36963 0.369635 
0.369641 0.369646 0.369651 0.369657 0.369662 0.369667 0.369673 0.369678 0.369683 
0.369689 0.369694 0.3697 0.369705 0.36971 0.369716 0.369721 0.369727 0.369732 
0.369738 0.369743 0.369749 0.369754 0.36976 0.369765 0.369771 0.369776 0.369782 
0.369787 0.369793 0.369799 0.369804 0.36981 0.369815 0.369821 0.369826 0.369832 
0.369837 0.369843 0.369848 0.369854 0.369859 0.369865 0.36987 0.369876 0.369882 
0.369887 0.369893 0.369898 0.369904 0.369909 0.369915 0.36992 0.369926 0.369931 
0.369937 0.369943 0.369948 0.369954 0.369959 0.369965 0.36997 0.369976 0.369981 
0.369987 0.369992 0.369998 0.370003 0.370009 0.370014 0.37002 0.370025 0.370031 
0.370036 0.370042 0.370047 0.370053 0.370059 0.370065 0.370071 0.370077 0.370078 
0.370061 0.368924 0.366349 0.363025 0.584001 0.584002 0.584003 0.584004 0.584005 
0.584006 0.584007 0.584008 0.58401 0.584011 0.584012 0.584013 0.584014 0.584015 
0.584016 0.584017 0.584018 0.58402 0.584021 0.584022 0.584023 0.584024 0.584025 
0.584026 0.584027 0.584029 0.58403 0.584031 0.584032 0.584033 0.584034 0.584035 
0.584036 0.584037 0.584039 0.58404 0.584041 0.584042 0.584043 0.584044 0.584045 
0.584046 0.584047 0.584049 0.58405 0.584051 0.584052 0.584053 0.584054 0.584055 
0.584056 0.584058 0.584059 0.58406 0.584061 0.584062 0.584063 0.584064 0.584065 
0.584066 0.584068 0.584069 0.58407 0.584071 0.584072 0.584073 0.584074 0.584075 
0.584076 0.584078 0.584079 0.58408 0.584081 0.584082 0.584083 0.584084 0.584085 
0.584086 0.584088 0.584089 0.58409 0.584091 0.584092 0.584093 0.584094 0.584095 
0.584096 0.584098 0.584099 0.5841 0.584101 0.584102 0.584103 0.584104 0.584105 
0.584107 0.584108 0.584109 0.58411 0.584111 0.584112 0.584113 0.584115 0.584116 
0.584117 0.584118 0.584119 0.584121 0.584122 0.584123 0.584124 0.584125 0.584127 
0.584128 0.584129 0.58413 0.584132 0.584133 0.584134 0.584136 0.584137 0.584139 
0.58414 0.584142 0.584144 0.584146 0.584148 0.58415 0.584153 0.584158 0.584239 
0.584118 0.578935 0.565553 0.545062 0.518678 0.487595 0.452982 0.41599 0.377771 
0.339536 0.302721 0.269178 0.241094 0.219946 0.204152 0.194176 0.190262 0.19239 