# vtk DataFile Version 5.1
vtk output
ASCII
DATASET UNSTRUCTURED_GRID
POINTS 10043 double
-10.1 1.4499999993 -2.1070103173e-07 -10.049999999 1.4499999993 -1.1911856035e-07 -10.049999999 1.5 4.3043814912e-07 
-9.9999999985 1.4499999993 -8.3775596238e-08 -9.9999999985 1.5 3.1405920708e-07 -9.9499999978 1.4499999993 -6.6266004239e-08 
-9.9499999978 1.5 2.5035637918e-07 -9.899999997 1.4499999993 -5.5230191975e-08 -9.899999997 1.5 2.0955282309e-07 
-9.8499999963 1.4499999993 -4.7554056692e-08 -9.8499999963 1.5 1.8083798636e-07 -9.7999999955 1.4499999993 -4.1867895817e-08 
-9.7999999955 1.5 1.5949423471e-07 -9.7499999948 1.4499999993 -3.7516873164e-08 -9.7499999948 1.5 1.4295598305e-07 
-9.699999994 1.4499999993 -3.4017137551e-08 -9.699999994 1.5 1.297810428e-07 -9.6499999933 1.4499999993 -3.1265006584e-08 
-9.6499999933 1.5 1.1901625641e-07 -9.5999999925 1.4499999993 -2.8843933464e-08 -9.5999999925 1.5 1.1007592349e-07 
-9.5499999918 1.4499999993 -2.6899433792e-08 -9.5499999918 1.5 1.0257804917e-07 -9.4999999911 1.4499999993 -2.5180488805e-08 
-9.4999999911 1.5 9.6186120402e-08 -9.4499999903 1.4499999993 -2.3807151805e-08 -9.4499999903 1.5 9.070368634e-08 
-9.3999999896 1.4499999993 -2.2492022467e-08 -9.3999999896 1.5 8.6043435488e-08 -9.3499999888 1.4499999993 -2.1549785956e-08 
-9.3499999888 1.5 8.195070933e-08 -9.2999999881 1.4499999993 -2.0540246837e-08 -9.2999999881 1.5 7.8447335738e-08 
-9.2499999873 1.4499999993 -1.9789004213e-08 -9.2499999873 1.5 7.5247733378e-08 -9.1999999866 1.4499999993 -1.891407031e-08 
-9.1999999866 1.5 7.2597678979e-08 -9.1499999858 1.4499999993 -1.8413848224e-08 -9.1499999858 1.5 7.0223684645e-08 
-9.0999999851 1.4499999993 -1.7853599488e-08 -9.0999999851 1.5 6.8106380979e-08 -9.0499999844 1.4499999993 -1.7407947084e-08 
-9.0499999844 1.5 6.6205537053e-08 -8.9999999836 1.4499999993 -1.6925914892e-08 -8.9999999836 1.5 6.4721241699e-08 
-8.9499999829 1.4499999993 -1.6556660043e-08 -8.9499999829 1.5 6.3280602092e-08 -8.8999999821 1.4499999993 -1.6285630622e-08 
-8.8999999821 1.5 6.2025499403e-08 -8.8499999814 1.4499999993 -1.6032791095e-08 -8.8499999814 1.5 6.1065072998e-08 
-8.7999999806 1.4499999993 -1.5769037631e-08 -8.7999999806 1.5 6.0141026381e-08 -8.7499999799 1.4499999993 -1.562169949e-08 
-8.7499999799 1.5 5.9438900024e-08 -8.6999999791 1.4499999993 -1.549800821e-08 -8.6999999791 1.5 5.9169689592e-08 
-8.6499999784 1.4499999993 -1.5474361348e-08 -8.6499999784 1.5 5.8638544687e-08 -8.5999999776 1.4499999993 -1.5290643418e-08 
-8.5999999776 1.5 5.8269289838e-08 -8.5499999769 1.4499999993 -1.5239711715e-08 -8.5499999769 1.5 5.8041916162e-08 
-8.4999999762 1.4499999993 -1.5139667298e-08 -8.4999999762 1.5 5.7867293179e-08 -8.4499999754 1.4499999993 -1.5177866075e-08 
-8.4499999754 1.5 5.7792714614e-08 -8.3999999747 1.4499999993 -1.5170590117e-08 -8.3999999747 1.5 5.7809085519e-08 
-8.3499999739 1.4499999993 -1.5145124266e-08 -8.3499999739 1.5 5.7954604671e-08 -8.2999999732 1.4499999993 -1.5181504054e-08 
-8.2999999732 1.5 5.8236548028e-08 -8.2499999724 1.4499999993 -1.5394325814e-08 -8.2499999724 1.5 5.8603983888e-08 
-8.1999999717 1.4499999993 -1.5403420761e-08 -8.1999999717 1.5 5.8976940664e-08 -8.1499999709 1.4499999993 -1.5668993214e-08 
-8.1499999709 1.5 5.9471641833e-08 -8.0999999702 1.4499999993 -1.5759942684e-08 -8.0999999702 1.5 6.0131931434e-08 
-8.0499999695 1.4499999993 -1.6014601201e-08 -8.0499999695 1.5 6.0714008043e-08 -7.9999999687 1.4499999993 -1.6185586205e-08 
-7.9999999687 1.5 6.1479802582e-08 -7.949999968 1.4499999993 -1.6356571209e-08 -7.949999968 1.5 6.2272881962e-08 
-7.8999999672 1.4499999993 -1.653665116e-08 -7.8999999672 1.5 6.3216937463e-08 -7.8499999665 1.4499999993 -1.6826779969e-08 
-7.8499999665 1.5 6.4253761423e-08 -7.7999999657 1.4499999993 -1.7117818274e-08 -7.7999999657 1.5 6.5393358284e-08 
-7.749999965 1.4499999993 -1.7407947084e-08 -7.749999965 1.5 6.6563877965e-08 -7.6999999642 1.4499999993 -1.7789025364e-08 
-7.6999999642 1.5 6.7835351558e-08 -7.6499999635 1.4499999993 -1.8100982047e-08 -7.6499999635 1.5 6.9121377066e-08 
-7.5999999627 1.4499999993 -1.8465689422e-08 -7.5999999627 1.5 7.0629319282e-08 -7.549999962 1.4499999993 -1.8919527278e-08 
-7.549999962 1.5 7.212467068e-08 -7.4999999613 1.4499999993 -1.937245564e-08 -7.4999999613 1.5 7.3742519646e-08 
-7.4499999605 1.4499999993 -1.9744438973e-08 -7.4499999605 1.5 7.5435998781e-08 -7.3999999598 1.4499999993 -2.0252846511e-08 
-7.3999999598 1.5 7.7240436269e-08 -7.349999959 1.4499999993 -2.0665757106e-08 -7.349999959 1.5 7.9170384026e-08 
-7.2999999583 1.4499999993 -2.1272390072e-08 -7.2999999583 1.5 8.1097603299e-08 -7.2499999575 1.4499999993 -2.1798078009e-08 
-7.2499999575 1.5 8.3190350608e-08 -7.1999999568 1.4499999993 -2.2385611587e-08 -7.1999999568 1.5 8.5406789196e-08 
-7.149999956 1.4499999993 -2.3023167373e-08 -7.149999956 1.5 8.769962534e-08 -7.0999999553 1.4499999993 -2.3301472751e-08 
-7.0999999553 1.5 8.8875601989e-08 -7.0499999546 1.4499999993 -2.3889915823e-08 -7.0499999546 1.5 9.1324871221e-08 
-6.9999999538 1.4499999993 -2.4578403313e-08 -6.9999999538 1.5 9.3878732343e-08 -6.9499999531 1.4499999993 -2.5275076254e-08 
-6.9499999531 1.5 9.6594483523e-08 -6.8999999523 1.4499999993 -2.600358151e-08 -6.8999999523 1.5 9.9355709438e-08 
-6.8499999516 1.4499999993 -2.6782108975e-08 -6.8499999516 1.5 1.0233339509e-07 -6.7999999508 1.4499999993 -2.7596106733e-08 
-6.7999999508 1.5 1.0532563266e-07 -6.7499999501 1.4499999993 -2.8370996219e-08 -6.7499999501 1.5 1.0843792353e-07 
-6.6999999493 1.4499999993 -2.9272305468e-08 -6.6999999493 1.5 1.1173302283e-07 -6.6499999486 1.4499999993 -3.0166336984e-08 
-6.6499999486 1.5 1.151718223e-07 -6.5999999478 1.4499999993 -3.1115849453e-08 -6.5999999478 1.5 1.1873158456e-07 
-6.5499999471 1.4499999993 -3.2104470193e-08 -6.5499999471 1.5 1.2244598224e-07 -6.4999999464 1.4499999993 -3.3069444072e-08 
-6.4999999464 1.5 1.2629949708e-07 -6.4499999456 1.4499999993 -3.4128095905e-08 -6.4499999456 1.5 1.3026671297e-07 
-6.3999999449 1.4499999993 -3.5209485105e-08 -6.3999999449 1.5 1.3439127144e-07 -6.3499999441 1.4499999993 -3.629360279e-08 
-6.3499999441 1.5 1.386904529e-07 -6.2999999434 1.4499999993 -3.7535063058e-08 -6.2999999434 1.5 1.4313060603e-07 
-6.2499999426 1.4499999993 -3.8707401728e-08 -6.2499999426 1.5 1.4773264922e-07 -6.1999999419 1.4499999993 -3.9946133512e-08 
-6.1999999419 1.5 1.5253478125e-07 -6.1499999411 1.4499999993 -4.1259443861e-08 -6.1499999411 1.5 1.5743877668e-07 
-6.0999999404 1.4499999993 -4.2600948547e-08 -6.0999999404 1.5 1.6250193369e-07 -6.0499999397 1.4499999993 -4.3930629801e-08 
-6.0499999397 1.5 1.6777700296e-07 -5.9999999389 1.4499999993 -4.5307604779e-08 -5.9999999389 1.5 1.7320941481e-07 
-5.9499999382 1.4499999993 -4.6796902353e-08 -5.9499999382 1.5 1.7871367675e-07 -5.8999999374 1.4499999993 -4.8291202148e-08 
-5.8999999374 1.5 1.8446786498e-07 -5.8499999367 1.4499999993 -4.9846438088e-08 -5.8499999367 1.5 1.9035066146e-07 
-5.7999999359 1.4499999993 -5.1439418058e-08 -5.7999999359 1.5 1.9635287174e-07 -5.7499999352 1.4499999993 -5.3058773375e-08 
-5.7499999352 1.5 2.0249059673e-07 -5.6999999344 1.4499999993 -5.4661757787e-08 -5.6999999344 1.5 2.0872882089e-07 
-5.6499999337 1.4499999993 -5.6370243584e-08 -5.6499999337 1.5 2.1512302339e-07 -5.5999999329 1.4499999993 -5.802052172e-08 
-5.5999999329 1.5 2.2156906709e-07 -5.5499999322 1.4499999993 -5.8888179666e-08 -5.5499999322 1.5 2.2479423478e-07 
-5.4999999315 1.4499999993 -6.0567110438e-08 -5.4999999315 1.5 2.313188503e-07 -5.4499999307 1.4499999993 -6.2298333603e-08 
-5.4499999307 1.5 2.3778626712e-07 -5.39999993 1.4499999993 -6.396907537e-08 -5.39999993 1.5 2.442677669e-07 
-5.3499999292 1.4499999993 -6.5615715528e-08 -5.3499999292 1.5 2.5060649023e-07 -5.2999999285 1.4499999993 -6.7274633864e-08 
-5.2999999285 1.5 2.5678696147e-07 -5.2499999277 1.4499999993 -6.8788487795e-08 -5.2499999277 1.5 2.6268457987e-07 
-5.199999927 1.4499999993 -7.0209573266e-08 -5.199999927 1.5 2.6822067412e-07 -5.1499999262 1.4499999993 -7.1546530478e-08 
-5.1499999262 1.5 2.7326200325e-07 -5.0999999255 1.4499999993 -7.2701588749e-08 -5.0999999255 1.5 2.7761257115e-07 
-5.0499999247 1.4499999993 -7.3616540419e-08 -5.0499999247 1.5 2.8115050554e-07 -4.999999924 1.4499999993 -7.4270012362e-08 
-4.999999924 1.5 2.8361705517e-07 -4.9499999233 1.4499999993 -7.453649431e-08 -4.9499999233 1.5 2.8467252378e-07 
-4.8999999225 1.4499999993 -7.4355959612e-08 -4.8999999225 1.5 2.8400407359e-07 -4.8499999218 1.4499999993 -7.3602897999e-08 
-4.8499999218 1.5 2.8115687201e-07 -4.799999921 1.4499999993 -7.2127242845e-08 -4.799999921 1.5 2.7559713089e-07 
-4.7499999203 1.4499999993 -6.9775289546e-08 -4.7499999203 1.5 2.6659995456e-07 -4.6999999195 1.4499999993 -6.6284194133e-08 
-4.6999999195 1.5 2.5336498766e-07 -4.6499999188 1.4499999993 -6.1390203143e-08 -4.6499999188 1.5 2.3474173361e-07 
-4.599999918 1.4499999993 -5.4708596764e-08 -4.599999918 1.5 2.0939911849e-07 -4.5499999173 1.4499999993 -4.5817831307e-08 
-4.5499999173 1.5 1.7560229537e-07 -4.4999999166 1.4499999993 -3.4077618949e-08 -4.4999999166 1.5 1.3107434427e-07 
-4.4499999158 1.4499999993 -1.8797427614e-08 -4.4499999158 1.5 7.286121928e-08 -4.3999999151 1.4499999993 1.1323300075e-09 
-4.3999999151 1.5 -2.8014619513e-09 -4.3499999143 1.4499999993 2.7004952941e-08 -4.3499999143 1.5 -1.0104462689e-07 
-4.2999999136 1.4499999993 6.067171654e-08 -4.2999999136 1.5 -2.2876655237e-07 -4.2499999128 1.4499999993 1.0456734145e-07 
-4.2499999128 1.5 -3.9525232864e-07 -4.1999999121 1.4499999993 1.6216246479e-07 -4.1999999121 1.5 -6.1355785874e-07 
-4.1499999113 1.4499999993 2.3839790231e-07 -4.1499999113 1.5 -9.0212120085e-07 -4.0999999106 1.4499999993 3.403890787e-07 
-4.0999999106 1.5 -1.2877328572e-06 -4.0499999098 1.4499999993 4.7886487664e-07 -4.0499999098 1.5 -1.8103603452e-06 
-3.9999999091 1.4499999993 6.7041332841e-07 -3.9999999091 1.5 -2.5316787742e-06 -3.9499999084 1.4499999993 7.9389110397e-07 
[...]
CELL_DATA 9510
FIELD FieldData 4
Water_Depth_m 1 9510 float
0.640003 0.640009 0.640014 0.640018 0.640021 0.640022 0.640021 0.640019 0.640014 
0.640006 0.639995 0.639982 0.639965 0.639944 0.639919 0.63989 0.639857 0.639819 
0.639776 0.63973 0.639679 0.639624 0.639566 0.639505 0.639441 0.639377 0.639312 
0.639247 0.639183 0.63912 0.63906 0.639004 0.63895 0.6389 0.638854 0.638812 
0.638774 0.63874 0.63871 0.638684 0.638663 0.638646 0.638634 0.638627 0.638625 
0.638627 0.638635 0.638648 0.638666 0.638689 0.638717 0.63875 0.638788 0.63883 
0.638876 0.638926 0.638978 0.639033 0.63909 0.639148 0.639206 0.639265 0.639323 
0.639379 0.639434 0.639487 0.639537 0.639584 0.639628 0.639668 0.639704 0.639737 
0.639765 0.639789 0.639809 0.639825 0.639837 0.639845 0.639849 0.639848 0.639844 
0.639836 0.639824 0.639808 0.639789 0.639766 0.639739 0.639709 0.639676 0.63964 
0.639601 0.639559 0.639516 0.639471 0.639425 0.639379 0.639334 0.63929 0.639248 
0.63921 0.639176 0.639146 0.639123 0.639106 0.639096 0.639093 0.639097 0.639107 
0.639124 0.639147 0.639175 0.639209 0.639246 0.639287 0.639332 0.63938 0.639431 
0.639484 0.639542 0.639603 0.639668 0.639739 0.639817 0.639902 0.639995 0.640098 
0.640212 0.64034 0.640487 0.640667 0.640944 0.640844 0.635342 0.621906 0.602301 
0.578198 0.550887 0.521491 0.491076 0.460679 0.431882 0.405634 0.382923 0.365132 
0.354174 0.352459 0.35261 0.352749 0.352877 0.352993 0.353099 0.353196 0.353285 
0.353368 0.353447 0.353521 0.353551 0.35338 0.353071 0.352566 0.346142 0.323547 
0.306261 0.306581 0.311141 0.315303 0.318607 0.321237 0.322663 0.325255 0.329807 
0.334667 0.338661 0.342489 0.345844 0.351252 0.356346 0.361077 0.367968 0.371521 
0.378002 0.386789 0.392256 0.400385 0.408333 0.413381 0.418653 0.425952 0.435256 
0.442283 0.443624 0.445819 0.450844 0.457813 0.46415 0.473754 0.478644 0.479926 
0.424992 0.405792 0.383733 0.369482 0.368467 0.368471 0.368113 0.365885 0.362497 
0.361603 0.361594 0.358307 0.355523 0.355578 0.355627 0.355673 0.355717 0.35576 
0.3558 0.355839 0.355876 0.355911 0.355944 0.355975 0.356004 0.356032 0.356058 
0.356083 0.356106 0.356129 0.35615 0.35617 0.356189 0.356207 0.356224 0.356241 
0.356256 0.356272 0.356286 0.356301 0.356314 0.356328 0.356341 0.356353 0.356365 
0.356377 0.356389 0.356401 0.356412 0.356423 0.356434 0.356444 0.356455 0.356465 
0.356475 0.356485 0.356495 0.356505 0.356515 0.356524 0.356534 0.356544 0.356553 
0.356562 0.356571 0.356581 0.35659 0.356599 0.356608 0.356616 0.356625 0.356634 
0.356643 0.356651 0.35666 0.356668 0.356677 0.356685 0.356694 0.356702 0.35671 
0.356719 0.356727 0.356735 0.356743 0.356751 0.356759 0.356767 0.356775 0.356783 
0.35679 0.356798 0.356801 0.356792 0.356177 0.353952 0.35063 0.640004 0.64001 
0.640015 0.640019 0.640023 0.640024 0.640023 0.640021 0.640016 0.640008 0.639998 
0.639984 0.639967 0.639946 0.639921 0.639892 0.639858 0.63982 0.639777 0.63973 
0.639678 0.639623 0.639564 0.639502 0.639438 0.639373 0.639307 0.639242 0.639178 
0.639115 0.639055 0.638999 0.638945 0.638895 0.638849 0.638807 0.638769 0.638735 
0.638705 0.63868 0.638659 0.638642 0.63863 0.638622 0.63862 0.638622 0.63863 
0.638642 0.63866 0.638683 0.638712 0.638745 0.638783 0.638825 0.638871 0.638921 
0.638974 0.639029 0.639086 0.639145 0.639204 0.639263 0.639321 0.639379 0.639434 
0.639487 0.639538 0.639586 0.63963 0.63967 0.639707 0.63974 0.639768 0.639793 
0.639813 0.639829 0.639841 0.639849 0.639853 0.639852 0.639848 0.63984 0.639828 
0.639812 0.639792 0.639769 0.639742 0.639712 0.639678 0.639641 0.639601 0.639559 
0.639515 0.63947 0.639423 0.639376 0.63933 0.639285 0.639243 0.639204 0.639169 
0.63914 0.639116 0.639099 0.639089 0.639086 0.63909 0.639101 0.639118 0.639142 
0.639171 0.639204 0.639242 0.639284 0.639329 0.639376 0.639427 0.63948 0.639537 
0.639597 0.639661 0.63973 0.639806 0.639888 0.639978 0.640078 0.640187 0.640306 
0.640434 0.640554 0.640664 0.640635 0.635693 0.622943 0.603791 0.579795 0.552325 
0.522597 0.491744 0.460821 0.4312 0.404122 0.381027 0.36356 0.353846 0.35249 
0.352634 0.352766 0.352892 0.353007 0.353112 0.353208 0.353296 0.353379 0.353456 
0.353531 0.353564 0.353393 0.353242 0.352741 0.344618 0.31637 0.297705 0.304512 
0.307558 0.310372 0.314177 0.31922 0.323933 0.329411 0.33372 0.339222 0.344397 
0.350855 0.356777 0.362712 0.367537 0.373638 0.379861 0.387348 0.394248 0.401361 
0.409021 0.416752 0.423871 0.430224 0.436412 0.443825 0.452828 0.459984 0.460388 
0.45686 0.471298 0.482489 0.488655 0.496452 0.50372 0.504418 0.446894 0.433673 
0.409684 0.381908 0.371616 0.369444 0.3684 0.366591 0.362766 0.362099 0.36207 
0.358345 0.355496 0.355549 0.3556 0.35565 0.355697 0.355743 0.355786 0.355826 
0.355865 0.355901 0.355935 0.355967 0.355997 0.356025 0.356052 0.356077 0.356101 
0.356124 0.356145 0.356165 0.356184 0.356203 0.35622 0.356237 0.356253 0.356269 
0.356283 0.356298 0.356312 0.356325 0.356338 0.356351 0.356363 0.356375 0.356387 
0.356399 0.35641 0.356421 0.356432 0.356443 0.356453 0.356463 0.356474 0.356484 
0.356494 0.356504 0.356514 0.356523 0.356533 0.356542 0.356552 0.356561 0.35657 
0.356579 0.356588 0.356598 0.356606 0.356615 0.356624 0.356633 0.356642 0.35665 
0.356659 0.356668 0.356676 0.356685 0.356693 0.356701 0.35671 0.356718 0.356726 
0.356734 0.356742 0.35675 0.356758 0.356766 0.356774 0.356782 0.35679 0.356797 
0.3568 0.356792 0.356176 0.353951 0.350628 0.640004 0.640011 0.640017 0.640022 
0.640026 0.640027 0.640027 0.640025 0.64002 0.640013 0.640002 0.639989 0.639971 
0.63995 0.639925 0.639895 0.639861 0.639822 0.639778 0.639729 0.639677 0.63962 
0.63956 0.639497 0.639432 0.639366 0.639299 0.639233 0.639168 0.639105 0.639045 
0.638988 0.638935 0.638885 0.638839 0.638797 0.63876 0.638726 0.638696 0.638671 
0.63865 0.638633 0.63862 0.638613 0.63861 0.638612 0.638619 0.638632 0.638649 
0.638672 0.638701 0.638734 0.638772 0.638815 0.638861 0.638912 0.638965 0.639021 
0.63908 0.639139 0.639199 0.639259 0.639319 0.639377 0.639434 0.639488 0.63954 
0.639588 0.639633 0.639675 0.639712 0.639745 0.639775 0.639799 0.63982 0.639837 
0.639849 0.639857 0.639861 0.63986 0.639856 0.639847 0.639835 0.639819 0.639799 
0.639775 0.639747 0.639716 0.639681 0.639643 0.639603 0.639559 0.639514 0.639467 
0.639419 0.63937 0.639323 0.639276 0.639233 0.639192 0.639156 0.639126 0.639102 
0.639085 0.639074 0.639072 0.639076 0.639088 0.639106 0.639131 0.639161 0.639196 
0.639235 0.639277 0.639322 0.63937 0.63942 0.639473 0.639528 0.639587 0.639649 
0.639716 0.639789 0.639869 0.639957 0.640055 0.640162 0.64028 0.640408 0.640532 
0.640692 0.640612 0.635823 0.623421 0.604599 0.580766 0.553265 0.523346 0.492186 
0.460914 0.430879 0.403448 0.380283 0.363129 0.3538 0.352482 0.352638 0.352777 
0.352903 0.353017 0.353119 0.353212 0.353295 0.353371 0.35344 0.353502 0.353519 
0.353334 0.353181 0.352704 0.345351 0.31912 0.305508 0.313307 0.316976 0.319541 
0.32316 0.327765 0.333058 0.338614 0.344207 0.349982 0.355785 0.361998 0.368158 
0.373696 0.377583 0.382969 0.391265 0.399954 0.407001 0.413694 0.421302 0.429714 
0.438149 0.446278 0.45255 0.45861 0.466289 0.471614 0.474957 0.480333 0.490278 
0.504821 0.508089 0.513578 0.51634 0.516008 0.459318 0.448171 0.434159 0.410373 
0.385075 0.370145 0.368465 0.367762 0.364312 0.362907 0.362888 0.358856 0.355496 
0.355552 0.355604 0.355654 0.355702 0.355747 0.35579 0.355831 0.355869 0.355905 
0.355939 0.35597 0.356 0.356029 0.356055 0.35608 0.356104 0.356126 0.356147 
0.356167 0.356186 0.356204 0.356222 0.356238 0.356254 0.35627 0.356284 0.356299 
0.356313 0.356326 0.356339 0.356351 0.356364 0.356376 0.356388 0.356399 0.35641 
0.356421 0.356432 0.356443 0.356453 0.356464 0.356474 0.356484 0.356494 0.356504 
0.356514 0.356523 0.356533 0.356542 0.356552 0.356561 0.35657 0.35658 0.356589 
0.356598 0.356607 0.356615 0.356624 0.356633 0.356642 0.35665 0.356659 0.356668 
0.356676 0.356685 0.356693 0.356701 0.35671 0.356718 0.356726 0.356734 0.356742 
0.35675 0.356758 0.356766 0.356774 0.356782 0.35679 0.356797 0.3568 0.356792 
0.356176 0.353951 0.350628 0.640004 0.640013 0.64002 0.640026 0.64003 0.640033 
0.640033 0.640032 0.640027 0.64002 0.640009 0.639996 0.639978 0.639956 0.63993 
0.6399 0.639865 0.639824 0.639779 0.639729 0.639674 0.639616 0.639554 0.639489 
0.639422 0.639354 0.639286 0.639218 0.639153 0.639089 0.639029 0.638972 0.638919 
0.63887 0.638825 0.638783 0.638746 0.638712 0.638683 0.638657 0.638636 0.638619 
0.638606 0.638598 0.638595 0.638596 0.638603 0.638615 0.638633 0.638656 0.638684 
0.638717 0.638756 0.638799 0.638846 0.638898 0.638952 0.63901 0.639069 0.63913 
0.639192 0.639254 0.639315 0.639375 0.639433 0.639489 0.639543 0.639592 0.639639 
0.639681 0.63972 0.639754 0.639784 0.63981 0.639831 0.639848 0.639861 0.639869 
0.639873 0.639872 0.639868 0.639859 0.639846 0.639829 0.639808 0.639783 0.639755 
0.639722 0.639686 0.639647 0.639605 0.639559 0.639512 0.639462 0.639412 0.639361 
0.639311 0.639263 0.639217 0.639174 0.639137 0.639105 0.63908 0.639062 0.639052 
0.63905 0.639055 0.639068 0.639088 0.639114 0.639146 0.639183 0.639223 0.639267 
0.639313 0.639361 0.639411 0.639462 0.639516 0.639572 0.639632 0.639695 0.639765 
0.639841 0.639925 0.640018 0.640122 0.640237 0.640362 0.640481 0.640636 0.640573 
0.635856 0.623632 0.605013 0.58131 0.553823 0.5238 0.492453 0.460977 0.430731 
0.403188 0.380052 0.363042 0.353841 0.352521 0.352675 0.352812 0.352935 0.353045 
0.353144 0.353233 0.353312 0.353382 0.353443 0.353494 0.353496 0.353305 0.353133 
0.352684 0.346405 0.324467 0.313678 0.321478 0.32494 0.327733 0.331467 0.335575 
0.340043 0.345085 0.351271 0.357833 0.363262 0.369095 0.375254 0.380809 0.384636 
0.389873 0.39902 0.408947 0.415608 0.422613 0.430203 0.439102 0.449057 0.458269 
0.465892 0.472475 0.477043 0.483003 0.488784 0.49713 0.501823 0.507786 0.513922 
0.520935 0.524546 0.527374 0.479515 0.462374 0.449244 0.432078 0.40855 0.381534 
0.369326 0.367972 0.365224 0.364164 0.364122 0.359197 0.355496 0.355552 0.355606 
0.355657 0.355706 0.355752 0.355795 0.355836 0.355874 0.35591 0.355943 0.355975 
0.356005 0.356032 0.356059 0.356083 0.356107 0.356129 0.35615 0.35617 0.356188 
0.356206 0.356224 0.35624 0.356256 0.356271 0.356286 0.3563 0.356313 0.356327 
0.35634 0.356352 0.356364 0.356376 0.356388 0.356399 0.356411 0.356422 0.356432 
0.356443 0.356454 0.356464 0.356474 0.356484 0.356494 0.356504 0.356514 0.356523 
0.356533 0.356542 0.356552 0.356561 0.35657 0.356579 0.356589 0.356598 0.356607 
0.356615 0.356624 0.356633 0.356642 0.35665 0.356659 0.356668 0.356676 0.356685 
0.356693 0.356701 0.35671 0.356718 0.356726 0.356734 0.356742 0.35675 0.356758 
0.356766 0.356774 0.356782 0.35679 0.356797 0.3568 0.356792 0.356176 0.353951 
0.350628 0.640005 0.640015 0.640024 0.640031 0.640037 0.64004 0.640041 0.64004 
0.640036 0.640029 0.640019 0.640005 0.639987 0.639965 0.639938 0.639906 0.639869 
0.639828 0.63978 0.639728 0.639671 0.63961 0.639545 0.639477 0.639408 0.639337 
0.639267 0.639199 0.639132 0.639068 0.639008 0.638951 0.638899 0.63885 0.638805 
0.638765 0.638728 0.638695 0.638666 0.63864 0.638619 0.638601 0.638588 0.63858 
0.638576 0.638576 0.638583 0.638594 0.638612 0.638634 0.638662 0.638696 0.638735 
0.638778 0.638827 0.638879 0.638935 0.638994 0.639055 0.639118 0.639182 0.639246 
0.63931 0.639372 0.639433 0.639491 0.639546 0.639598 0.639646 0.63969 0.63973 
0.639766 0.639797 0.639824 0.639846 0.639863 0.639876 0.639885 0.639889 0.639888 
0.639883 0.639874 0.639861 0.639843 0.639821 0.639795 0.639765 0.639731 0.639693 
0.639652 0.639607 0.639559 0.639509 0.639457 0.639403 0.639349 0.639296 0.639244 
0.639195 0.639149 0.63911 0.639076 0.63905 0.639031 0.639021 0.63902 0.639027 
0.639041 0.639064 0.639092 0.639127 0.639166 0.639208 0.639254 0.639301 0.63935 
0.639399 0.639449 0.6395 0.639554 0.639609 0.639668 0.639733 0.639803 0.639882 
0.63997 0.640069 0.64018 0.640304 0.640423 0.640581 0.640521 0.635837 0.623703 
0.6052 0.581585 0.554121 0.524052 0.492606 0.461028 0.430685 0.403114 0.380017 
0.363067 0.353893 0.352571 0.352721 0.352856 0.352976 0.353083 0.353178 0.353261 
0.353335 0.353398 0.353451 0.35349 0.353478 0.353284 0.3531 0.352681 0.347018 
0.326975 0.31821 0.326043 0.329882 0.333364 0.33934 0.34434 0.34576 0.348753 
0.355609 0.361689 0.366979 0.372384 0.378432 0.384465 0.389992 0.396448 0.403903 
0.411738 0.420844 0.429039 0.437691 0.447093 0.458862 0.468893 0.475243 0.479635 
0.482227 0.485788 0.493709 0.499246 0.504404 0.516119 0.526172 0.529228 0.533985 
0.537982 0.504413 0.484241 0.462604 0.44966 0.431626 0.402554 0.377897 0.367319 
0.36536 0.364284 0.364227 0.359237 0.355498 0.355557 0.355612 0.355664 0.355714 
0.35576 0.355803 0.355844 0.355882 0.355917 0.35595 0.355982 0.356011 0.356038 
0.356064 0.356089 0.356111 0.356133 0.356154 0.356173 0.356192 0.356209 0.356226 
0.356243 0.356258 0.356273 0.356288 0.356302 0.356315 0.356328 0.356341 0.356353 
0.356365 0.356377 0.356389 0.3564 0.356411 0.356422 0.356433 0.356444 0.356454 
0.356464 0.356474 0.356485 0.356494 0.356504 0.356514 0.356524 0.356533 0.356543 
0.356552 0.356561 0.35657 0.35658 0.356589 0.356598 0.356607 0.356616 0.356624 
0.356633 0.356642 0.35665 0.356659 0.356668 0.356676 0.356685 0.356693 0.356701 
0.35671 0.356718 0.356726 0.356734 0.356742 0.35675 0.356758 0.356766 0.356774 
0.356782 0.35679 0.356797 0.3568 0.356791 0.356176 0.353951 0.350628 0.640006 
0.640018 0.640029 0.640038 0.640044 0.640049 0.640051 0.64005 0.640047 0.64004 
0.64003 0.640016 0.639997 0.639975 0.639947 0.639914 0.639875 0.639831 0.639782 
0.639727 0.639666 0.639602 0.639533 0.639462 0.639389 0.639316 0.639244 0.639174 
0.639106 0.639042 0.638981 0.638925 0.638874 0.638826 0.638782 0.638743 0.638707 
0.638674 0.638645 0.63862 0.638598 0.638581 0.638567 0.638558 0.638553 0.638553 
0.638559 0.63857 0.638586 0.638609 0.638637 0.638671 0.63871 0.638754 0.638803 
0.638857 0.638915 0.638975 0.639039 0.639104 0.639171 0.639237 0.639304 0.639369 
0.639432 0.639493 0.639551 0.639605 0.639655 0.639702 0.639744 0.639781 0.639813 
0.639841 0.639864 0.639882 0.639896 0.639905 0.639909 0.639908 0.639903 0.639893 
0.639879 0.63986 0.639837 0.63981 0.639778 0.639742 0.639702 0.639658 0.63961 
0.639559 0.639505 0.639449 0.639391 0.639333 0.639275 0.639219 0.639166 0.639118 
0.639075 0.639038 0.63901 0.638991 0.638981 0.638981 0.63899 0.639007 0.639032 
0.639064 0.639102 0.639145 0.639191 0.639239 0.639288 0.639337 0.639386 0.639435 
0.639483 0.639532 0.639583 0.639636 0.639693 0.639756 0.639827 0.639908 0.640001 
0.640107 0.640227 0.640344 0.640505 0.640449 0.635784 0.623695 0.605256 0.581697 
0.554259 0.524178 0.492695 0.461077 0.430696 0.403126 0.380056 0.363132 0.353962 
0.352635 0.352783 0.352913 0.353029 0.353131 0.353221 0.353299 0.353367 0.353424 
0.353469 0.353499 0.353478 0.353286 0.353101 0.3527 0.347174 0.327471 0.319844 
0.328187 0.3332 0.337164 0.34165 0.346702 0.352014 0.356993 0.360686 0.365423 
0.370431 0.375422 0.381349 0.387204 0.394748 0.40246 0.410002 0.418589 0.427586 
0.437652 0.446766 0.456304 0.467516 0.479446 0.482027 0.483815 0.490357 0.496671 
0.504054 0.508374 0.510141 0.531048 0.534954 0.541333 0.54345 0.547489 0.52521 
0.51071 0.48738 0.466834 0.446885 0.421029 0.396095 0.373649 0.365442 0.363934 
0.363908 0.359243 0.355504 0.355564 0.355621 0.355674 0.355724 0.35577 0.355813 
0.355854 0.355892 0.355927 0.35596 0.35599 0.356019 0.356046 0.356071 0.356095 
0.356117 0.356138 0.356159 0.356178 0.356196 0.356213 0.35623 0.356246 0.356261 
0.356276 0.35629 0.356304 0.356317 0.35633 0.356342 0.356355 0.356367 0.356378 
0.35639 0.356401 0.356412 0.356423 0.356434 0.356444 0.356455 0.356465 0.356475 
0.356485 0.356495 0.356505 0.356514 0.356524 0.356533 0.356543 0.356552 0.356561 
0.356571 0.35658 0.356589 0.356598 0.356607 0.356616 0.356624 0.356633 0.356642 
0.356651 0.356659 0.356668 0.356676 0.356685 0.356693 0.356701 0.35671 0.356718 
0.356726 0.356734 0.356742 0.35675 0.356758 0.356766 0.356774 0.356782 0.35679 
0.356797 0.3568 0.356791 0.356176 0.353951 0.350628 0.640008 0.640022 0.640034 
0.640045 0.640053 0.640059 0.640062 0.640062 0.640059 0.640053 0.640043 0.640029 
0.64001 0.639986 0.639957 0.639923 0.639882 0.639836 0.639783 0.639724 0.63966 
0.639592 0.639519 0.639444 0.639367 0.639291 0.639216 0.639144 0.639075 0.639011 
0.638951 0.638897 0.638846 0.6388 0.638758 0.638719 0.638684 0.638653 0.638624 
0.638599 0.638577 0.638559 0.638545 0.638534 0.638529 0.638528 0.638533 0.638544 
0.63856 0.638582 0.638609 0.638643 0.638683 0.638728 0.638778 0.638833 0.638892 
0.638955 0.639021 0.639089 0.639158 0.639228 0.639297 0.639365 0.639432 0.639496 
0.639556 0.639614 0.639667 0.639715 0.639759 0.639798 0.639832 0.639861 0.639886 
0.639905 0.639919 0.639928 0.639932 0.639932 0.639926 0.639916 0.639901 0.639881 
0.639857 0.639828 0.639794 0.639755 0.639713 0.639665 0.639614 0.639559 0.639501 
0.63944 0.639377 0.639314 0.639251 0.639189 0.639131 0.639078 0.639031 0.638991 
0.638961 0.638941 0.638932 0.638933 0.638944 0.638965 0.638995 0.639031 0.639074 
0.639121 0.639172 0.639223 0.639274 0.639325 0.639373 0.63942 0.639465 0.639509 
0.639553 0.639599 0.639648 0.639701 0.639762 0.639833 0.639916 0.640014 0.640129 
0.640244 0.640405 0.640355 0.635702 0.623637 0.605236 0.581716 0.554305 0.524236 
0.492752 0.461132 0.430744 0.403183 0.38013 0.363216 0.354044 0.352714 0.352856 
0.352982 0.353093 0.353189 0.353274 0.353347 0.353408 0.353459 0.353498 0.353521 
0.353496 0.353307 0.353132 0.352747 0.347222 0.327607 0.320518 0.329025 0.33378 
0.337455 0.341889 0.347405 0.35424 0.359757 0.363589 0.368315 0.375053 0.382306 
0.387349 0.39374 0.401669 0.409917 0.418036 0.426385 0.436946 0.447031 0.458576 
0.468115 0.474248 0.479041 0.490674 0.501484 0.508282 0.515482 0.524399 0.528972 
0.535044 0.542278 0.548672 0.5605 0.564205 0.566767 0.54121 0.529376 0.508885 
0.482746 0.460247 0.439179 0.416573 0.38401 0.366424 0.36537 0.364722 0.359229 
0.355511 0.355574 0.355632 0.355686 0.355737 0.355783 0.355826 0.355867 0.355904 
0.355938 0.35597 0.356 0.356028 0.356055 0.356079 0.356102 0.356124 0.356145 
0.356164 0.356183 0.356201 0.356218 0.356234 0.356249 0.356264 0.356279 0.356292 
0.356306 0.356319 0.356332 0.356344 0.356356 0.356368 0.35638 0.356391 0.356402 
0.356413 0.356424 0.356434 0.356445 0.356455 0.356465 0.356475 0.356485 0.356495 
0.356505 0.356515 0.356524 0.356534 0.356543 0.356552 0.356562 0.356571 0.35658 
0.356589 0.356598 0.356607 0.356616 0.356625 0.356633 0.356642 0.356651 0.356659 
0.356668 0.356676 0.356685 0.356693 0.356701 0.35671 0.356718 0.356726 0.356734 
0.356742 0.35675 0.356758 0.356766 0.356774 0.356782 0.35679 0.356797 0.3568 
0.356791 0.356176 0.353951 0.350628 0.640009 0.640026 0.640041 0.640053 0.640063 
0.64007 0.640074 0.640075 0.640073 0.640067 0.640057 0.640043 0.640023 0.639999 
0.639969 0.639932 0.639889 0.63984 0.639784 0.639722 0.639653 0.63958 0.639503 
0.639423 0.639343 0.639263 0.639186 0.639113 0.639044 0.63898 0.638922 0.638868 
0.63882 0.638776 0.638735 0.638698 0.638664 0.638633 0.638605 0.638579 0.638557 
0.638538 0.638523 0.638512 0.638506 0.638505 0.638508 0.638518 0.638533 0.638554 
0.638582 0.638616 0.638655 0.638701 0.638753 0.638809 0.638871 0.638936 0.639004 
0.639075 0.639147 0.63922 0.639292 0.639363 0.639433 0.6395 0.639564 0.639624 
0.63968 0.639731 0.639777 0.639818 0.639854 0.639885 0.63991 0.63993 0.639945 
0.639955 0.639959 0.639959 0.639952 0.639941 0.639925 0.639904 0.639879 0.639848 
0.639812 0.639771 0.639725 0.639674 0.639619 0.639559 0.639495 0.639429 0.63936 
0.63929 0.639221 0.639153 0.639088 0.639029 0.638977 0.638934 0.638902 0.638881 
0.638872 0.638875 0.638891 0.638916 0.638951 0.638993 0.639042 0.639096 0.639152 
0.639208 0.639262 0.639314 0.639362 0.639407 0.639448 0.639487 0.639524 0.63956 
0.639598 0.63964 0.639688 0.639746 0.639816 0.639902 0.640007 0.640117 0.640278 
0.640233 0.635591 0.623544 0.605169 0.581682 0.554303 0.524261 0.492801 0.461201 
0.430822 0.403271 0.380229 0.363319 0.354143 0.352807 0.352944 0.353063 0.353167 