# vtk DataFile Version 5.1
vtk output
ASCII
DATASET UNSTRUCTURED_GRID
POINTS 10043 double
-10.1 1.4499999993 0 -10.049999999 1.4499999993 0 -10.049999999 1.5 0 
-9.9999999985 1.4499999993 0 -9.9999999985 1.5 0 -9.9499999978 1.4499999993 0 
-9.9499999978 1.5 0 -9.899999997 1.4499999993 0 -9.899999997 1.5 0 
-9.8499999963 1.4499999993 0 -9.8499999963 1.5 0 -9.7999999955 1.4499999993 0 
-9.7999999955 1.5 0 -9.7499999948 1.4499999993 0 -9.7499999948 1.5 0 
-9.699999994 1.4499999993 0 -9.699999994 1.5 0 -9.6499999933 1.4499999993 0 
-9.6499999933 1.5 0 -9.5999999925 1.4499999993 0 -9.5999999925 1.5 0 
-9.5499999918 1.4499999993 0 -9.5499999918 1.5 0 -9.4999999911 1.4499999993 0 
-9.4999999911 1.5 0 -9.4499999903 1.4499999993 0 -9.4499999903 1.5 0 
-9.3999999896 1.4499999993 0 -9.3999999896 1.5 0 -9.3499999888 1.4499999993 0 
-9.3499999888 1.5 0 -9.2999999881 1.4499999993 0 -9.2999999881 1.5 0 
-9.2499999873 1.4499999993 0 -9.2499999873 1.5 0 -9.1999999866 1.4499999993 0 
-9.1999999866 1.5 0 -9.1499999858 1.4499999993 0 -9.1499999858 1.5 0 
-9.0999999851 1.4499999993 0 -9.0999999851 1.5 0 -9.0499999844 1.4499999993 0 
-9.0499999844 1.5 0 -8.9999999836 1.4499999993 0 -8.9999999836 1.5 0 
-8.9499999829 1.4499999993 0 -8.9499999829 1.5 0 -8.8999999821 1.4499999993 0 
-8.8999999821 1.5 0 -8.8499999814 1.4499999993 0 -8.8499999814 1.5 0 
-8.7999999806 1.4499999993 0 -8.7999999806 1.5 0 -8.7499999799 1.4499999993 0 
-8.7499999799 1.5 0 -8.6999999791 1.4499999993 0 -8.6999999791 1.5 0 
-8.6499999784 1.4499999993 0 -8.6499999784 1.5 0 -8.5999999776 1.4499999993 0 
-8.5999999776 1.5 0 -8.5499999769 1.4499999993 0 -8.5499999769 1.5 0 
-8.4999999762 1.4499999993 0 -8.4999999762 1.5 0 -8.4499999754 1.4499999993 0 
-8.4499999754 1.5 0 -8.3999999747 1.4499999993 0 -8.3999999747 1.5 0 
-8.3499999739 1.4499999993 0 -8.3499999739 1.5 0 -8.2999999732 1.4499999993 0 
-8.2999999732 1.5 0 -8.2499999724 1.4499999993 0 -8.2499999724 1.5 0 
-8.1999999717 1.4499999993 0 -8.1999999717 1.5 0 -8.1499999709 1.4499999993 0 
-8.1499999709 1.5 0 -8.0999999702 1.4499999993 0 -8.0999999702 1.5 0 
-8.0499999695 1.4499999993 0 -8.0499999695 1.5 0 -7.9999999687 1.4499999993 0 
-7.9999999687 1.5 0 -7.949999968 1.4499999993 0 -7.949999968 1.5 0 
-7.8999999672 1.4499999993 0 -7.8999999672 1.5 0 -7.8499999665 1.4499999993 0 
-7.8499999665 1.5 0 -7.7999999657 1.4499999993 0 -7.7999999657 1.5 0 
-7.749999965 1.4499999993 0 -7.749999965 1.5 0 -7.6999999642 1.4499999993 0 
-7.6999999642 1.5 0 -7.6499999635 1.4499999993 0 -7.6499999635 1.5 0 
-7.5999999627 1.4499999993 0 -7.5999999627 1.5 0 -7.549999962 1.4499999993 0 
-7.549999962 1.5 0 -7.4999999613 1.4499999993 0 -7.4999999613 1.5 0 
-7.4499999605 1.4499999993 0 -7.4499999605 1.5 0 -7.3999999598 1.4499999993 0 
-7.3999999598 1.5 0 -7.349999959 1.4499999993 0 -7.349999959 1.5 0 
-7.2999999583 1.4499999993 0 -7.2999999583 1.5 0 -7.2499999575 1.4499999993 0 
-7.2499999575 1.5 0 -7.1999999568 1.4499999993 0 -7.1999999568 1.5 0 
-7.149999956 1.4499999993 0 -7.149999956 1.5 0 -7.0999999553 1.4499999993 0 
-7.0999999553 1.5 0 -7.0499999546 1.4499999993 0 -7.0499999546 1.5 0 
-6.9999999538 1.4499999993 0 -6.9999999538 1.5 0 -6.9499999531 1.4499999993 0 
-6.9499999531 1.5 0 -6.8999999523 1.4499999993 0 -6.8999999523 1.5 0 
-6.8499999516 1.4499999993 0 -6.8499999516 1.5 0 -6.7999999508 1.4499999993 0 
-6.7999999508 1.5 0 -6.7499999501 1.4499999993 0 -6.7499999501 1.5 0 
-6.6999999493 1.4499999993 0 -6.6999999493 1.5 0 -6.6499999486 1.4499999993 0 
-6.6499999486 1.5 0 -6.5999999478 1.4499999993 0 -6.5999999478 1.5 0 
-6.5499999471 1.4499999993 0 -6.5499999471 1.5 0 -6.4999999464 1.4499999993 0 
-6.4999999464 1.5 0 -6.4499999456 1.4499999993 0 -6.4499999456 1.5 0 
-6.3999999449 1.4499999993 0 -6.3999999449 1.5 0 -6.3499999441 1.4499999993 0 
-6.3499999441 1.5 0 -6.2999999434 1.4499999993 0 -6.2999999434 1.5 0 
-6.2499999426 1.4499999993 0 -6.2499999426 1.5 0 -6.1999999419 1.4499999993 0 
-6.1999999419 1.5 0 -6.1499999411 1.4499999993 0 -6.1499999411 1.5 0 
-6.0999999404 1.4499999993 0 -6.0999999404 1.5 0 -6.0499999397 1.4499999993 0 
-6.0499999397 1.5 0 -5.9999999389 1.4499999993 0 -5.9999999389 1.5 0 
-5.9499999382 1.4499999993 0 -5.9499999382 1.5 0 -5.8999999374 1.4499999993 0 
-5.8999999374 1.5 0 -5.8499999367 1.4499999993 0 -5.8499999367 1.5 0 
-5.7999999359 1.4499999993 0 -5.7999999359 1.5 0 -5.7499999352 1.4499999993 0 
-5.7499999352 1.5 0 -5.6999999344 1.4499999993 0 -5.6999999344 1.5 0 
-5.6499999337 1.4499999993 0 -5.6499999337 1.5 0 -5.5999999329 1.4499999993 0 
-5.5999999329 1.5 0 -5.5499999322 1.4499999993 0 -5.5499999322 1.5 0 
-5.4999999315 1.4499999993 0 -5.4999999315 1.5 0 -5.4499999307 1.4499999993 0 
-5.4499999307 1.5 0 -5.39999993 1.4499999993 0 -5.39999993 1.5 0 
-5.3499999292 1.4499999993 0 -5.3499999292 1.5 0 -5.2999999285 1.4499999993 0 
-5.2999999285 1.5 0 -5.2499999277 1.4499999993 0 -5.2499999277 1.5 0 
-5.199999927 1.4499999993 0 -5.199999927 1.5 0 -5.1499999262 1.4499999993 0 
-5.1499999262 1.5 0 -5.0999999255 1.4499999993 0 -5.0999999255 1.5 0 
-5.0499999247 1.4499999993 0 -5.0499999247 1.5 0 -4.999999924 1.4499999993 0 
-4.999999924 1.5 0 -4.9499999233 1.4499999993 0 -4.9499999233 1.5 0 
-4.8999999225 1.4499999993 0 -4.8999999225 1.5 0 -4.8499999218 1.4499999993 0 
-4.8499999218 1.5 0 -4.799999921 1.4499999993 0 -4.799999921 1.5 0 
-4.7499999203 1.4499999993 0 -4.7499999203 1.5 0 -4.6999999195 1.4499999993 0 
-4.6999999195 1.5 0 -4.6499999188 1.4499999993 0 -4.6499999188 1.5 0 
-4.599999918 1.4499999993 0 -4.599999918 1.5 0 -4.5499999173 1.4499999993 0 
-4.5499999173 1.5 0 -4.4999999166 1.4499999993 0 -4.4999999166 1.5 0 
-4.4499999158 1.4499999993 0 -4.4499999158 1.5 0 -4.3999999151 1.4499999993 0 
-4.3999999151 1.5 0 -4.3499999143 1.4499999993 0 -4.3499999143 1.5 0 
-4.2999999136 1.4499999993 0 -4.2999999136 1.5 0 -4.2499999128 1.4499999993 0 
-4.2499999128 1.5 0 -4.1999999121 1.4499999993 0 -4.1999999121 1.5 0 
-4.1499999113 1.4499999993 0 -4.1499999113 1.5 0 -4.0999999106 1.4499999993 0 
-4.0999999106 1.5 0 -4.0499999098 1.4499999993 0 -4.0499999098 1.5 0 
-3.9999999091 1.4499999993 0 -3.9999999091 1.5 0 -3.9499999084 1.4499999993 0 
-3.9499999084 1.5 0 -3.8999999076 1.4499999993 0 -3.8999999076 1.5 0 
-3.8499999069 1.4499999993 0 -3.8499999069 1.5 0 -3.7999999061 1.4499999993 0 
-3.7999999061 1.5 0 -3.7499999054 1.4499999993 0 -3.7499999054 1.5 0 
-3.6999999046 1.4499999993 0 -3.6999999046 1.5 0 -3.6499999039 1.4499999993 0 
-3.6499999039 1.5 0 -3.5999999031 1.4499999993 0 -3.5999999031 1.5 0 
-3.5499999024 1.4499999993 0 -3.5499999024 1.5 0 -3.4999999017 1.4499999993 0 
-3.4999999017 1.5 0 -3.4499999009 1.4499999993 0 -3.4499999009 1.5 0 
-3.3999999002 1.4499999993 0 -3.3999999002 1.5 0 -3.3499998994 1.4499999993 0 
-3.3499998994 1.5 0 -3.2999998987 1.4499999993 0 -3.2999998987 1.5 0 
-3.2499998979 1.4499999993 0 -3.2499998979 1.5 0 -3.1999998972 1.4499999993 0 
-3.1999998972 1.5 0 -3.1499998964 1.4499999993 0 -3.1499998964 1.5 0 
-3.0999998957 1.4499999993 0 -3.0999998957 1.5 0 -3.0499998949 1.4499999993 0 
-3.0499998949 1.5 0 -2.9999998942 1.4499999993 0 -2.9999998942 1.5 0 
-2.9499998935 1.4499999993 0 -2.9499998935 1.5 0 -2.8999998927 1.4499999993 0 
-2.8999998927 1.5 0 -2.849999892 1.4499999993 0 -2.849999892 1.5 0 
-2.7999998912 1.4499999993 0 -2.7999998912 1.5 0 -2.7499998905 1.4499999993 0 
-2.7499998905 1.5 0 -2.6999998897 1.4499999993 0 -2.6999998897 1.5 0 
-2.649999889 1.4499999993 0 -2.649999889 1.5 0 -2.5999998882 1.4499999993 0 
-2.5999998882 1.5 0 -2.5499998875 1.4499999993 0 -2.5499998875 1.5 0 
-2.4999998868 1.4499999993 0 -2.4999998868 1.5 0 -2.449999886 1.4499999993 0 
-2.449999886 1.5 0 -2.3999998853 1.4499999993 0 -2.3999998853 1.5 0 
-2.3499998845 1.4499999993 0 -2.3499998845 1.5 0 -2.2999998838 1.4499999993 0 
-2.2999998838 1.5 0 -2.249999883 1.4499999993 0 -2.249999883 1.5 0 
-2.1999998823 1.4499999993 0 -2.1999998823 1.5 0 -2.1499998815 1.4499999993 0 
-2.1499998815 1.5 0 -2.0999998808 1.4499999993 0 -2.0999998808 1.5 0 
-2.04999988 1.4499999993 0 -2.04999988 1.5 0 -1.9999998793 1.4499999993 0 
-1.9999998793 1.5 0 -1.9499998786 1.4499999993 0 -1.9499998786 1.5 0 
-1.8999998778 1.4499999993 0 -1.8999998778 1.5 0 -1.8499998771 1.4499999993 0 
-1.8499998771 1.5 0 -1.7999998763 1.4499999993 0 -1.7999998763 1.5 0 
-1.7499998756 1.4499999993 0 -1.7499998756 1.5 0 -1.6999998748 1.4499999993 0 
-1.6999998748 1.5 0 -1.6499998741 1.4499999993 0 -1.6499998741 1.5 0 
-1.5999998733 1.4499999993 0 -1.5999998733 1.5 0 -1.5499998726 1.4499999993 0 
-1.5499998726 1.5 0 -1.4999998718 1.4499999993 0 -1.4999998718 1.5 0 
-1.4499998711 1.4499999993 0 -1.4499998711 1.5 0 -1.3999998704 1.4499999993 0 
-1.3999998704 1.5 0 -1.3499998696 1.4499999993 0 -1.3499998696 1.5 0 
-1.2999998689 1.4499999993 0 -1.2999998689 1.5 0 -1.2499998681 1.4499999993 0 
-1.2499998681 1.5 0 -1.1999998674 1.4499999993 0 -1.1999998674 1.5 0 
-1.1499998666 1.4499999993 0 -1.1499998666 1.5 0 -1.0999998659 1.4499999993 0 
-1.0999998659 1.5 0 -1.0499998651 1.4499999993 0 -1.0499998651 1.5 0 
-0.9999998644 1.4499999993 0 -0.9999998644 1.5 0 -0.94999986365 1.4499999993 0 
-0.94999986365 1.5 0 -0.89999986291 1.4499999993 0 -0.89999986291 1.5 0 
-0.84999986216 1.4499999993 0 -0.84999986216 1.5 0 -0.79999986142 1.4499999993 0 
-0.79999986142 1.5 0 -0.74999986067 1.4499999993 0 -0.74999986067 1.5 0 
-0.69999985993 1.4499999993 0 -0.69999985993 1.5 0 -0.64999985918 1.4499999993 0 
-0.64999985918 1.5 0 -0.59999985844 1.4499999993 0 -0.59999985844 1.5 0 
-0.54999985769 1.4499999993 0 -0.54999985769 1.5 0 -0.49999985695 1.4499999993 0 
-0.49999985695 1.5 0 -0.4499998562 1.4499999993 0 -0.4499998562 1.5 0 
-0.39999985546 1.4499999993 0 -0.39999985546 1.5 0 -0.34999985471 1.4499999993 0 
-0.34999985471 1.5 0 -0.29999985397 1.4499999993 0 -0.29999985397 1.5 0 
-0.24999985322 1.4499999993 0 -0.24999985322 1.5 0 -0.191663057 1.4499999993 0 
-0.17548248559 1.5 0 0.18862900414 1.4499999993 0 0.25000015423 1.4499999993 0 
[...]
CELL_DATA 9510
FIELD FieldData 4
Water_Depth_m 1 9510 float
0.420002 0.420005 0.420008 0.420012 0.420015 0.420018 0.420022 0.420025 0.420029 
0.420032 0.420035 0.420039 0.420042 0.420045 0.420049 0.420052 0.420056 0.420059 
0.420062 0.420066 0.420069 0.420072 0.420076 0.420079 0.420082 0.420086 0.420089 
0.420092 0.420096 0.420099 0.420103 0.420106 0.420109 0.420113 0.420116 0.420119 
0.420123 0.420126 0.420129 0.420133 0.420136 0.42014 0.420143 0.420146 0.42015 
0.420153 0.420156 0.42016 0.420163 0.420166 0.42017 0.420173 0.420177 0.42018 
0.420183 0.420187 0.42019 0.420193 0.420197 0.4202 0.420203 0.420207 0.42021 
0.420213 0.420217 0.42022 0.420224 0.420227 0.42023 0.420234 0.420237 0.42024 
0.420244 0.420247 0.42025 0.420254 0.420257 0.42026 0.420264 0.420267 0.420271 
0.420274 0.420277 0.420281 0.420284 0.420287 0.420291 0.420294 0.420297 0.420301 
0.420304 0.420307 0.420311 0.420314 0.420318 0.420321 0.420324 0.420328 0.420331 
0.420334 0.420338 0.420341 0.420344 0.420348 0.420351 0.420354 0.420358 0.420361 
0.420364 0.420368 0.420371 0.420375 0.420378 0.420381 0.420385 0.420388 0.420391 
0.420395 0.420398 0.420401 0.420405 0.420408 0.420411 0.420415 0.420418 0.420422 
0.420425 0.420428 0.420432 0.420435 0.420438 0.420442 0.420445 0.420448 0.420452 
0.420455 0.420458 0.420462 0.420465 0.420468 0.420472 0.420475 0.420479 0.420482 
0.420485 0.420489 0.420492 0.420495 0.420499 0.420502 0.420505 0.420509 0.420512 
0.420515 0.420519 0.420522 0.420525 0.420529 0.420532 0.420536 0.420539 0.420542 
0.420546 0.420549 0.420552 0.420556 0.420559 0.420562 0.420566 0.420569 0.420573 
0.420576 0.420579 0.420583 0.420586 0.42059 0.420593 0.420596 0.4206 0.420603 
0.420607 0.42061 0.420614 0.420617 0.420621 0.420624 0.420628 0.420631 0.420635 
0.420639 0.420643 0.420647 0.420651 0.420656 0.42066 0.420667 0.42068 0.420698 
0.540051 0.540035 0.540028 0.540024 0.540022 0.540022 0.540022 0.540022 0.540022 
0.540023 0.540024 0.540025 0.540026 0.540027 0.540028 0.54003 0.540031 0.540032 
0.540033 0.540035 0.540036 0.540037 0.540039 0.54004 0.540041 0.540043 0.540044 
0.540046 0.540047 0.540048 0.54005 0.540051 0.540053 0.540054 0.540056 0.540057 
0.540058 0.54006 0.540061 0.540063 0.540064 0.540066 0.540067 0.540068 0.54007 
0.540071 0.540073 0.540074 0.540076 0.540077 0.540079 0.54008 0.540081 0.540083 
0.540084 0.540086 0.540087 0.540089 0.54009 0.540092 0.540093 0.540094 0.540096 
0.540097 0.540099 0.5401 0.540102 0.540103 0.540105 0.540106 0.540107 0.540109 
0.54011 0.540112 0.540113 0.540115 0.540116 0.540118 0.540119 0.54012 0.540122 
0.540123 0.540125 0.540126 0.540128 0.540129 0.54013 0.540132 0.540133 0.540135 
0.540136 0.540138 0.540139 0.540128 0.540121 0.538439 0.533967 0.420002 0.420005 
0.420008 0.420012 0.420015 0.420018 0.420022 0.420025 0.420029 0.420032 0.420035 
0.420039 0.420042 0.420045 0.420049 0.420052 0.420056 0.420059 0.420062 0.420066 
0.420069 0.420072 0.420076 0.420079 0.420082 0.420086 0.420089 0.420092 0.420096 
0.420099 0.420103 0.420106 0.420109 0.420113 0.420116 0.420119 0.420123 0.420126 
0.420129 0.420133 0.420136 0.42014 0.420143 0.420146 0.42015 0.420153 0.420156 
0.42016 0.420163 0.420166 0.42017 0.420173 0.420177 0.42018 0.420183 0.420187 
0.42019 0.420193 0.420197 0.4202 0.420203 0.420207 0.42021 0.420213 0.420217 
0.42022 0.420224 0.420227 0.42023 0.420234 0.420237 0.42024 0.420244 0.420247 
0.42025 0.420254 0.420257 0.42026 0.420264 0.420267 0.420271 0.420274 0.420277 
0.420281 0.420284 0.420287 0.420291 0.420294 0.420297 0.420301 0.420304 0.420307 
0.420311 0.420314 0.420318 0.420321 0.420324 0.420328 0.420331 0.420334 0.420338 
0.420341 0.420344 0.420348 0.420351 0.420354 0.420358 0.420361 0.420364 0.420368 
0.420371 0.420375 0.420378 0.420381 0.420385 0.420388 0.420391 0.420395 0.420398 
0.420401 0.420405 0.420408 0.420411 0.420415 0.420418 0.420422 0.420425 0.420428 
0.420432 0.420435 0.420438 0.420442 0.420445 0.420448 0.420452 0.420455 0.420458 
0.420462 0.420465 0.420468 0.420472 0.420475 0.420479 0.420482 0.420485 0.420489 
0.420492 0.420495 0.420499 0.420502 0.420505 0.420509 0.420512 0.420515 0.420519 
0.420522 0.420525 0.420529 0.420532 0.420536 0.420539 0.420542 0.420546 0.420549 
0.420552 0.420556 0.420559 0.420562 0.420566 0.420569 0.420573 0.420576 0.420579 
0.420583 0.420586 0.42059 0.420593 0.420596 0.4206 0.420603 0.420607 0.42061 
0.420614 0.420617 0.420621 0.420624 0.420628 0.420631 0.420635 0.420639 0.420643 
0.420647 0.420651 0.420655 0.420659 0.420665 0.420666 0.420694 0.54003 0.540027 
0.540024 0.540022 0.540021 0.540021 0.540021 0.540022 0.540022 0.540023 0.540024 
0.540025 0.540026 0.540027 0.540028 0.54003 0.540031 0.540032 0.540033 0.540035 
0.540036 0.540037 0.540039 0.54004 0.540041 0.540043 0.540044 0.540046 0.540047 
0.540048 0.54005 0.540051 0.540053 0.540054 0.540056 0.540057 0.540058 0.54006 
0.540061 0.540063 0.540064 0.540066 0.540067 0.540068 0.54007 0.540071 0.540073 
0.540074 0.540076 0.540077 0.540079 0.54008 0.540081 0.540083 0.540084 0.540086 
0.540087 0.540089 0.54009 0.540092 0.540093 0.540094 0.540096 0.540097 0.540099 
0.5401 0.540102 0.540103 0.540105 0.540106 0.540107 0.540109 0.54011 0.540112 
0.540113 0.540115 0.540116 0.540118 0.540119 0.54012 0.540122 0.540123 0.540125 
0.540126 0.540128 0.540129 0.54013 0.540132 0.540133 0.540135 0.540136 0.540138 
0.540139 0.540128 0.540121 0.538439 0.533967 0.420002 0.420005 0.420008 0.420012 
0.420015 0.420018 0.420022 0.420025 0.420029 0.420032 0.420035 0.420039 0.420042 
0.420045 0.420049 0.420052 0.420056 0.420059 0.420062 0.420066 0.420069 0.420072 
0.420076 0.420079 0.420082 0.420086 0.420089 0.420092 0.420096 0.420099 0.420103 
0.420106 0.420109 0.420113 0.420116 0.420119 0.420123 0.420126 0.420129 0.420133 
0.420136 0.42014 0.420143 0.420146 0.42015 0.420153 0.420156 0.42016 0.420163 
0.420166 0.42017 0.420173 0.420177 0.42018 0.420183 0.420187 0.42019 0.420193 
0.420197 0.4202 0.420203 0.420207 0.42021 0.420213 0.420217 0.42022 0.420224 
0.420227 0.42023 0.420234 0.420237 0.42024 0.420244 0.420247 0.42025 0.420254 
0.420257 0.42026 0.420264 0.420267 0.420271 0.420274 0.420277 0.420281 0.420284 
0.420287 0.420291 0.420294 0.420297 0.420301 0.420304 0.420307 0.420311 0.420314 
0.420318 0.420321 0.420324 0.420328 0.420331 0.420334 0.420338 0.420341 0.420344 
0.420348 0.420351 0.420354 0.420358 0.420361 0.420364 0.420368 0.420371 0.420375 
0.420378 0.420381 0.420385 0.420388 0.420391 0.420395 0.420398 0.420401 0.420405 
0.420408 0.420411 0.420415 0.420418 0.420422 0.420425 0.420428 0.420432 0.420435 
0.420438 0.420442 0.420445 0.420448 0.420452 0.420455 0.420458 0.420462 0.420465 
0.420468 0.420472 0.420475 0.420479 0.420482 0.420485 0.420489 0.420492 0.420495 
0.420499 0.420502 0.420505 0.420509 0.420512 0.420515 0.420519 0.420522 0.420525 
0.420529 0.420532 0.420536 0.420539 0.420542 0.420546 0.420549 0.420552 0.420556 
0.420559 0.420562 0.420566 0.420569 0.420573 0.420576 0.420579 0.420583 0.420586 
0.42059 0.420593 0.420596 0.4206 0.420603 0.420607 0.42061 0.420614 0.420617 
0.420621 0.420624 0.420628 0.420631 0.420635 0.420639 0.420642 0.420646 0.42065 
0.420654 0.420659 0.420662 0.420668 0.420695 0.540015 0.540019 0.54002 0.54002 
0.54002 0.54002 0.54002 0.540021 0.540022 0.540023 0.540024 0.540025 0.540026 
0.540027 0.540028 0.540029 0.540031 0.540032 0.540033 0.540035 0.540036 0.540037 
0.540039 0.54004 0.540041 0.540043 0.540044 0.540046 0.540047 0.540048 0.54005 
0.540051 0.540053 0.540054 0.540056 0.540057 0.540058 0.54006 0.540061 0.540063 
0.540064 0.540066 0.540067 0.540068 0.54007 0.540071 0.540073 0.540074 0.540076 
0.540077 0.540079 0.54008 0.540081 0.540083 0.540084 0.540086 0.540087 0.540089 
0.54009 0.540092 0.540093 0.540094 0.540096 0.540097 0.540099 0.5401 0.540102 
0.540103 0.540105 0.540106 0.540107 0.540109 0.54011 0.540112 0.540113 0.540115 
0.540116 0.540118 0.540119 0.54012 0.540122 0.540123 0.540125 0.540126 0.540128 
0.540129 0.54013 0.540132 0.540133 0.540135 0.540136 0.540138 0.540139 0.540128 
0.540121 0.538439 0.533967 0.420002 0.420005 0.420008 0.420012 0.420015 0.420018 
0.420022 0.420025 0.420029 0.420032 0.420035 0.420039 0.420042 0.420045 0.420049 
0.420052 0.420056 0.420059 0.420062 0.420066 0.420069 0.420072 0.420076 0.420079 
0.420082 0.420086 0.420089 0.420092 0.420096 0.420099 0.420103 0.420106 0.420109 
0.420113 0.420116 0.420119 0.420123 0.420126 0.420129 0.420133 0.420136 0.42014 
0.420143 0.420146 0.42015 0.420153 0.420156 0.42016 0.420163 0.420166 0.42017 
0.420173 0.420177 0.42018 0.420183 0.420187 0.42019 0.420193 0.420197 0.4202 
0.420203 0.420207 0.42021 0.420213 0.420217 0.42022 0.420224 0.420227 0.42023 
0.420234 0.420237 0.42024 0.420244 0.420247 0.42025 0.420254 0.420257 0.42026 
0.420264 0.420267 0.420271 0.420274 0.420277 0.420281 0.420284 0.420287 0.420291 
0.420294 0.420297 0.420301 0.420304 0.420307 0.420311 0.420314 0.420318 0.420321 
0.420324 0.420328 0.420331 0.420334 0.420338 0.420341 0.420344 0.420348 0.420351 
0.420354 0.420358 0.420361 0.420364 0.420368 0.420371 0.420375 0.420378 0.420381 
0.420385 0.420388 0.420391 0.420395 0.420398 0.420401 0.420405 0.420408 0.420411 
0.420415 0.420418 0.420422 0.420425 0.420428 0.420432 0.420435 0.420438 0.420442 
0.420445 0.420448 0.420452 0.420455 0.420458 0.420462 0.420465 0.420468 0.420472 
0.420475 0.420479 0.420482 0.420485 0.420489 0.420492 0.420495 0.420499 0.420502 
0.420505 0.420509 0.420512 0.420515 0.420519 0.420522 0.420525 0.420529 0.420532 
0.420536 0.420539 0.420542 0.420546 0.420549 0.420552 0.420556 0.420559 0.420562 
0.420566 0.420569 0.420573 0.420576 0.420579 0.420583 0.420586 0.42059 0.420593 
0.420596 0.4206 0.420603 0.420607 0.42061 0.420614 0.420617 0.420621 0.420624 
0.420628 0.420631 0.420635 0.420638 0.420642 0.420646 0.42065 0.420653 0.420658 
0.420661 0.420668 0.420695 0.540008 0.540013 0.540016 0.540017 0.540018 0.540019 
0.54002 0.54002 0.540021 0.540022 0.540023 0.540025 0.540026 0.540027 0.540028 
0.540029 0.540031 0.540032 0.540033 0.540035 0.540036 0.540037 0.540039 0.54004 
0.540041 0.540043 0.540044 0.540046 0.540047 0.540048 0.54005 0.540051 0.540053 
0.540054 0.540056 0.540057 0.540058 0.54006 0.540061 0.540063 0.540064 0.540066 
0.540067 0.540068 0.54007 0.540071 0.540073 0.540074 0.540076 0.540077 0.540079 
0.54008 0.540081 0.540083 0.540084 0.540086 0.540087 0.540089 0.54009 0.540092 
0.540093 0.540094 0.540096 0.540097 0.540099 0.5401 0.540102 0.540103 0.540105 
0.540106 0.540107 0.540109 0.54011 0.540112 0.540113 0.540115 0.540116 0.540118 
0.540119 0.54012 0.540122 0.540123 0.540125 0.540126 0.540128 0.540129 0.54013 
0.540132 0.540133 0.540135 0.540136 0.540138 0.540139 0.540128 0.540121 0.538439 
0.533967 0.420002 0.420005 0.420008 0.420012 0.420015 0.420018 0.420022 0.420025 
0.420029 0.420032 0.420035 0.420039 0.420042 0.420045 0.420049 0.420052 0.420056 
0.420059 0.420062 0.420066 0.420069 0.420072 0.420076 0.420079 0.420082 0.420086 
0.420089 0.420092 0.420096 0.420099 0.420103 0.420106 0.420109 0.420113 0.420116 
0.420119 0.420123 0.420126 0.420129 0.420133 0.420136 0.42014 0.420143 0.420146 
0.42015 0.420153 0.420156 0.42016 0.420163 0.420166 0.42017 0.420173 0.420177 
0.42018 0.420183 0.420187 0.42019 0.420193 0.420197 0.4202 0.420203 0.420207 
0.42021 0.420213 0.420217 0.42022 0.420224 0.420227 0.42023 0.420234 0.420237 
0.42024 0.420244 0.420247 0.42025 0.420254 0.420257 0.42026 0.420264 0.420267 
0.420271 0.420274 0.420277 0.420281 0.420284 0.420287 0.420291 0.420294 0.420297 
0.420301 0.420304 0.420307 0.420311 0.420314 0.420318 0.420321 0.420324 0.420328 
0.420331 0.420334 0.420338 0.420341 0.420344 0.420348 0.420351 0.420354 0.420358 
0.420361 0.420364 0.420368 0.420371 0.420375 0.420378 0.420381 0.420385 0.420388 
0.420391 0.420395 0.420398 0.420401 0.420405 0.420408 0.420411 0.420415 0.420418 
0.420422 0.420425 0.420428 0.420432 0.420435 0.420438 0.420442 0.420445 0.420448 
0.420452 0.420455 0.420458 0.420462 0.420465 0.420468 0.420472 0.420475 0.420479 
0.420482 0.420485 0.420489 0.420492 0.420495 0.420499 0.420502 0.420505 0.420509 
0.420512 0.420515 0.420519 0.420522 0.420525 0.420529 0.420532 0.420536 0.420539 
0.420542 0.420546 0.420549 0.420552 0.420556 0.420559 0.420562 0.420566 0.420569 
0.420573 0.420576 0.420579 0.420583 0.420586 0.42059 0.420593 0.420596 0.4206 
0.420603 0.420607 0.42061 0.420613 0.420617 0.42062 0.420624 0.420627 0.420631 
0.420635 0.420638 0.420642 0.420645 0.420649 0.420653 0.420657 0.42066 0.420668 
0.420693 0.540005 0.54001 0.540013 0.540015 0.540016 0.540018 0.540019 0.54002 
0.540021 0.540022 0.540023 0.540024 0.540025 0.540027 0.540028 0.540029 0.540031 
0.540032 0.540033 0.540035 0.540036 0.540037 0.540039 0.54004 0.540041 0.540043 
0.540044 0.540046 0.540047 0.540048 0.54005 0.540051 0.540053 0.540054 0.540056 
0.540057 0.540058 0.54006 0.540061 0.540063 0.540064 0.540066 0.540067 0.540068 
0.54007 0.540071 0.540073 0.540074 0.540076 0.540077 0.540079 0.54008 0.540081 
0.540083 0.540084 0.540086 0.540087 0.540089 0.54009 0.540092 0.540093 0.540094 
0.540096 0.540097 0.540099 0.5401 0.540102 0.540103 0.540105 0.540106 0.540107 
0.540109 0.54011 0.540112 0.540113 0.540115 0.540116 0.540118 0.540119 0.54012 
0.540122 0.540123 0.540125 0.540126 0.540128 0.540129 0.54013 0.540132 0.540133 
0.540135 0.540136 0.540138 0.540139 0.540128 0.540121 0.538439 0.533967 0.420002 
0.420005 0.420008 0.420012 0.420015 0.420018 0.420022 0.420025 0.420029 0.420032 
0.420035 0.420039 0.420042 0.420045 0.420049 0.420052 0.420056 0.420059 0.420062 
0.420066 0.420069 0.420072 0.420076 0.420079 0.420082 0.420086 0.420089 0.420092 
0.420096 0.420099 0.420103 0.420106 0.420109 0.420113 0.420116 0.420119 0.420123 
0.420126 0.420129 0.420133 0.420136 0.42014 0.420143 0.420146 0.42015 0.420153 
0.420156 0.42016 0.420163 0.420166 0.42017 0.420173 0.420177 0.42018 0.420183 
0.420187 0.42019 0.420193 0.420197 0.4202 0.420203 0.420207 0.42021 0.420213 
0.420217 0.42022 0.420224 0.420227 0.42023 0.420234 0.420237 0.42024 0.420244 
0.420247 0.42025 0.420254 0.420257 0.42026 0.420264 0.420267 0.420271 0.420274 
0.420277 0.420281 0.420284 0.420287 0.420291 0.420294 0.420297 0.420301 0.420304 
0.420307 0.420311 0.420314 0.420318 0.420321 0.420324 0.420328 0.420331 0.420334 
0.420338 0.420341 0.420344 0.420348 0.420351 0.420354 0.420358 0.420361 0.420364 
0.420368 0.420371 0.420375 0.420378 0.420381 0.420385 0.420388 0.420391 0.420395 
0.420398 0.420401 0.420405 0.420408 0.420411 0.420415 0.420418 0.420422 0.420425 
0.420428 0.420432 0.420435 0.420438 0.420442 0.420445 0.420448 0.420452 0.420455 
0.420458 0.420462 0.420465 0.420468 0.420472 0.420475 0.420479 0.420482 0.420485 
0.420489 0.420492 0.420495 0.420499 0.420502 0.420505 0.420509 0.420512 0.420515 
0.420519 0.420522 0.420525 0.420529 0.420532 0.420536 0.420539 0.420542 0.420546 
0.420549 0.420552 0.420556 0.420559 0.420562 0.420566 0.420569 0.420573 0.420576 
0.420579 0.420583 0.420586 0.420589 0.420593 0.420596 0.4206 0.420603 0.420607 
0.42061 0.420613 0.420617 0.42062 0.420624 0.420627 0.420631 0.420634 0.420638 
0.420641 0.420645 0.420648 0.420652 0.420656 0.420659 0.420666 0.420691 0.540004 
0.540008 0.540011 0.540013 0.540015 0.540016 0.540018 0.540019 0.54002 0.540021 
0.540023 0.540024 0.540025 0.540026 0.540028 0.540029 0.54003 0.540032 0.540033 
0.540034 0.540036 0.540037 0.540039 0.54004 0.540041 0.540043 0.540044 0.540046 
0.540047 0.540048 0.54005 0.540051 0.540053 0.540054 0.540056 0.540057 0.540058 
0.54006 0.540061 0.540063 0.540064 0.540066 0.540067 0.540068 0.54007 0.540071 
0.540073 0.540074 0.540076 0.540077 0.540079 0.54008 0.540081 0.540083 0.540084 
0.540086 0.540087 0.540089 0.54009 0.540092 0.540093 0.540094 0.540096 0.540097 
0.540099 0.5401 0.540102 0.540103 0.540105 0.540106 0.540107 0.540109 0.54011 
0.540112 0.540113 0.540115 0.540116 0.540118 0.540119 0.54012 0.540122 0.540123 
0.540125 0.540126 0.540128 0.540129 0.54013 0.540132 0.540133 0.540135 0.540136 
0.540138 0.540139 0.540128 0.540121 0.538439 0.533967 0.420002 0.420005 0.420008 
0.420012 0.420015 0.420018 0.420022 0.420025 0.420029 0.420032 0.420035 0.420039 
0.420042 0.420045 0.420049 0.420052 0.420056 0.420059 0.420062 0.420066 0.420069 
0.420072 0.420076 0.420079 0.420082 0.420086 0.420089 0.420092 0.420096 0.420099 
0.420103 0.420106 0.420109 0.420113 0.420116 0.420119 0.420123 0.420126 0.420129 
0.420133 0.420136 0.42014 0.420143 0.420146 0.42015 0.420153 0.420156 0.42016 
0.420163 0.420166 0.42017 0.420173 0.420177 0.42018 0.420183 0.420187 0.42019 
0.420193 0.420197 0.4202 0.420203 0.420207 0.42021 0.420213 0.420217 0.42022 
0.420224 0.420227 0.42023 0.420234 0.420237 0.42024 0.420244 0.420247 0.42025 
0.420254 0.420257 0.42026 0.420264 0.420267 0.420271 0.420274 0.420277 0.420281 
0.420284 0.420287 0.420291 0.420294 0.420297 0.420301 0.420304 0.420307 0.420311 
0.420314 0.420318 0.420321 0.420324 0.420328 0.420331 0.420334 0.420338 0.420341 
0.420344 0.420348 0.420351 0.420354 0.420358 0.420361 0.420364 0.420368 0.420371 
0.420375 0.420378 0.420381 0.420385 0.420388 0.420391 0.420395 0.420398 0.420401 
0.420405 0.420408 0.420411 0.420415 0.420418 0.420422 0.420425 0.420428 0.420432 
0.420435 0.420438 0.420442 0.420445 0.420448 0.420452 0.420455 0.420458 0.420462 
0.420465 0.420468 0.420472 0.420475 0.420479 0.420482 0.420485 0.420489 0.420492 
0.420495 0.420499 0.420502 0.420505 0.420509 0.420512 0.420515 0.420519 0.420522 
0.420525 0.420529 0.420532 0.420536 0.420539 0.420542 0.420546 0.420549 0.420552 
0.420556 0.420559 0.420562 0.420566 0.420569 0.420573 0.420576 0.420579 0.420583 
0.420586 0.420589 0.420593 0.420596 0.4206 0.420603 0.420606 0.42061 0.420613 
0.420617 0.42062 0.420624 0.420627 0.420631 0.420634 0.420637 0.420641 0.420644 
0.420648 0.420651 0.420655 0.420658 0.420664 0.420687 0.540004 0.540007 0.54001 
0.540012 0.540014 0.540015 0.540017 0.540018 0.54002 0.540021 0.540022 0.540024 
0.540025 0.540026 0.540028 0.540029 0.54003 0.540032 0.540033 0.540034 0.540036 
0.540037 0.540039 0.54004 0.540041 0.540043 0.540044 0.540046 0.540047 0.540048 
0.54005 0.540051 0.540053 0.540054 0.540056 0.540057 0.540058 0.54006 0.540061 
0.540063 0.540064 0.540066 0.540067 0.540068 0.54007 0.540071 0.540073 0.540074 
0.540076 0.540077 0.540079 0.54008 0.540081 0.540083 0.540084 0.540086 0.540087 
0.540089 0.54009 0.540092 0.540093 0.540094 0.540096 0.540097 0.540099 0.5401 
0.540102 0.540103 0.540105 0.540106 0.540107 0.540109 0.54011 0.540112 0.540113 
0.540115 0.540116 0.540118 0.540119 0.54012 0.540122 0.540123 0.540125 0.540126 
0.540128 0.540129 0.54013 0.540132 0.540133 0.540135 0.540136 0.540138 0.540139 
0.540128 0.540121 0.538439 0.533967 0.420002 0.420005 0.420008 0.420012 0.420015 
0.420018 0.420022 0.420025 0.420029 0.420032 0.420035 0.420039 0.420042 0.420045 
0.420049 0.420052 0.420056 0.420059 0.420062 0.420066 0.420069 0.420072 0.420076 
0.420079 0.420082 0.420086 0.420089 0.420092 0.420096 0.420099 0.420103 0.420106 
0.420109 0.420113 0.420116 0.420119 0.420123 0.420126 0.420129 0.420133 0.420136 
0.42014 0.420143 0.420146 0.42015 0.420153 0.420156 0.42016 0.420163 0.420166 
0.42017 0.420173 0.420177 0.42018 0.420183 0.420187 0.42019 0.420193 0.420197 
0.4202 0.420203 0.420207 0.42021 0.420213 0.420217 0.42022 0.420224 0.420227 
0.42023 0.420234 0.420237 0.42024 0.420244 0.420247 0.42025 0.420254 0.420257 
0.42026 0.420264 0.420267 0.420271 0.420274 0.420277 0.420281 0.420284 0.420287 
0.420291 0.420294 0.420297 0.420301 0.420304 0.420307 0.420311 0.420314 0.420318 
0.420321 0.420324 0.420328 0.420331 0.420334 0.420338 0.420341 0.420344 0.420348 
0.420351 0.420354 0.420358 0.420361 0.420364 0.420368 0.420371 0.420375 0.420378 
0.420381 0.420385 0.420388 0.420391 0.420395 0.420398 0.420401 0.420405 0.420408 
0.420411 0.420415 0.420418 0.420422 0.420425 0.420428 0.420432 0.420435 0.420438 
0.420442 0.420445 0.420448 0.420452 0.420455 0.420458 0.420462 0.420465 0.420468 
0.420472 0.420475 0.420479 0.420482 0.420485 0.420489 0.420492 0.420495 0.420499 