# vtk DataFile Version 5.1
vtk output
ASCII
DATASET UNSTRUCTURED_GRID
POINTS 10043 double
-10.1 1.4499999993 0 -10.049999999 1.4499999993 0 -10.049999999 1.5 0 
-9.9999999985 1.4499999993 0 -9.9999999985 1.5 0 -9.9499999978 1.4499999993 0 
-9.9499999978 1.5 0 -9.899999997 1.4499999993 0 -9.899999997 1.5 0 
-9.8499999963 1.4499999993 0 -9.8499999963 1.5 0 -9.7999999955 1.4499999993 0 
-9.7999999955 1.5 0 -9.7499999948 1.4499999993 0 -9.7499999948 1.5 0 
-9.699999994 1.4499999993 0 -9.699999994 1.5 0 -9.6499999933 1.4499999993 0 
-9.6499999933 1.5 0 -9.5999999925 1.4499999993 0 -9.5999999925 1.5 0 
-9.5499999918 1.4499999993 0 -9.5499999918 1.5 0 -9.4999999911 1.4499999993 0 
-9.4999999911 1.5 0 -9.4499999903 1.4499999993 0 -9.4499999903 1.5 0 
-9.3999999896 1.4499999993 0 -9.3999999896 1.5 0 -9.3499999888 1.4499999993 0 
-9.3499999888 1.5 0 -9.2999999881 1.4499999993 0 -9.2999999881 1.5 0 
-9.2499999873 1.4499999993 0 -9.2499999873 1.5 0 -9.1999999866 1.4499999993 0 
-9.1999999866 1.5 0 -9.1499999858 1.4499999993 0 -9.1499999858 1.5 0 
-9.0999999851 1.4499999993 0 -9.0999999851 1.5 0 -9.0499999844 1.4499999993 0 
-9.0499999844 1.5 0 -8.9999999836 1.4499999993 0 -8.9999999836 1.5 0 
-8.9499999829 1.4499999993 0 -8.9499999829 1.5 0 -8.8999999821 1.4499999993 0 
-8.8999999821 1.5 0 -8.8499999814 1.4499999993 0 -8.8499999814 1.5 0 
-8.7999999806 1.4499999993 0 -8.7999999806 1.5 0 -8.7499999799 1.4499999993 0 
-8.7499999799 1.5 0 -8.6999999791 1.4499999993 0 -8.6999999791 1.5 0 
-8.6499999784 1.4499999993 0 -8.6499999784 1.5 0 -8.5999999776 1.4499999993 0 
-8.5999999776 1.5 0 -8.5499999769 1.4499999993 0 -8.5499999769 1.5 0 
-8.4999999762 1.4499999993 0 -8.4999999762 1.5 0 -8.4499999754 1.4499999993 0 
-8.4499999754 1.5 0 -8.3999999747 1.4499999993 0 -8.3999999747 1.5 0 
-8.3499999739 1.4499999993 0 -8.3499999739 1.5 0 -8.2999999732 1.4499999993 0 
-8.2999999732 1.5 0 -8.2499999724 1.4499999993 0 -8.2499999724 1.5 0 
-8.1999999717 1.4499999993 0 -8.1999999717 1.5 0 -8.1499999709 1.4499999993 0 
-8.1499999709 1.5 0 -8.0999999702 1.4499999993 0 -8.0999999702 1.5 0 
-8.0499999695 1.4499999993 0 -8.0499999695 1.5 0 -7.9999999687 1.4499999993 0 
-7.9999999687 1.5 0 -7.949999968 1.4499999993 0 -7.949999968 1.5 0 
-7.8999999672 1.4499999993 0 -7.8999999672 1.5 0 -7.8499999665 1.4499999993 0 
-7.8499999665 1.5 0 -7.7999999657 1.4499999993 0 -7.7999999657 1.5 0 
-7.749999965 1.4499999993 0 -7.749999965 1.5 0 -7.6999999642 1.4499999993 0 
-7.6999999642 1.5 0 -7.6499999635 1.4499999993 0 -7.6499999635 1.5 0 
-7.5999999627 1.4499999993 0 -7.5999999627 1.5 0 -7.549999962 1.4499999993 0 
-7.549999962 1.5 0 -7.4999999613 1.4499999993 0 -7.4999999613 1.5 0 
-7.4499999605 1.4499999993 0 -7.4499999605 1.5 0 -7.3999999598 1.4499999993 0 
-7.3999999598 1.5 0 -7.349999959 1.4499999993 0 -7.349999959 1.5 0 
-7.2999999583 1.4499999993 0 -7.2999999583 1.5 0 -7.2499999575 1.4499999993 0 
-7.2499999575 1.5 0 -7.1999999568 1.4499999993 0 -7.1999999568 1.5 0 
-7.149999956 1.4499999993 0 -7.149999956 1.5 0 -7.0999999553 1.4499999993 0 
-7.0999999553 1.5 0 -7.0499999546 1.4499999993 0 -7.0499999546 1.5 0 
-6.9999999538 1.4499999993 0 -6.9999999538 1.5 0 -6.9499999531 1.4499999993 0 
-6.9499999531 1.5 0 -6.8999999523 1.4499999993 0 -6.8999999523 1.5 0 
-6.8499999516 1.4499999993 0 -6.8499999516 1.5 0 -6.7999999508 1.4499999993 0 
-6.7999999508 1.5 0 -6.7499999501 1.4499999993 0 -6.7499999501 1.5 0 
-6.6999999493 1.4499999993 0 -6.6999999493 1.5 0 -6.6499999486 1.4499999993 0 
-6.6499999486 1.5 0 -6.5999999478 1.4499999993 0 -6.5999999478 1.5 0 
-6.5499999471 1.4499999993 0 -6.5499999471 1.5 0 -6.4999999464 1.4499999993 0 
-6.4999999464 1.5 0 -6.4499999456 1.4499999993 0 -6.4499999456 1.5 0 
-6.3999999449 1.4499999993 0 -6.3999999449 1.5 0 -6.3499999441 1.4499999993 0 
-6.3499999441 1.5 0 -6.2999999434 1.4499999993 0 -6.2999999434 1.5 0 
-6.2499999426 1.4499999993 0 -6.2499999426 1.5 0 -6.1999999419 1.4499999993 0 
-6.1999999419 1.5 0 -6.1499999411 1.4499999993 0 -6.1499999411 1.5 0 
-6.0999999404 1.4499999993 0 -6.0999999404 1.5 0 -6.0499999397 1.4499999993 0 
-6.0499999397 1.5 0 -5.9999999389 1.4499999993 0 -5.9999999389 1.5 0 
-5.9499999382 1.4499999993 0 -5.9499999382 1.5 0 -5.8999999374 1.4499999993 0 
-5.8999999374 1.5 0 -5.8499999367 1.4499999993 0 -5.8499999367 1.5 0 
-5.7999999359 1.4499999993 0 -5.7999999359 1.5 0 -5.7499999352 1.4499999993 0 
-5.7499999352 1.5 0 -5.6999999344 1.4499999993 0 -5.6999999344 1.5 0 
-5.6499999337 1.4499999993 0 -5.6499999337 1.5 0 -5.5999999329 1.4499999993 0 
-5.5999999329 1.5 0 -5.5499999322 1.4499999993 0 -5.5499999322 1.5 0 
-5.4999999315 1.4499999993 0 -5.4999999315 1.5 0 -5.4499999307 1.4499999993 0 
-5.4499999307 1.5 0 -5.39999993 1.4499999993 0 -5.39999993 1.5 0 
-5.3499999292 1.4499999993 0 -5.3499999292 1.5 0 -5.2999999285 1.4499999993 0 
-5.2999999285 1.5 0 -5.2499999277 1.4499999993 0 -5.2499999277 1.5 0 
-5.199999927 1.4499999993 0 -5.199999927 1.5 0 -5.1499999262 1.4499999993 0 
-5.1499999262 1.5 0 -5.0999999255 1.4499999993 0 -5.0999999255 1.5 0 
-5.0499999247 1.4499999993 0 -5.0499999247 1.5 0 -4.999999924 1.4499999993 0 
-4.999999924 1.5 0 -4.9499999233 1.4499999993 0 -4.9499999233 1.5 0 
-4.8999999225 1.4499999993 0 -4.8999999225 1.5 0 -4.8499999218 1.4499999993 0 
-4.8499999218 1.5 0 -4.799999921 1.4499999993 0 -4.799999921 1.5 0 
-4.7499999203 1.4499999993 0 -4.7499999203 1.5 0 -4.6999999195 1.4499999993 0 
-4.6999999195 1.5 0 -4.6499999188 1.4499999993 0 -4.6499999188 1.5 0 
-4.599999918 1.4499999993 0 -4.599999918 1.5 0 -4.5499999173 1.4499999993 0 
-4.5499999173 1.5 0 -4.4999999166 1.4499999993 0 -4.4999999166 1.5 0 
-4.4499999158 1.4499999993 0 -4.4499999158 1.5 0 -4.3999999151 1.4499999993 0 
-4.3999999151 1.5 0 -4.3499999143 1.4499999993 0 -4.3499999143 1.5 0 
-4.2999999136 1.4499999993 0 -4.2999999136 1.5 0 -4.2499999128 1.4499999993 0 
-4.2499999128 1.5 0 -4.1999999121 1.4499999993 0 -4.1999999121 1.5 0 
-4.1499999113 1.4499999993 0 -4.1499999113 1.5 0 -4.0999999106 1.4499999993 0 
-4.0999999106 1.5 0 -4.0499999098 1.4499999993 0 -4.0499999098 1.5 0 
-3.9999999091 1.4499999993 0 -3.9999999091 1.5 0 -3.9499999084 1.4499999993 0 
-3.9499999084 1.5 0 -3.8999999076 1.4499999993 0 -3.8999999076 1.5 0 
-3.8499999069 1.4499999993 0 -3.8499999069 1.5 0 -3.7999999061 1.4499999993 0 
-3.7999999061 1.5 0 -3.7499999054 1.4499999993 0 -3.7499999054 1.5 0 
-3.6999999046 1.4499999993 0 -3.6999999046 1.5 0 -3.6499999039 1.4499999993 0 
-3.6499999039 1.5 0 -3.5999999031 1.4499999993 0 -3.5999999031 1.5 0 
-3.5499999024 1.4499999993 0 -3.5499999024 1.5 0 -3.4999999017 1.4499999993 0 
-3.4999999017 1.5 0 -3.4499999009 1.4499999993 0 -3.4499999009 1.5 0 
-3.3999999002 1.4499999993 0 -3.3999999002 1.5 0 -3.3499998994 1.4499999993 0 
-3.3499998994 1.5 0 -3.2999998987 1.4499999993 0 -3.2999998987 1.5 0 
-3.2499998979 1.4499999993 0 -3.2499998979 1.5 0 -3.1999998972 1.4499999993 0 
-3.1999998972 1.5 0 -3.1499998964 1.4499999993 0 -3.1499998964 1.5 0 
-3.0999998957 1.4499999993 0 -3.0999998957 1.5 0 -3.0499998949 1.4499999993 0 
-3.0499998949 1.5 0 -2.9999998942 1.4499999993 0 -2.9999998942 1.5 0 
-2.9499998935 1.4499999993 0 -2.9499998935 1.5 0 -2.8999998927 1.4499999993 0 
-2.8999998927 1.5 0 -2.849999892 1.4499999993 0 -2.849999892 1.5 0 
-2.7999998912 1.4499999993 0 -2.7999998912 1.5 0 -2.7499998905 1.4499999993 0 
-2.7499998905 1.5 0 -2.6999998897 1.4499999993 0 -2.6999998897 1.5 0 
-2.649999889 1.4499999993 0 -2.649999889 1.5 0 -2.5999998882 1.4499999993 0 
-2.5999998882 1.5 0 -2.5499998875 1.4499999993 0 -2.5499998875 1.5 0 
-2.4999998868 1.4499999993 0 -2.4999998868 1.5 0 -2.449999886 1.4499999993 0 
-2.449999886 1.5 0 -2.3999998853 1.4499999993 0 -2.3999998853 1.5 0 
-2.3499998845 1.4499999993 0 -2.3499998845 1.5 0 -2.2999998838 1.4499999993 0 
-2.2999998838 1.5 0 -2.249999883 1.4499999993 0 -2.249999883 1.5 0 
-2.1999998823 1.4499999993 0 -2.1999998823 1.5 0 -2.1499998815 1.4499999993 0 
-2.1499998815 1.5 0 -2.0999998808 1.4499999993 0 -2.0999998808 1.5 0 
-2.04999988 1.4499999993 0 -2.04999988 1.5 0 -1.9999998793 1.4499999993 0 
-1.9999998793 1.5 0 -1.9499998786 1.4499999993 0 -1.9499998786 1.5 0 
-1.8999998778 1.4499999993 0 -1.8999998778 1.5 0 -1.8499998771 1.4499999993 0 
-1.8499998771 1.5 0 -1.7999998763 1.4499999993 0 -1.7999998763 1.5 0 
-1.7499998756 1.4499999993 0 -1.7499998756 1.5 0 -1.6999998748 1.4499999993 0 
-1.6999998748 1.5 0 -1.6499998741 1.4499999993 0 -1.6499998741 1.5 0 
-1.5999998733 1.4499999993 0 -1.5999998733 1.5 0 -1.5499998726 1.4499999993 0 
-1.5499998726 1.5 0 -1.4999998718 1.4499999993 0 -1.4999998718 1.5 0 
-1.4499998711 1.4499999993 0 -1.4499998711 1.5 0 -1.3999998704 1.4499999993 0 
-1.3999998704 1.5 0 -1.3499998696 1.4499999993 0 -1.3499998696 1.5 0 
-1.2999998689 1.4499999993 0 -1.2999998689 1.5 0 -1.2499998681 1.4499999993 0 
-1.2499998681 1.5 0 -1.1999998674 1.4499999993 0 -1.1999998674 1.5 0 
-1.1499998666 1.4499999993 0 -1.1499998666 1.5 0 -1.0999998659 1.4499999993 0 
-1.0999998659 1.5 0 -1.0499998651 1.4499999993 0 -1.0499998651 1.5 0 
-0.9999998644 1.4499999993 0 -0.9999998644 1.5 0 -0.94999986365 1.4499999993 0 
-0.94999986365 1.5 0 -0.89999986291 1.4499999993 0 -0.89999986291 1.5 0 
-0.84999986216 1.4499999993 0 -0.84999986216 1.5 0 -0.79999986142 1.4499999993 0 
-0.79999986142 1.5 0 -0.74999986067 1.4499999993 0 -0.74999986067 1.5 0 
-0.69999985993 1.4499999993 0 -0.69999985993 1.5 0 -0.64999985918 1.4499999993 0 
-0.64999985918 1.5 0 -0.59999985844 1.4499999993 0 -0.59999985844 1.5 0 
-0.54999985769 1.4499999993 0 -0.54999985769 1.5 0 -0.49999985695 1.4499999993 0 
-0.49999985695 1.5 0 -0.4499998562 1.4499999993 0 -0.4499998562 1.5 0 
-0.39999985546 1.4499999993 0 -0.39999985546 1.5 0 -0.34999985471 1.4499999993 0 
-0.34999985471 1.5 0 -0.29999985397 1.4499999993 0 -0.29999985397 1.5 0 
-0.24999985322 1.4499999993 0 -0.24999985322 1.5 0 -0.191663057 1.4499999993 0 
-0.17548248559 1.5 0 0.18862900414 1.4499999993 0 0.25000015423 1.4499999993 0 
[...]
CELL_DATA 9510
FIELD FieldData 4
Water_Depth_m 1 9510 float
0.440001 0.440003 0.440004 0.440006 0.440008 0.44001 0.440012 0.440013 0.440015 
0.440017 0.440019 0.44002 0.440022 0.440024 0.440026 0.440027 0.440029 0.440031 
0.440033 0.440035 0.440036 0.440038 0.44004 0.440042 0.440043 0.440045 0.440047 
0.440049 0.440051 0.440052 0.440054 0.440056 0.440058 0.440059 0.440061 0.440063 
0.440065 0.440066 0.440068 0.44007 0.440072 0.440074 0.440075 0.440077 0.440079 
0.440081 0.440082 0.440084 0.440086 0.440088 0.440089 0.440091 0.440093 0.440095 
0.440096 0.440098 0.4401 0.440102 0.440104 0.440105 0.440107 0.440109 0.440111 
0.440112 0.440114 0.440116 0.440118 0.440119 0.440121 0.440123 0.440125 0.440126 
0.440128 0.44013 0.440132 0.440133 0.440135 0.440137 0.440139 0.44014 0.440142 
0.440144 0.440146 0.440147 0.440149 0.440151 0.440153 0.440154 0.440156 0.440158 
0.440159 0.440161 0.440163 0.440165 0.440167 0.440168 0.44017 0.440172 0.440173 
0.440175 0.440177 0.440179 0.44018 0.440182 0.440184 0.440186 0.440187 0.440189 
0.440191 0.440192 0.440194 0.440196 0.440198 0.440199 0.440201 0.440203 0.440205 
0.440206 0.440208 0.44021 0.440211 0.440213 0.440215 0.440217 0.440218 0.44022 
0.440222 0.440224 0.440225 0.440227 0.440229 0.44023 0.440232 0.440234 0.440236 
0.440237 0.440239 0.440241 0.440243 0.440244 0.440246 0.440248 0.44025 0.440251 
0.440253 0.440255 0.440257 0.440258 0.44026 0.440262 0.440264 0.440265 0.440267 
0.440269 0.440271 0.440272 0.440274 0.440276 0.440278 0.440279 0.440281 0.440283 
0.440285 0.440287 0.440288 0.44029 0.440292 0.440294 0.440296 0.440297 0.440299 
0.440301 0.440303 0.440305 0.440307 0.440309 0.440311 0.440313 0.440314 0.440316 
0.440318 0.44032 0.440323 0.440325 0.440327 0.440329 0.440331 0.440333 0.440335 
0.440338 0.44034 0.440342 0.440345 0.440347 0.44035 0.440352 0.440356 0.440368 
0.524524 0.524374 0.524265 0.524172 0.524092 0.524022 0.523961 0.523908 0.523861 
0.523822 0.52379 0.523766 0.52375 0.523741 0.52374 0.523745 0.523755 0.523769 
0.523785 0.5238 0.523814 0.523824 0.52383 0.523831 0.523828 0.523823 0.523817 
0.52381 0.523805 0.523801 0.523798 0.523794 0.523791 0.523786 0.523781 0.523774 
0.523762 0.523741 0.523714 0.523685 0.523665 0.523658 0.523665 0.523679 0.523696 
0.523715 0.523736 0.523759 0.523785 0.523812 0.523839 0.523866 0.52389 0.52391 
0.523924 0.523934 0.523939 0.52394 0.523938 0.523937 0.523935 0.523931 0.523924 
0.523912 0.523896 0.523873 0.523838 0.523784 0.523708 0.523617 0.52354 0.523516 
0.523558 0.523638 0.523711 0.523748 0.523751 0.523729 0.523685 0.523629 0.523573 
0.523521 0.523462 0.523382 0.523276 0.523141 0.522985 0.522818 0.522636 0.52248 
0.522363 0.522304 0.522512 0.522994 0.522501 0.520846 0.518037 0.440001 0.440003 
0.440004 0.440006 0.440008 0.44001 0.440012 0.440013 0.440015 0.440017 0.440019 
0.44002 0.440022 0.440024 0.440026 0.440027 0.440029 0.440031 0.440033 0.440035 
0.440036 0.440038 0.44004 0.440042 0.440043 0.440045 0.440047 0.440049 0.440051 
0.440052 0.440054 0.440056 0.440058 0.440059 0.440061 0.440063 0.440065 0.440066 
0.440068 0.44007 0.440072 0.440074 0.440075 0.440077 0.440079 0.440081 0.440082 
0.440084 0.440086 0.440088 0.440089 0.440091 0.440093 0.440095 0.440096 0.440098 
0.4401 0.440102 0.440104 0.440105 0.440107 0.440109 0.440111 0.440112 0.440114 
0.440116 0.440118 0.440119 0.440121 0.440123 0.440125 0.440126 0.440128 0.44013 
0.440132 0.440133 0.440135 0.440137 0.440139 0.44014 0.440142 0.440144 0.440146 
0.440147 0.440149 0.440151 0.440153 0.440154 0.440156 0.440158 0.44016 0.440161 
0.440163 0.440165 0.440167 0.440168 0.44017 0.440172 0.440173 0.440175 0.440177 
0.440179 0.44018 0.440182 0.440184 0.440186 0.440187 0.440189 0.440191 0.440192 
0.440194 0.440196 0.440198 0.440199 0.440201 0.440203 0.440205 0.440206 0.440208 
0.44021 0.440212 0.440213 0.440215 0.440217 0.440218 0.44022 0.440222 0.440224 
0.440225 0.440227 0.440229 0.440231 0.440232 0.440234 0.440236 0.440237 0.440239 
0.440241 0.440243 0.440244 0.440246 0.440248 0.44025 0.440251 0.440253 0.440255 
0.440257 0.440258 0.44026 0.440262 0.440264 0.440265 0.440267 0.440269 0.440271 
0.440272 0.440274 0.440276 0.440278 0.440279 0.440281 0.440283 0.440285 0.440287 
0.440288 0.44029 0.440292 0.440294 0.440296 0.440297 0.440299 0.440301 0.440303 
0.440305 0.440307 0.440309 0.440311 0.440313 0.440314 0.440316 0.440318 0.44032 
0.440323 0.440325 0.440327 0.440329 0.440331 0.440333 0.440335 0.440338 0.44034 
0.440342 0.440345 0.440347 0.440349 0.440352 0.440355 0.440357 0.524469 0.524344 
0.524244 0.524157 0.524079 0.524011 0.523951 0.523898 0.523852 0.523813 0.523782 
0.523758 0.523742 0.523734 0.523734 0.52374 0.523752 0.523767 0.523784 0.523801 
0.523816 0.523828 0.523834 0.523835 0.523832 0.523826 0.523819 0.52381 0.523803 
0.523796 0.52379 0.523788 0.523788 0.523789 0.523788 0.523781 0.523766 0.523742 
0.52371 0.523677 0.523655 0.523651 0.523659 0.523673 0.52369 0.523708 0.523728 
0.52375 0.523776 0.523804 0.523833 0.523861 0.523885 0.523905 0.523919 0.523927 
0.523931 0.523932 0.523935 0.523939 0.523941 0.523935 0.523925 0.523913 0.523897 
0.523875 0.523837 0.523776 0.523684 0.52357 0.523472 0.523448 0.523523 0.523632 
0.523719 0.523757 0.523766 0.523751 0.523696 0.523627 0.523568 0.523526 0.523478 
0.523401 0.52329 0.523145 0.522981 0.522803 0.522625 0.522448 0.522258 0.522058 
0.521934 0.522116 0.52173 0.520312 0.517917 0.440001 0.440003 0.440004 0.440006 
0.440008 0.44001 0.440012 0.440013 0.440015 0.440017 0.440019 0.44002 0.440022 
0.440024 0.440026 0.440028 0.440029 0.440031 0.440033 0.440035 0.440036 0.440038 
0.44004 0.440042 0.440043 0.440045 0.440047 0.440049 0.440051 0.440052 0.440054 
0.440056 0.440058 0.440059 0.440061 0.440063 0.440065 0.440066 0.440068 0.44007 
0.440072 0.440074 0.440075 0.440077 0.440079 0.440081 0.440082 0.440084 0.440086 
0.440088 0.440089 0.440091 0.440093 0.440095 0.440096 0.440098 0.4401 0.440102 
0.440104 0.440105 0.440107 0.440109 0.440111 0.440112 0.440114 0.440116 0.440118 
0.440119 0.440121 0.440123 0.440125 0.440126 0.440128 0.44013 0.440132 0.440133 
0.440135 0.440137 0.440139 0.44014 0.440142 0.440144 0.440146 0.440147 0.440149 
0.440151 0.440153 0.440154 0.440156 0.440158 0.44016 0.440161 0.440163 0.440165 
0.440167 0.440168 0.44017 0.440172 0.440173 0.440175 0.440177 0.440179 0.44018 
0.440182 0.440184 0.440186 0.440187 0.440189 0.440191 0.440192 0.440194 0.440196 
0.440198 0.440199 0.440201 0.440203 0.440205 0.440206 0.440208 0.44021 0.440212 
0.440213 0.440215 0.440217 0.440218 0.44022 0.440222 0.440224 0.440225 0.440227 
0.440229 0.440231 0.440232 0.440234 0.440236 0.440237 0.440239 0.440241 0.440243 
0.440244 0.440246 0.440248 0.44025 0.440251 0.440253 0.440255 0.440257 0.440258 
0.44026 0.440262 0.440264 0.440265 0.440267 0.440269 0.440271 0.440272 0.440274 
0.440276 0.440278 0.440279 0.440281 0.440283 0.440285 0.440287 0.440288 0.44029 
0.440292 0.440294 0.440296 0.440297 0.440299 0.440301 0.440303 0.440305 0.440307 
0.440309 0.440311 0.440312 0.440314 0.440316 0.440318 0.44032 0.440322 0.440325 
0.440327 0.440329 0.440331 0.440333 0.440335 0.440338 0.44034 0.440342 0.440345 
0.440347 0.440349 0.440352 0.440354 0.440359 0.524411 0.524303 0.524214 0.524133 
0.524059 0.523994 0.523935 0.523884 0.523839 0.5238 0.523769 0.523745 0.523729 
0.523722 0.523722 0.523728 0.523741 0.523757 0.523776 0.523794 0.52381 0.523822 
0.52383 0.523833 0.523833 0.523831 0.523827 0.523819 0.523811 0.523802 0.523792 
0.523783 0.523777 0.523774 0.523774 0.523771 0.52376 0.523739 0.523708 0.523675 
0.52365 0.523642 0.523648 0.523663 0.523679 0.523697 0.523716 0.523739 0.523765 
0.523794 0.523824 0.523853 0.523879 0.523899 0.523913 0.52392 0.52392 0.523915 
0.523908 0.5239 0.523898 0.523899 0.523898 0.523896 0.523889 0.523869 0.523828 
0.523758 0.523653 0.523526 0.523421 0.523415 0.523512 0.523617 0.523677 0.523683 
0.523654 0.523616 0.523607 0.523598 0.523572 0.523543 0.523495 0.523412 0.52329 
0.523131 0.522951 0.522768 0.522594 0.522418 0.522216 0.521956 0.521607 0.521169 
0.520547 0.519509 0.517605 0.440001 0.440003 0.440004 0.440006 0.440008 0.44001 
0.440012 0.440013 0.440015 0.440017 0.440019 0.44002 0.440022 0.440024 0.440026 
0.440028 0.440029 0.440031 0.440033 0.440035 0.440036 0.440038 0.44004 0.440042 
0.440043 0.440045 0.440047 0.440049 0.440051 0.440052 0.440054 0.440056 0.440058 
0.440059 0.440061 0.440063 0.440065 0.440066 0.440068 0.44007 0.440072 0.440074 
0.440075 0.440077 0.440079 0.440081 0.440082 0.440084 0.440086 0.440088 0.440089 
0.440091 0.440093 0.440095 0.440096 0.440098 0.4401 0.440102 0.440104 0.440105 
0.440107 0.440109 0.440111 0.440112 0.440114 0.440116 0.440118 0.440119 0.440121 
0.440123 0.440125 0.440126 0.440128 0.44013 0.440132 0.440133 0.440135 0.440137 
0.440139 0.44014 0.440142 0.440144 0.440146 0.440147 0.440149 0.440151 0.440153 
0.440154 0.440156 0.440158 0.44016 0.440161 0.440163 0.440165 0.440167 0.440168 
0.44017 0.440172 0.440173 0.440175 0.440177 0.440179 0.44018 0.440182 0.440184 
0.440186 0.440187 0.440189 0.440191 0.440192 0.440194 0.440196 0.440198 0.440199 
0.440201 0.440203 0.440205 0.440206 0.440208 0.44021 0.440212 0.440213 0.440215 
0.440217 0.440218 0.44022 0.440222 0.440224 0.440225 0.440227 0.440229 0.440231 
0.440232 0.440234 0.440236 0.440237 0.440239 0.440241 0.440243 0.440244 0.440246 
0.440248 0.44025 0.440251 0.440253 0.440255 0.440257 0.440258 0.44026 0.440262 
0.440264 0.440265 0.440267 0.440269 0.440271 0.440272 0.440274 0.440276 0.440278 
0.440279 0.440281 0.440283 0.440285 0.440287 0.440288 0.44029 0.440292 0.440294 
0.440296 0.440297 0.440299 0.440301 0.440303 0.440305 0.440307 0.440309 0.440311 
0.440312 0.440314 0.440316 0.440318 0.44032 0.440322 0.440324 0.440327 0.440329 
0.440331 0.440333 0.440335 0.440337 0.44034 0.440342 0.440344 0.440347 0.440349 
0.440352 0.440355 0.44036 0.524349 0.524253 0.524172 0.524097 0.524029 0.523967 
0.523911 0.523861 0.523817 0.523779 0.523748 0.523724 0.523709 0.523701 0.523702 
0.52371 0.523724 0.523742 0.523763 0.523784 0.523801 0.523814 0.523822 0.523823 
0.523821 0.523817 0.523812 0.523809 0.523804 0.523797 0.523788 0.523779 0.523771 
0.523764 0.52376 0.523756 0.523747 0.523729 0.523702 0.523672 0.523648 0.523638 
0.52364 0.523651 0.523666 0.523681 0.523697 0.523719 0.523745 0.523776 0.523808 
0.523839 0.523867 0.523888 0.523903 0.523909 0.523908 0.523902 0.523893 0.523881 
0.523869 0.523852 0.523835 0.523825 0.523823 0.523818 0.523791 0.523728 0.523631 
0.523513 0.523424 0.523422 0.523509 0.523606 0.523657 0.523648 0.523602 0.523549 
0.523508 0.523475 0.523456 0.523462 0.523457 0.523393 0.523283 0.523135 0.522969 
0.522808 0.522677 0.522528 0.522301 0.521943 0.521464 0.520986 0.520298 0.519279 
0.518756 0.440001 0.440003 0.440004 0.440006 0.440008 0.44001 0.440012 0.440013 
0.440015 0.440017 0.440019 0.44002 0.440022 0.440024 0.440026 0.440028 0.440029 
0.440031 0.440033 0.440035 0.440036 0.440038 0.44004 0.440042 0.440043 0.440045 
0.440047 0.440049 0.440051 0.440052 0.440054 0.440056 0.440058 0.440059 0.440061 
0.440063 0.440065 0.440066 0.440068 0.44007 0.440072 0.440074 0.440075 0.440077 
0.440079 0.440081 0.440082 0.440084 0.440086 0.440088 0.440089 0.440091 0.440093 
0.440095 0.440097 0.440098 0.4401 0.440102 0.440104 0.440105 0.440107 0.440109 
0.440111 0.440112 0.440114 0.440116 0.440118 0.440119 0.440121 0.440123 0.440125 
0.440126 0.440128 0.44013 0.440132 0.440133 0.440135 0.440137 0.440139 0.44014 
0.440142 0.440144 0.440146 0.440147 0.440149 0.440151 0.440153 0.440154 0.440156 
0.440158 0.44016 0.440161 0.440163 0.440165 0.440167 0.440168 0.44017 0.440172 
0.440173 0.440175 0.440177 0.440179 0.44018 0.440182 0.440184 0.440186 0.440187 
0.440189 0.440191 0.440192 0.440194 0.440196 0.440198 0.440199 0.440201 0.440203 
0.440205 0.440206 0.440208 0.44021 0.440211 0.440213 0.440215 0.440217 0.440218 
0.44022 0.440222 0.440224 0.440225 0.440227 0.440229 0.440231 0.440232 0.440234 
0.440236 0.440237 0.440239 0.440241 0.440243 0.440244 0.440246 0.440248 0.44025 
0.440251 0.440253 0.440255 0.440257 0.440258 0.44026 0.440262 0.440264 0.440265 
0.440267 0.440269 0.440271 0.440272 0.440274 0.440276 0.440278 0.440279 0.440281 
0.440283 0.440285 0.440287 0.440288 0.44029 0.440292 0.440294 0.440296 0.440297 
0.440299 0.440301 0.440303 0.440305 0.440307 0.440309 0.44031 0.440312 0.440314 
0.440316 0.440318 0.44032 0.440322 0.440324 0.440326 0.440329 0.440331 0.440333 
0.440335 0.440337 0.44034 0.440342 0.440344 0.440347 0.440349 0.440352 0.440355 
0.440361 0.52428 0.524192 0.524119 0.524052 0.523989 0.523931 0.523878 0.52383 
0.523787 0.523749 0.523717 0.523693 0.523677 0.523669 0.52367 0.523679 0.523695 
0.523716 0.523739 0.523762 0.523783 0.523798 0.523807 0.523809 0.523805 0.523797 
0.52379 0.523785 0.523782 0.523779 0.523774 0.523767 0.52376 0.523753 0.523748 
0.523741 0.523732 0.523717 0.523694 0.523668 0.523645 0.523632 0.523631 0.52364 
0.523651 0.523661 0.523674 0.523694 0.523721 0.523753 0.523788 0.52382 0.523849 
0.523871 0.523885 0.52389 0.523888 0.523879 0.523867 0.523853 0.523837 0.523819 
0.523798 0.523777 0.523759 0.523746 0.523731 0.52369 0.523617 0.523528 0.523461 
0.523463 0.523541 0.523642 0.523694 0.523674 0.523611 0.52354 0.523482 0.52344 
0.523414 0.523402 0.523416 0.523394 0.523333 0.523225 0.523114 0.523067 0.52296 
0.522786 0.522472 0.521991 0.521325 0.52049 0.519677 0.519047 0.518721 0.440001 
0.440003 0.440004 0.440006 0.440008 0.44001 0.440012 0.440013 0.440015 0.440017 
0.440019 0.44002 0.440022 0.440024 0.440026 0.440028 0.440029 0.440031 0.440033 
0.440035 0.440036 0.440038 0.44004 0.440042 0.440043 0.440045 0.440047 0.440049 
0.440051 0.440052 0.440054 0.440056 0.440058 0.440059 0.440061 0.440063 0.440065 
0.440066 0.440068 0.44007 0.440072 0.440074 0.440075 0.440077 0.440079 0.440081 
0.440082 0.440084 0.440086 0.440088 0.440089 0.440091 0.440093 0.440095 0.440097 
0.440098 0.4401 0.440102 0.440104 0.440105 0.440107 0.440109 0.440111 0.440112 
0.440114 0.440116 0.440118 0.440119 0.440121 0.440123 0.440125 0.440126 0.440128 
0.44013 0.440132 0.440133 0.440135 0.440137 0.440139 0.44014 0.440142 0.440144 
0.440146 0.440147 0.440149 0.440151 0.440153 0.440154 0.440156 0.440158 0.44016 
0.440161 0.440163 0.440165 0.440167 0.440168 0.44017 0.440172 0.440173 0.440175 
0.440177 0.440179 0.44018 0.440182 0.440184 0.440186 0.440187 0.440189 0.440191 
0.440192 0.440194 0.440196 0.440198 0.440199 0.440201 0.440203 0.440205 0.440206 
0.440208 0.44021 0.440211 0.440213 0.440215 0.440217 0.440218 0.44022 0.440222 
0.440224 0.440225 0.440227 0.440229 0.440231 0.440232 0.440234 0.440236 0.440237 
0.440239 0.440241 0.440243 0.440244 0.440246 0.440248 0.44025 0.440251 0.440253 
0.440255 0.440257 0.440258 0.44026 0.440262 0.440264 0.440265 0.440267 0.440269 
0.440271 0.440272 0.440274 0.440276 0.440278 0.440279 0.440281 0.440283 0.440285 
0.440286 0.440288 0.44029 0.440292 0.440294 0.440295 0.440297 0.440299 0.440301 
0.440303 0.440305 0.440307 0.440308 0.44031 0.440312 0.440314 0.440316 0.440318 
0.44032 0.440322 0.440324 0.440326 0.440328 0.440331 0.440333 0.440335 0.440337 
0.440339 0.440342 0.440344 0.440347 0.440349 0.440352 0.440355 0.44036 0.524201 
0.524123 0.524058 0.523997 0.52394 0.523887 0.523837 0.52379 0.523747 0.523708 
0.523676 0.523651 0.523633 0.523625 0.523626 0.523637 0.523655 0.523678 0.523704 
0.52373 0.523753 0.523771 0.523782 0.523785 0.523781 0.523771 0.52376 0.523751 
0.523748 0.523747 0.523747 0.523745 0.523741 0.523736 0.523731 0.523726 0.523717 
0.523704 0.523684 0.523662 0.523641 0.523628 0.523626 0.52363 0.523634 0.523638 
0.523648 0.523667 0.523695 0.523728 0.523762 0.523795 0.523824 0.523845 0.523858 
0.523861 0.523856 0.523843 0.523828 0.523813 0.523797 0.523781 0.523762 0.523736 
0.523709 0.523683 0.523663 0.523642 0.523603 0.523552 0.523518 0.523532 0.523607 
0.523716 0.523764 0.523724 0.523633 0.523542 0.523479 0.523445 0.523426 0.523412 
0.523395 0.523364 0.523312 0.52323 0.523129 0.523038 0.522924 0.522752 0.522478 
0.522024 0.521462 0.52092 0.520235 0.519509 0.517757 0.440001 0.440003 0.440004 
0.440006 0.440008 0.44001 0.440012 0.440013 0.440015 0.440017 0.440019 0.44002 
0.440022 0.440024 0.440026 0.440028 0.440029 0.440031 0.440033 0.440035 0.440036 
0.440038 0.44004 0.440042 0.440043 0.440045 0.440047 0.440049 0.440051 0.440052 
0.440054 0.440056 0.440058 0.440059 0.440061 0.440063 0.440065 0.440066 0.440068 
0.44007 0.440072 0.440074 0.440075 0.440077 0.440079 0.440081 0.440082 0.440084 
0.440086 0.440088 0.440089 0.440091 0.440093 0.440095 0.440097 0.440098 0.4401 
0.440102 0.440104 0.440105 0.440107 0.440109 0.440111 0.440112 0.440114 0.440116 
0.440118 0.440119 0.440121 0.440123 0.440125 0.440126 0.440128 0.44013 0.440132 
0.440133 0.440135 0.440137 0.440139 0.44014 0.440142 0.440144 0.440146 0.440147 
0.440149 0.440151 0.440153 0.440154 0.440156 0.440158 0.44016 0.440161 0.440163 
0.440165 0.440167 0.440168 0.44017 0.440172 0.440173 0.440175 0.440177 0.440179 
0.44018 0.440182 0.440184 0.440186 0.440187 0.440189 0.440191 0.440192 0.440194 
0.440196 0.440198 0.440199 0.440201 0.440203 0.440205 0.440206 0.440208 0.44021 
0.440211 0.440213 0.440215 0.440217 0.440218 0.44022 0.440222 0.440224 0.440225 
0.440227 0.440229 0.440231 0.440232 0.440234 0.440236 0.440237 0.440239 0.440241 
0.440243 0.440244 0.440246 0.440248 0.44025 0.440251 0.440253 0.440255 0.440257 
0.440258 0.44026 0.440262 0.440264 0.440265 0.440267 0.440269 0.440271 0.440272 
0.440274 0.440276 0.440278 0.440279 0.440281 0.440283 0.440285 0.440286 0.440288 
0.44029 0.440292 0.440294 0.440295 0.440297 0.440299 0.440301 0.440303 0.440305 
0.440307 0.440308 0.44031 0.440312 0.440314 0.440316 0.440318 0.44032 0.440322 
0.440324 0.440326 0.440328 0.44033 0.440333 0.440335 0.440337 0.440339 0.440341 
0.440344 0.440346 0.440349 0.440352 0.440354 0.44036 0.524113 0.524045 0.523988 
0.523935 0.523884 0.523835 0.523787 0.523742 0.523699 0.523659 0.523625 0.523598 
0.52358 0.523571 0.523572 0.523583 0.523602 0.523628 0.523657 0.523686 0.523713 
0.523735 0.523748 0.523753 0.523749 0.523738 0.523724 0.523712 0.523706 0.523706 
0.523709 0.523713 0.523716 0.523715 0.523713 0.523708 0.523701 0.523689 0.523673 
0.523654 0.523636 0.523624 0.52362 0.523619 0.523617 0.523614 0.523622 0.52364 
0.523667 0.523697 0.52373 0.523762 0.52379 0.523811 0.523822 0.523822 0.523812 
0.523794 0.523774 0.523756 0.523743 0.523731 0.523718 0.523699 0.523672 0.523639 
0.52361 0.52359 0.523578 0.523569 0.523573 0.523608 0.523685 0.523788 0.523812 
0.523723 0.52359 0.523481 0.523429 0.523422 0.523429 0.523427 0.523407 0.523361 
0.523292 0.5232 0.52309 0.522971 0.522823 0.52263 0.522404 0.522125 0.522037 
0.522267 0.521726 0.520418 0.517958 0.440001 0.440003 0.440004 0.440006 0.440008 
0.44001 0.440012 0.440013 0.440015 0.440017 0.440019 0.44002 0.440022 0.440024 
0.440026 0.440028 0.440029 0.440031 0.440033 0.440035 0.440036 0.440038 0.44004 
0.440042 0.440043 0.440045 0.440047 0.440049 0.440051 0.440052 0.440054 0.440056 
0.440058 0.440059 0.440061 0.440063 0.440065 0.440066 0.440068 0.44007 0.440072 
0.440074 0.440075 0.440077 0.440079 0.440081 0.440082 0.440084 0.440086 0.440088 
0.440089 0.440091 0.440093 0.440095 0.440097 0.440098 0.4401 0.440102 0.440104 
0.440105 0.440107 0.440109 0.440111 0.440112 0.440114 0.440116 0.440118 0.440119 
0.440121 0.440123 0.440125 0.440126 0.440128 0.44013 0.440132 0.440133 0.440135 
0.440137 0.440139 0.44014 0.440142 0.440144 0.440146 0.440147 0.440149 0.440151 
0.440153 0.440154 0.440156 0.440158 0.44016 0.440161 0.440163 0.440165 0.440167 
0.440168 0.44017 0.440172 0.440173 0.440175 0.440177 0.440179 0.44018 0.440182 
0.440184 0.440186 0.440187 0.440189 0.440191 0.440192 0.440194 0.440196 0.440198 
0.440199 0.440201 0.440203 0.440205 0.440206 0.440208 0.44021 0.440211 0.440213 
0.440215 0.440217 0.440218 0.44022 0.440222 0.440224 0.440225 0.440227 0.440229 
0.440231 0.440232 0.440234 0.440236 0.440237 0.440239 0.440241 0.440243 0.440244 