# vtk DataFile Version 5.1
vtk output
ASCII
DATASET UNSTRUCTURED_GRID
POINTS 10043 double
-10.1 1.4499999993 0 -10.049999999 1.4499999993 0 -10.049999999 1.5 0 
-9.9999999985 1.4499999993 0 -9.9999999985 1.5 0 -9.9499999978 1.4499999993 0 
-9.9499999978 1.5 0 -9.899999997 1.4499999993 0 -9.899999997 1.5 0 
-9.8499999963 1.4499999993 0 -9.8499999963 1.5 0 -9.7999999955 1.4499999993 0 
-9.7999999955 1.5 0 -9.7499999948 1.4499999993 0 -9.7499999948 1.5 0 
-9.699999994 1.4499999993 0 -9.699999994 1.5 0 -9.6499999933 1.4499999993 0 
-9.6499999933 1.5 0 -9.5999999925 1.4499999993 0 -9.5999999925 1.5 0 
-9.5499999918 1.4499999993 0 -9.5499999918 1.5 0 -9.4999999911 1.4499999993 0 
-9.4999999911 1.5 0 -9.4499999903 1.4499999993 0 -9.4499999903 1.5 0 
-9.3999999896 1.4499999993 0 -9.3999999896 1.5 0 -9.3499999888 1.4499999993 0 
-9.3499999888 1.5 0 -9.2999999881 1.4499999993 0 -9.2999999881 1.5 0 
-9.2499999873 1.4499999993 0 -9.2499999873 1.5 0 -9.1999999866 1.4499999993 0 
-9.1999999866 1.5 0 -9.1499999858 1.4499999993 0 -9.1499999858 1.5 0 
-9.0999999851 1.4499999993 0 -9.0999999851 1.5 0 -9.0499999844 1.4499999993 0 
-9.0499999844 1.5 0 -8.9999999836 1.4499999993 0 -8.9999999836 1.5 0 
-8.9499999829 1.4499999993 0 -8.9499999829 1.5 0 -8.8999999821 1.4499999993 0 
-8.8999999821 1.5 0 -8.8499999814 1.4499999993 0 -8.8499999814 1.5 0 
-8.7999999806 1.4499999993 0 -8.7999999806 1.5 0 -8.7499999799 1.4499999993 0 
-8.7499999799 1.5 0 -8.6999999791 1.4499999993 0 -8.6999999791 1.5 0 
-8.6499999784 1.4499999993 0 -8.6499999784 1.5 0 -8.5999999776 1.4499999993 0 
-8.5999999776 1.5 0 -8.5499999769 1.4499999993 0 -8.5499999769 1.5 0 
-8.4999999762 1.4499999993 0 -8.4999999762 1.5 0 -8.4499999754 1.4499999993 0 
-8.4499999754 1.5 0 -8.3999999747 1.4499999993 0 -8.3999999747 1.5 0 
-8.3499999739 1.4499999993 0 -8.3499999739 1.5 0 -8.2999999732 1.4499999993 0 
-8.2999999732 1.5 0 -8.2499999724 1.4499999993 0 -8.2499999724 1.5 0 
-8.1999999717 1.4499999993 0 -8.1999999717 1.5 0 -8.1499999709 1.4499999993 0 
-8.1499999709 1.5 0 -8.0999999702 1.4499999993 0 -8.0999999702 1.5 0 
-8.0499999695 1.4499999993 0 -8.0499999695 1.5 0 -7.9999999687 1.4499999993 0 
-7.9999999687 1.5 0 -7.949999968 1.4499999993 0 -7.949999968 1.5 0 
-7.8999999672 1.4499999993 0 -7.8999999672 1.5 0 -7.8499999665 1.4499999993 0 
-7.8499999665 1.5 0 -7.7999999657 1.4499999993 0 -7.7999999657 1.5 0 
-7.749999965 1.4499999993 0 -7.749999965 1.5 0 -7.6999999642 1.4499999993 0 
-7.6999999642 1.5 0 -7.6499999635 1.4499999993 0 -7.6499999635 1.5 0 
-7.5999999627 1.4499999993 0 -7.5999999627 1.5 0 -7.549999962 1.4499999993 0 
-7.549999962 1.5 0 -7.4999999613 1.4499999993 0 -7.4999999613 1.5 0 
-7.4499999605 1.4499999993 0 -7.4499999605 1.5 0 -7.3999999598 1.4499999993 0 
-7.3999999598 1.5 0 -7.349999959 1.4499999993 0 -7.349999959 1.5 0 
-7.2999999583 1.4499999993 0 -7.2999999583 1.5 0 -7.2499999575 1.4499999993 0 
-7.2499999575 1.5 0 -7.1999999568 1.4499999993 0 -7.1999999568 1.5 0 
-7.149999956 1.4499999993 0 -7.149999956 1.5 0 -7.0999999553 1.4499999993 0 
-7.0999999553 1.5 0 -7.0499999546 1.4499999993 0 -7.0499999546 1.5 0 
-6.9999999538 1.4499999993 0 -6.9999999538 1.5 0 -6.9499999531 1.4499999993 0 
-6.9499999531 1.5 0 -6.8999999523 1.4499999993 0 -6.8999999523 1.5 0 
-6.8499999516 1.4499999993 0 -6.8499999516 1.5 0 -6.7999999508 1.4499999993 0 
-6.7999999508 1.5 0 -6.7499999501 1.4499999993 0 -6.7499999501 1.5 0 
-6.6999999493 1.4499999993 0 -6.6999999493 1.5 0 -6.6499999486 1.4499999993 0 
-6.6499999486 1.5 0 -6.5999999478 1.4499999993 0 -6.5999999478 1.5 0 
-6.5499999471 1.4499999993 0 -6.5499999471 1.5 0 -6.4999999464 1.4499999993 0 
-6.4999999464 1.5 0 -6.4499999456 1.4499999993 0 -6.4499999456 1.5 0 
-6.3999999449 1.4499999993 0 -6.3999999449 1.5 0 -6.3499999441 1.4499999993 0 
-6.3499999441 1.5 0 -6.2999999434 1.4499999993 0 -6.2999999434 1.5 0 
-6.2499999426 1.4499999993 0 -6.2499999426 1.5 0 -6.1999999419 1.4499999993 0 
-6.1999999419 1.5 0 -6.1499999411 1.4499999993 0 -6.1499999411 1.5 0 
-6.0999999404 1.4499999993 0 -6.0999999404 1.5 0 -6.0499999397 1.4499999993 0 
-6.0499999397 1.5 0 -5.9999999389 1.4499999993 0 -5.9999999389 1.5 0 
-5.9499999382 1.4499999993 0 -5.9499999382 1.5 0 -5.8999999374 1.4499999993 0 
-5.8999999374 1.5 0 -5.8499999367 1.4499999993 0 -5.8499999367 1.5 0 
-5.7999999359 1.4499999993 0 -5.7999999359 1.5 0 -5.7499999352 1.4499999993 0 
-5.7499999352 1.5 0 -5.6999999344 1.4499999993 0 -5.6999999344 1.5 0 
-5.6499999337 1.4499999993 0 -5.6499999337 1.5 0 -5.5999999329 1.4499999993 0 
-5.5999999329 1.5 0 -5.5499999322 1.4499999993 0 -5.5499999322 1.5 0 
-5.4999999315 1.4499999993 0 -5.4999999315 1.5 0 -5.4499999307 1.4499999993 0 
-5.4499999307 1.5 0 -5.39999993 1.4499999993 0 -5.39999993 1.5 0 
-5.3499999292 1.4499999993 0 -5.3499999292 1.5 0 -5.2999999285 1.4499999993 0 
-5.2999999285 1.5 0 -5.2499999277 1.4499999993 0 -5.2499999277 1.5 0 
-5.199999927 1.4499999993 0 -5.199999927 1.5 0 -5.1499999262 1.4499999993 0 
-5.1499999262 1.5 0 -5.0999999255 1.4499999993 0 -5.0999999255 1.5 0 
-5.0499999247 1.4499999993 0 -5.0499999247 1.5 0 -4.999999924 1.4499999993 0 
-4.999999924 1.5 0 -4.9499999233 1.4499999993 0 -4.9499999233 1.5 0 
-4.8999999225 1.4499999993 0 -4.8999999225 1.5 0 -4.8499999218 1.4499999993 0 
-4.8499999218 1.5 0 -4.799999921 1.4499999993 0 -4.799999921 1.5 0 
-4.7499999203 1.4499999993 0 -4.7499999203 1.5 0 -4.6999999195 1.4499999993 0 
-4.6999999195 1.5 0 -4.6499999188 1.4499999993 0 -4.6499999188 1.5 0 
-4.599999918 1.4499999993 0 -4.599999918 1.5 0 -4.5499999173 1.4499999993 0 
-4.5499999173 1.5 0 -4.4999999166 1.4499999993 0 -4.4999999166 1.5 0 
-4.4499999158 1.4499999993 0 -4.4499999158 1.5 0 -4.3999999151 1.4499999993 0 
-4.3999999151 1.5 0 -4.3499999143 1.4499999993 0 -4.3499999143 1.5 0 
-4.2999999136 1.4499999993 0 -4.2999999136 1.5 0 -4.2499999128 1.4499999993 0 
-4.2499999128 1.5 0 -4.1999999121 1.4499999993 0 -4.1999999121 1.5 0 
-4.1499999113 1.4499999993 0 -4.1499999113 1.5 0 -4.0999999106 1.4499999993 0 
-4.0999999106 1.5 0 -4.0499999098 1.4499999993 0 -4.0499999098 1.5 0 
-3.9999999091 1.4499999993 0 -3.9999999091 1.5 0 -3.9499999084 1.4499999993 0 
-3.9499999084 1.5 0 -3.8999999076 1.4499999993 0 -3.8999999076 1.5 0 
-3.8499999069 1.4499999993 0 -3.8499999069 1.5 0 -3.7999999061 1.4499999993 0 
-3.7999999061 1.5 0 -3.7499999054 1.4499999993 0 -3.7499999054 1.5 0 
-3.6999999046 1.4499999993 0 -3.6999999046 1.5 0 -3.6499999039 1.4499999993 0 
-3.6499999039 1.5 0 -3.5999999031 1.4499999993 0 -3.5999999031 1.5 0 
-3.5499999024 1.4499999993 0 -3.5499999024 1.5 0 -3.4999999017 1.4499999993 0 
-3.4999999017 1.5 0 -3.4499999009 1.4499999993 0 -3.4499999009 1.5 0 
-3.3999999002 1.4499999993 0 -3.3999999002 1.5 0 -3.3499998994 1.4499999993 0 
-3.3499998994 1.5 0 -3.2999998987 1.4499999993 0 -3.2999998987 1.5 0 
-3.2499998979 1.4499999993 0 -3.2499998979 1.5 0 -3.1999998972 1.4499999993 0 
-3.1999998972 1.5 0 -3.1499998964 1.4499999993 0 -3.1499998964 1.5 0 
-3.0999998957 1.4499999993 0 -3.0999998957 1.5 0 -3.0499998949 1.4499999993 0 
-3.0499998949 1.5 0 -2.9999998942 1.4499999993 0 -2.9999998942 1.5 0 
-2.9499998935 1.4499999993 0 -2.9499998935 1.5 0 -2.8999998927 1.4499999993 0 
-2.8999998927 1.5 0 -2.849999892 1.4499999993 0 -2.849999892 1.5 0 
-2.7999998912 1.4499999993 0 -2.7999998912 1.5 0 -2.7499998905 1.4499999993 0 
-2.7499998905 1.5 0 -2.6999998897 1.4499999993 0 -2.6999998897 1.5 0 
-2.649999889 1.4499999993 0 -2.649999889 1.5 0 -2.5999998882 1.4499999993 0 
-2.5999998882 1.5 0 -2.5499998875 1.4499999993 0 -2.5499998875 1.5 0 
-2.4999998868 1.4499999993 0 -2.4999998868 1.5 0 -2.449999886 1.4499999993 0 
-2.449999886 1.5 0 -2.3999998853 1.4499999993 0 -2.3999998853 1.5 0 
-2.3499998845 1.4499999993 0 -2.3499998845 1.5 0 -2.2999998838 1.4499999993 0 
-2.2999998838 1.5 0 -2.249999883 1.4499999993 0 -2.249999883 1.5 0 
-2.1999998823 1.4499999993 0 -2.1999998823 1.5 0 -2.1499998815 1.4499999993 0 
-2.1499998815 1.5 0 -2.0999998808 1.4499999993 0 -2.0999998808 1.5 0 
-2.04999988 1.4499999993 0 -2.04999988 1.5 0 -1.9999998793 1.4499999993 0 
-1.9999998793 1.5 0 -1.9499998786 1.4499999993 0 -1.9499998786 1.5 0 
-1.8999998778 1.4499999993 0 -1.8999998778 1.5 0 -1.8499998771 1.4499999993 0 
-1.8499998771 1.5 0 -1.7999998763 1.4499999993 0 -1.7999998763 1.5 0 
-1.7499998756 1.4499999993 0 -1.7499998756 1.5 0 -1.6999998748 1.4499999993 0 
-1.6999998748 1.5 0 -1.6499998741 1.4499999993 0 -1.6499998741 1.5 0 
-1.5999998733 1.4499999993 0 -1.5999998733 1.5 0 -1.5499998726 1.4499999993 0 
-1.5499998726 1.5 0 -1.4999998718 1.4499999993 0 -1.4999998718 1.5 0 
-1.4499998711 1.4499999993 0 -1.4499998711 1.5 0 -1.3999998704 1.4499999993 0 
-1.3999998704 1.5 0 -1.3499998696 1.4499999993 0 -1.3499998696 1.5 0 
-1.2999998689 1.4499999993 0 -1.2999998689 1.5 0 -1.2499998681 1.4499999993 0 
-1.2499998681 1.5 0 -1.1999998674 1.4499999993 0 -1.1999998674 1.5 0 
-1.1499998666 1.4499999993 0 -1.1499998666 1.5 0 -1.0999998659 1.4499999993 0 
-1.0999998659 1.5 0 -1.0499998651 1.4499999993 0 -1.0499998651 1.5 0 
-0.9999998644 1.4499999993 0 -0.9999998644 1.5 0 -0.94999986365 1.4499999993 0 
-0.94999986365 1.5 0 -0.89999986291 1.4499999993 0 -0.89999986291 1.5 0 
-0.84999986216 1.4499999993 0 -0.84999986216 1.5 0 -0.79999986142 1.4499999993 0 
-0.79999986142 1.5 0 -0.74999986067 1.4499999993 0 -0.74999986067 1.5 0 
-0.69999985993 1.4499999993 0 -0.69999985993 1.5 0 -0.64999985918 1.4499999993 0 
-0.64999985918 1.5 0 -0.59999985844 1.4499999993 0 -0.59999985844 1.5 0 
-0.54999985769 1.4499999993 0 -0.54999985769 1.5 0 -0.49999985695 1.4499999993 0 
-0.49999985695 1.5 0 -0.4499998562 1.4499999993 0 -0.4499998562 1.5 0 
-0.39999985546 1.4499999993 0 -0.39999985546 1.5 0 -0.34999985471 1.4499999993 0 
-0.34999985471 1.5 0 -0.29999985397 1.4499999993 0 -0.29999985397 1.5 0 
-0.24999985322 1.4499999993 0 -0.24999985322 1.5 0 -0.191663057 1.4499999993 0 
-0.17548248559 1.5 0 0.18862900414 1.4499999993 0 0.25000015423 1.4499999993 0 
[...]
CELL_DATA 9510
FIELD FieldData 4
Water_Depth_m 1 9510 float
0.339958 0.339871 0.339783 0.339695 0.339606 0.339517 0.339427 0.339338 0.339248 
0.339158 0.339067 0.338976 0.338885 0.338792 0.338699 0.338605 0.338509 0.338411 
0.338312 0.33821 0.338105 0.337998 0.337888 0.337775 0.337658 0.337538 0.337414 
0.337286 0.337155 0.337021 0.336884 0.336744 0.336604 0.336463 0.336323 0.336185 
0.336052 0.335924 0.335804 0.335693 0.335593 0.335506 0.335433 0.335376 0.335335 
0.335312 0.335307 0.335321 0.335353 0.335405 0.335475 0.335563 0.335669 0.335791 
0.335928 0.33608 0.336246 0.336423 0.336611 0.336808 0.337013 0.337224 0.337439 
0.337656 0.337875 0.338092 0.338308 0.33852 0.338727 0.338928 0.339121 0.339306 
0.339481 0.339646 0.3398 0.339942 0.340071 0.340189 0.340294 0.340387 0.340468 
0.340536 0.340593 0.340638 0.340672 0.340695 0.340707 0.340709 0.340701 0.340683 
0.340656 0.340619 0.340574 0.34052 0.340457 0.340386 0.340307 0.34022 0.340125 
0.340023 0.339913 0.339797 0.339675 0.339548 0.339417 0.339283 0.339148 0.339013 
0.338881 0.338753 0.338631 0.338518 0.338417 0.338328 0.338255 0.338197 0.338158 
0.338136 0.338131 0.338143 0.33817 0.338211 0.338263 0.338323 0.338389 0.338458 
0.338528 0.338596 0.338662 0.338723 0.338778 0.338826 0.338866 0.338898 0.338923 
0.338941 0.338951 0.338955 0.338952 0.338944 0.338931 0.338914 0.338894 0.338869 
0.338842 0.338812 0.338781 0.338747 0.338713 0.338677 0.33864 0.338603 0.338567 
0.338531 0.338496 0.338462 0.33843 0.338401 0.338375 0.338352 0.338333 0.338317 
0.338305 0.338298 0.338295 0.338297 0.338303 0.338313 0.338327 0.338345 0.338368 
0.338396 0.338429 0.338467 0.338511 0.338563 0.338623 0.338694 0.338776 0.338871 
0.33898 0.339107 0.339253 0.339421 0.339615 0.339835 0.340083 0.340362 0.340678 
0.341029 0.34142 0.341853 0.342323 0.342841 0.343386 0.34397 0.344586 0.345332 
0.351093 0.35171 0.35222 0.352692 0.353126 0.353523 0.353884 0.354212 0.354508 
0.354776 0.355018 0.355237 0.355434 0.355612 0.355772 0.355917 0.356049 0.356167 
0.356275 0.356373 0.356462 0.356543 0.356618 0.356685 0.356748 0.356805 0.356858 
0.356906 0.356951 0.356993 0.357032 0.357069 0.357103 0.357135 0.357165 0.357194 
0.357221 0.357247 0.357271 0.357294 0.357317 0.357339 0.357359 0.357379 0.357399 
0.357418 0.357436 0.357454 0.357472 0.357489 0.357505 0.357522 0.357538 0.357554 
0.35757 0.357585 0.357601 0.357616 0.357631 0.357645 0.35766 0.357675 0.357689 
0.357703 0.357718 0.357732 0.357746 0.35776 0.357774 0.357788 0.357801 0.357815 
0.357829 0.357842 0.357856 0.35787 0.357883 0.357896 0.35791 0.357923 0.357936 
0.35795 0.357963 0.357976 0.357989 0.358002 0.358015 0.358028 0.358041 0.358054 
0.358067 0.358079 0.358076 0.35806 0.356749 0.354277 0.351089 0.339958 0.339871 
0.339783 0.339694 0.339605 0.339516 0.339427 0.339337 0.339247 0.339157 0.339067 
0.338976 0.338884 0.338792 0.338699 0.338605 0.338509 0.338412 0.338312 0.33821 
0.338106 0.337999 0.337889 0.337775 0.337658 0.337538 0.337413 0.337285 0.337153 
0.337018 0.336881 0.33674 0.336598 0.336456 0.336315 0.336176 0.336041 0.335912 
0.335791 0.335679 0.335578 0.33549 0.335416 0.335359 0.335318 0.335294 0.33529 
0.335304 0.335336 0.335388 0.335458 0.335547 0.335653 0.335775 0.335913 0.336066 
0.336232 0.33641 0.336599 0.336796 0.337002 0.337214 0.337429 0.337648 0.337867 
0.338087 0.338303 0.338517 0.338725 0.338927 0.339122 0.339308 0.339484 0.33965 
0.339804 0.339947 0.340078 0.340196 0.340302 0.340396 0.340477 0.340546 0.340603 
0.340648 0.340682 0.340705 0.340717 0.340719 0.34071 0.340692 0.340665 0.340628 
0.340583 0.340528 0.340465 0.340394 0.340314 0.340226 0.340131 0.340028 0.339917 
0.3398 0.339677 0.339549 0.339416 0.339281 0.339144 0.339007 0.338873 0.338743 
0.338619 0.338505 0.338402 0.338312 0.338238 0.33818 0.338141 0.338119 0.338115 
0.338129 0.338158 0.338201 0.338255 0.338317 0.338385 0.338457 0.338529 0.3386 
0.338667 0.338728 0.338784 0.338833 0.338873 0.338906 0.338931 0.338948 0.338958 
0.338961 0.338958 0.338949 0.338936 0.338918 0.338897 0.338872 0.338845 0.338815 
0.338782 0.338748 0.338713 0.338677 0.33864 0.338603 0.338566 0.338529 0.338494 
0.33846 0.338428 0.338399 0.338372 0.338348 0.338329 0.338313 0.338302 0.338295 
0.338292 0.338293 0.338299 0.338309 0.338324 0.338342 0.338365 0.338392 0.338424 
0.338461 0.338506 0.338557 0.338616 0.338685 0.338765 0.338858 0.338966 0.339091 
0.339235 0.3394 0.339589 0.339805 0.340052 0.34033 0.340641 0.340988 0.341375 
0.341799 0.34227 0.342785 0.34333 0.343916 0.344534 0.34526 0.3511 0.351721 
0.352234 0.352709 0.353144 0.353542 0.353903 0.354231 0.354527 0.354794 0.355035 
0.355252 0.355448 0.355625 0.355784 0.355928 0.356059 0.356177 0.356284 0.356381 
0.356469 0.35655 0.356623 0.35669 0.356752 0.356809 0.356861 0.35691 0.356954 
0.356996 0.357035 0.357071 0.357105 0.357137 0.357167 0.357195 0.357222 0.357248 
0.357272 0.357295 0.357318 0.357339 0.35736 0.35738 0.357399 0.357418 0.357437 
0.357455 0.357472 0.357489 0.357506 0.357522 0.357538 0.357554 0.35757 0.357585 
0.357601 0.357616 0.357631 0.357646 0.35766 0.357675 0.357689 0.357704 0.357718 
0.357732 0.357746 0.35776 0.357774 0.357788 0.357801 0.357815 0.357829 0.357843 
0.357856 0.35787 0.357883 0.357896 0.35791 0.357923 0.357936 0.35795 0.357963 
0.357976 0.357989 0.358002 0.358015 0.358028 0.358041 0.358054 0.358067 0.358079 
0.358076 0.35806 0.356749 0.354277 0.351089 0.339957 0.33987 0.339782 0.339693 
0.339604 0.339515 0.339425 0.339336 0.339246 0.339156 0.339066 0.338975 0.338884 
0.338792 0.338699 0.338605 0.33851 0.338413 0.338314 0.338212 0.338108 0.338001 
0.33789 0.337777 0.337659 0.337538 0.337413 0.337283 0.33715 0.337014 0.336874 
0.336732 0.336588 0.336443 0.336299 0.336158 0.33602 0.335888 0.335764 0.33565 
0.335547 0.335458 0.335383 0.335324 0.335283 0.335259 0.335256 0.335269 0.335301 
0.335354 0.335425 0.335514 0.33562 0.335743 0.335882 0.336036 0.336203 0.336383 
0.336573 0.336773 0.33698 0.337193 0.337411 0.337631 0.337853 0.338075 0.338294 
0.33851 0.338721 0.338925 0.339122 0.33931 0.339489 0.339657 0.339814 0.339959 
0.340091 0.340211 0.340318 0.340413 0.340495 0.340564 0.340622 0.340667 0.340701 
0.340724 0.340736 0.340738 0.340729 0.340711 0.340683 0.340646 0.3406 0.340545 
0.340481 0.340409 0.340328 0.340239 0.340143 0.340038 0.339926 0.339807 0.339681 
0.33955 0.339415 0.339276 0.339135 0.338995 0.338856 0.338722 0.338595 0.338478 
0.338372 0.33828 0.338204 0.338145 0.338106 0.338086 0.338084 0.338101 0.338134 
0.338181 0.338239 0.338306 0.338379 0.338455 0.338531 0.338605 0.338676 0.33874 
0.338798 0.338847 0.338889 0.338921 0.338946 0.338962 0.338971 0.338973 0.338969 
0.338959 0.338945 0.338926 0.338903 0.338878 0.338849 0.338819 0.338786 0.338751 
0.338715 0.338678 0.338641 0.338603 0.338565 0.338527 0.338491 0.338456 0.338423 
0.338393 0.338366 0.338342 0.338322 0.338306 0.338294 0.338287 0.338284 0.338286 
0.338292 0.338303 0.338317 0.338335 0.338357 0.338384 0.338416 0.338452 0.338494 
0.338543 0.338601 0.338667 0.338744 0.338834 0.338937 0.339058 0.339196 0.339357 
0.339541 0.339751 0.33999 0.340261 0.340565 0.340906 0.341285 0.341704 0.342171 
0.342679 0.343221 0.343806 0.344426 0.345154 0.351113 0.351744 0.352265 0.352744 
0.353182 0.353581 0.353943 0.354269 0.354564 0.354829 0.355068 0.355283 0.355477 
0.355651 0.355808 0.35595 0.356079 0.356195 0.3563 0.356396 0.356482 0.356562 
0.356634 0.3567 0.356761 0.356817 0.356868 0.356916 0.35696 0.357001 0.357039 
0.357075 0.357109 0.35714 0.35717 0.357198 0.357225 0.35725 0.357274 0.357297 
0.357319 0.357341 0.357361 0.357381 0.357401 0.357419 0.357437 0.357455 0.357473 
0.35749 0.357506 0.357523 0.357539 0.357555 0.35757 0.357586 0.357601 0.357616 
0.357631 0.357646 0.35766 0.357675 0.357689 0.357704 0.357718 0.357732 0.357746 
0.35776 0.357774 0.357788 0.357802 0.357815 0.357829 0.357843 0.357856 0.35787 
0.357883 0.357897 0.35791 0.357923 0.357937 0.35795 0.357963 0.357976 0.357989 
0.358002 0.358015 0.358028 0.358041 0.358054 0.358067 0.358079 0.358076 0.35806 
0.356749 0.354277 0.351089 0.339957 0.339869 0.339781 0.339691 0.339602 0.339513 
0.339423 0.339334 0.339244 0.339154 0.339064 0.338974 0.338884 0.338792 0.3387 
0.338606 0.338511 0.338414 0.338316 0.338214 0.33811 0.338003 0.337893 0.337778 
0.33766 0.337538 0.337411 0.337281 0.337146 0.337007 0.336864 0.336719 0.336571 
0.336423 0.336275 0.336129 0.335988 0.335852 0.335724 0.335607 0.335501 0.335409 
0.335333 0.335273 0.335231 0.335207 0.335201 0.335216 0.335251 0.335303 0.335374 
0.335464 0.335571 0.335696 0.335836 0.335992 0.336161 0.336342 0.336535 0.336736 
0.336946 0.337162 0.337383 0.337607 0.337832 0.338056 0.338279 0.338499 0.338714 
0.338922 0.339123 0.339315 0.339497 0.339668 0.339828 0.339976 0.340111 0.340233 
0.340342 0.340438 0.340521 0.340592 0.34065 0.340696 0.340731 0.340754 0.340766 
0.340767 0.340758 0.340739 0.340711 0.340673 0.340626 0.34057 0.340505 0.340431 
0.340349 0.340259 0.34016 0.340053 0.339939 0.339816 0.339687 0.339552 0.339412 
0.339268 0.339122 0.338976 0.338832 0.338692 0.338559 0.338436 0.338325 0.33823 
0.338151 0.338092 0.338053 0.338034 0.338036 0.338058 0.338096 0.33815 0.338215 
0.33829 0.33837 0.338453 0.338536 0.338615 0.33869 0.338758 0.338819 0.33887 
0.338912 0.338945 0.338968 0.338984 0.338991 0.338991 0.338985 0.338974 0.338958 
0.338937 0.338913 0.338886 0.338857 0.338825 0.338791 0.338755 0.338718 0.33868 
0.338641 0.338602 0.338563 0.338524 0.338487 0.33845 0.338416 0.338384 0.338356 
0.338331 0.338311 0.338294 0.338283 0.338275 0.338273 0.338275 0.338282 0.338292 
0.338307 0.338325 0.338347 0.338373 0.338403 0.338438 0.338478 0.338524 0.338578 
0.33864 0.338713 0.338797 0.338895 0.339009 0.33914 0.339293 0.339468 0.339669 
0.339899 0.340159 0.340452 0.340783 0.341151 0.34156 0.342019 0.342521 0.343058 
0.343638 0.344259 0.344994 0.351135 0.351781 0.352312 0.352798 0.353241 0.353641 
0.354003 0.354328 0.35462 0.354883 0.355118 0.35533 0.35552 0.355691 0.355844 
0.355983 0.356109 0.356222 0.356324 0.356418 0.356502 0.35658 0.35665 0.356715 
0.356774 0.356829 0.356879 0.356926 0.356969 0.357009 0.357046 0.357081 0.357114 
0.357145 0.357174 0.357202 0.357228 0.357253 0.357277 0.3573 0.357322 0.357343 
0.357363 0.357383 0.357402 0.357421 0.357439 0.357456 0.357474 0.357491 0.357507 
0.357523 0.357539 0.357555 0.357571 0.357586 0.357601 0.357616 0.357631 0.357646 
0.357661 0.357675 0.35769 0.357704 0.357718 0.357732 0.357746 0.35776 0.357774 
0.357788 0.357802 0.357815 0.357829 0.357843 0.357856 0.35787 0.357883 0.357897 
0.35791 0.357923 0.357937 0.35795 0.357963 0.357976 0.357989 0.358002 0.358015 
0.358028 0.358041 0.358054 0.358067 0.358079 0.358076 0.35806 0.356749 0.354277 
0.351089 0.339957 0.339868 0.339779 0.339689 0.339599 0.33951 0.33942 0.339331 
0.339241 0.339152 0.339063 0.338973 0.338883 0.338792 0.3387 0.338607 0.338513 
0.338417 0.338318 0.338217 0.338113 0.338006 0.337896 0.337781 0.337662 0.337538 
0.33741 0.337277 0.33714 0.336998 0.336851 0.336702 0.336549 0.336396 0.336243 
0.336092 0.335944 0.335803 0.33567 0.335548 0.335439 0.335344 0.335265 0.335204 
0.335161 0.335136 0.335131 0.335147 0.335182 0.335235 0.335307 0.335398 0.335507 
0.335633 0.335775 0.335933 0.336104 0.336288 0.336484 0.336688 0.336901 0.337121 
0.337345 0.337573 0.337802 0.338032 0.33826 0.338484 0.338704 0.338917 0.339123 
0.33932 0.339507 0.339683 0.339847 0.339998 0.340137 0.340262 0.340374 0.340472 
0.340557 0.340629 0.340688 0.340735 0.340769 0.340793 0.340804 0.340805 0.340796 
0.340776 0.340747 0.340708 0.34066 0.340603 0.340536 0.340461 0.340378 0.340285 
0.340184 0.340074 0.339956 0.33983 0.339696 0.339555 0.339409 0.339258 0.339105 
0.338951 0.338798 0.33865 0.338509 0.338379 0.338262 0.338161 0.338079 0.338018 
0.33798 0.337964 0.337971 0.337998 0.338045 0.338108 0.338183 0.338268 0.338358 
0.338451 0.338542 0.33863 0.338711 0.338784 0.338848 0.338901 0.338944 0.338976 
0.338999 0.339013 0.339018 0.339016 0.339007 0.338993 0.338975 0.338952 0.338926 
0.338897 0.338866 0.338833 0.338797 0.33876 0.338722 0.338683 0.338642 0.338601 
0.33856 0.33852 0.33848 0.338442 0.338406 0.338373 0.338343 0.338317 0.338296 
0.338279 0.338267 0.33826 0.338258 0.338261 0.338268 0.338279 0.338294 0.338312 
0.338333 0.338358 0.338387 0.33842 0.338457 0.338499 0.338549 0.338606 0.338672 
0.33875 0.33884 0.338944 0.339066 0.339208 0.339372 0.33956 0.339777 0.340023 
0.340302 0.340618 0.340971 0.341367 0.341813 0.342305 0.342834 0.343408 0.344029 
0.344774 0.351166 0.351834 0.352378 0.352873 0.353321 0.353724 0.354084 0.354407 
0.354696 0.354954 0.355185 0.355392 0.355577 0.355743 0.355892 0.356027 0.356148 
0.356258 0.356357 0.356447 0.356529 0.356603 0.356672 0.356734 0.356792 0.356844 
0.356893 0.356938 0.35698 0.357019 0.357056 0.35709 0.357122 0.357152 0.35718 
0.357207 0.357233 0.357258 0.357281 0.357303 0.357325 0.357346 0.357366 0.357385 
0.357404 0.357423 0.35744 0.357458 0.357475 0.357492 0.357508 0.357524 0.35754 
0.357556 0.357572 0.357587 0.357602 0.357617 0.357632 0.357646 0.357661 0.357675 
0.35769 0.357704 0.357718 0.357732 0.357746 0.35776 0.357774 0.357788 0.357802 
0.357815 0.357829 0.357843 0.357856 0.35787 0.357883 0.357897 0.35791 0.357923 
0.357937 0.35795 0.357963 0.357976 0.357989 0.358002 0.358015 0.358028 0.358041 
0.358054 0.358067 0.358079 0.358076 0.35806 0.356749 0.354277 0.351089 0.339956 
0.339866 0.339776 0.339686 0.339596 0.339506 0.339416 0.339327 0.339238 0.339149 
0.33906 0.338971 0.338882 0.338792 0.338701 0.338609 0.338515 0.33842 0.338322 
0.338221 0.338118 0.338011 0.3379 0.337784 0.337664 0.33754 0.337409 0.337274 
0.337133 0.336987 0.336836 0.336681 0.336522 0.336362 0.336202 0.336044 0.335889 
0.335741 0.335602 0.335474 0.335359 0.335261 0.335179 0.335116 0.335072 0.335048 
0.335044 0.33506 0.335096 0.335151 0.335224 0.335316 0.335427 0.335556 0.335701 
0.335861 0.336035 0.336222 0.336421 0.336629 0.336846 0.33707 0.337299 0.337531 
0.337766 0.338001 0.338235 0.338465 0.338691 0.338911 0.339123 0.339326 0.339519 
0.339701 0.33987 0.340026 0.340169 0.340298 0.340413 0.340514 0.340601 0.340674 
0.340735 0.340782 0.340817 0.340841 0.340852 0.340853 0.340842 0.340822 0.340792 
0.340751 0.340702 0.340643 0.340575 0.340498 0.340412 0.340317 0.340213 0.3401 
0.339978 0.339846 0.339707 0.33956 0.339406 0.339246 0.339083 0.338918 0.338755 
0.338596 0.338445 0.338305 0.338179 0.338072 0.337985 0.337922 0.337884 0.337872 
0.337885 0.337922 0.337979 0.338054 0.338142 0.33824 0.338344 0.33845 0.338553 
0.33865 0.338739 0.338818 0.338886 0.338942 0.338986 0.339017 0.339038 0.339049 
0.339052 0.339046 0.339034 0.339017 0.338995 0.33897 0.338942 0.338911 0.338878 
0.338842 0.338805 0.338767 0.338727 0.338686 0.338643 0.3386 0.338557 0.338515 
0.338473 0.338432 0.338394 0.338358 0.338326 0.338299 0.338276 0.338259 0.338246 
0.33824 0.338238 0.338242 0.338251 0.338263 0.338278 0.338296 0.338317 0.338341 
0.338368 0.338398 0.338432 0.33847 0.338514 0.338565 0.338623 0.338692 0.338772 
0.338866 0.338976 0.339104 0.339254 0.339427 0.339627 0.339855 0.340116 0.340413 
0.340747 0.341124 0.341551 0.342027 0.342543 0.343109 0.343731 0.344486 0.35121 
0.351905 0.352467 0.352973 0.353426 0.35383 0.354189 0.354508 0.354792 0.355044 
0.355269 0.355469 0.355648 0.355808 0.355951 0.356081 0.356197 0.356302 0.356397 
0.356483 0.356561 0.356633 0.356698 0.356758 0.356813 0.356864 0.35691 0.356954 
0.356994 0.357032 0.357067 0.3571 0.357131 0.35716 0.357188 0.357214 0.357239 
0.357263 0.357286 0.357308 0.357329 0.357349 0.357369 0.357388 0.357407 0.357425 
0.357442 0.35746 0.357477 0.357493 0.35751 0.357526 0.357541 0.357557 0.357572 
0.357588 0.357603 0.357618 0.357632 0.357647 0.357661 0.357676 0.35769 0.357704 
0.357719 0.357733 0.357747 0.357761 0.357774 0.357788 0.357802 0.357816 0.357829 
0.357843 0.357856 0.35787 0.357883 0.357897 0.35791 0.357923 0.357937 0.35795 
0.357963 0.357976 0.357989 0.358002 0.358015 0.358028 0.358041 0.358054 0.358067 
0.358079 0.358076 0.35806 0.356749 0.354277 0.351089 0.339955 0.339864 0.339773 
0.339682 0.339591 0.339501 0.339411 0.339322 0.339234 0.339146 0.339058 0.338969 
0.338881 0.338792 0.338702 0.338611 0.338518 0.338423 0.338326 0.338226 0.338123 
0.338016 0.337905 0.337789 0.337668 0.337541 0.337409 0.33727 0.337125 0.336974 
0.336817 0.336656 0.33649 0.336322 0.336153 0.335985 0.335822 0.335665 0.335518 
0.335383 0.335263 0.33516 0.335075 0.33501 0.334966 0.334942 0.33494 0.334958 
0.334996 0.335054 0.335128 0.335223 0.335337 0.335469 0.335617 0.33578 0.335958 
0.336148 0.336351 0.336563 0.336784 0.337012 0.337246 0.337484 0.337725 0.337966 
0.338206 0.338443 0.338676 0.338903 0.339123 0.339333 0.339533 0.339722 0.339897 
0.340059 0.340207 0.340341 0.340459 0.340563 0.340653 0.340728 0.34079 0.340838 
0.340874 0.340897 0.340909 0.340908 0.340897 0.340876 0.340844 0.340803 0.340751 
0.340691 0.340621 0.340542 0.340454 0.340356 0.340249 0.340131 0.340004 0.339867 
0.339721 0.339565 0.339402 0.339232 0.339057 0.33888 0.338703 0.33853 0.338365 
0.338212 0.338076 0.337959 0.337867 0.337801 0.337765 0.337757 0.337778 0.337826 
0.337897 0.337987 0.338092 0.338208 0.338329 0.33845 0.338568 0.338677 0.338776 
0.338863 0.338935 0.338993 0.339038 0.339068 0.339087 0.339094 0.339092 0.339083 
0.339066 0.339045 0.33902 0.338991 0.33896 0.338926 0.338891 0.338854 0.338815 
0.338775 0.338733 0.33869 0.338645 0.3386 0.338554 0.338508 0.338463 0.338419 
0.338378 0.33834 0.338306 0.338276 0.338252 0.338234 0.338221 0.338215 0.338215 
0.33822 0.33823 0.338243 0.33826 0.338279 0.3383 0.338323 0.338347 0.338374 
0.338403 0.338436 0.338474 0.338517 0.338567 0.338625 0.338694 0.338775 0.33887 
0.338983 0.339116 0.33927 0.33945 0.339657 0.339895 0.340168 0.340479 0.340831 
0.341231 0.341683 0.342174 0.342731 0.343351 0.344115 0.351271 0.352 0.352582 
0.3531 0.353558 0.353962 0.354318 0.354631 0.354908 0.355153 0.355369 0.355561 
0.355732 0.355885 0.356022 0.356144 0.356254 0.356354 0.356444 0.356525 0.3566 
0.356667 0.356729 0.356786 0.356838 0.356886 0.356931 0.356972 0.357011 0.357047 
0.35708 0.357112 0.357142 0.35717 0.357197 0.357222 0.357246 0.357269 0.357291 
0.357313 0.357333 0.357353 0.357373 0.357391 0.35741 0.357428 0.357445 0.357462 
0.357479 0.357495 0.357511 0.357527 0.357543 0.357558 0.357573 0.357589 0.357603 
0.357618 0.357633 0.357648 0.357662 0.357676 0.357691 0.357705 0.357719 0.357733 
0.357747 0.357761 0.357775 0.357788 0.357802 0.357816 0.357829 0.357843 0.357857 
0.35787 0.357883 0.357897 0.35791 0.357923 0.357937 0.35795 0.357963 0.357976 
0.357989 0.358002 0.358015 0.358028 0.358041 0.358054 0.358067 0.358079 0.358076 
0.35806 0.356749 0.354277 0.351089 0.339954 0.339861 0.339768 0.339676 0.339585 
0.339495 0.339405 0.339317 0.339229 0.339141 0.339054 0.338967 0.33888 0.338792 
0.338703 0.338613 0.338521 0.338427 0.338331 0.338232 0.33813 0.338023 0.337911 
0.337795 0.337673 0.337544 0.337409 0.337267 0.337117 0.33696 0.336797 0.336627 
0.336453 0.336275 0.336096 0.335917 0.335743 0.335577 0.33542 0.335278 0.335151 
0.335044 0.334957 0.334891 0.334847 0.334826 0.334826 0.334847 0.33489 0.334951 
0.33503 0.335129 0.335247 0.335382 0.335534 0.335701 0.335882 0.336076 0.336282 
0.336498 0.336724 0.336957 0.337195 0.337438 0.337684 0.337931 0.338177 0.338422 
0.338662 0.338896 0.339123 0.339341 0.339549 0.339745 0.339928 0.340097 0.340251 
0.34039 0.340513 0.340621 0.340713 0.34079 0.340854 0.340903 0.340939 0.340962 
0.340973 0.340972 0.34096 0.340937 0.340904 0.340861 0.340808 0.340746 0.340674 
0.340593 0.340502 0.340401 0.34029 0.340168 0.340036 0.339892 0.339738 0.339573 
0.339399 0.339216 0.339027 0.338834 0.33864 0.33845 0.338268 0.3381 0.337949 
0.337821 0.337721 0.337652 0.337617 0.337615 0.337647 0.337709 0.337797 0.337906 
0.338032 0.33817 0.338313 0.338454 0.33859 0.338714 0.338825 0.338919 0.338997 
0.339057 0.339101 0.33913 0.339144 0.339147 0.33914 0.339124 0.339103 0.339077 
0.339047 0.339014 0.338979 0.338943 0.338905 0.338866 0.338826 0.338783 0.338739 