# vtk DataFile Version 5.1
vtk output
ASCII
DATASET UNSTRUCTURED_GRID
POINTS 10043 double
-10.1 1.4499999993 0 -10.049999999 1.4499999993 0 -10.049999999 1.5 0 
-9.9999999985 1.4499999993 0 -9.9999999985 1.5 0 -9.9499999978 1.4499999993 0 
-9.9499999978 1.5 0 -9.899999997 1.4499999993 0 -9.899999997 1.5 0 
-9.8499999963 1.4499999993 0 -9.8499999963 1.5 0 -9.7999999955 1.4499999993 0 
-9.7999999955 1.5 0 -9.7499999948 1.4499999993 0 -9.7499999948 1.5 0 
-9.699999994 1.4499999993 0 -9.699999994 1.5 0 -9.6499999933 1.4499999993 0 
-9.6499999933 1.5 0 -9.5999999925 1.4499999993 0 -9.5999999925 1.5 0 
-9.5499999918 1.4499999993 0 -9.5499999918 1.5 0 -9.4999999911 1.4499999993 0 
-9.4999999911 1.5 0 -9.4499999903 1.4499999993 0 -9.4499999903 1.5 0 
-9.3999999896 1.4499999993 0 -9.3999999896 1.5 0 -9.3499999888 1.4499999993 0 
-9.3499999888 1.5 0 -9.2999999881 1.4499999993 0 -9.2999999881 1.5 0 
-9.2499999873 1.4499999993 0 -9.2499999873 1.5 0 -9.1999999866 1.4499999993 0 
-9.1999999866 1.5 0 -9.1499999858 1.4499999993 0 -9.1499999858 1.5 0 
-9.0999999851 1.4499999993 0 -9.0999999851 1.5 0 -9.0499999844 1.4499999993 0 
-9.0499999844 1.5 0 -8.9999999836 1.4499999993 0 -8.9999999836 1.5 0 
-8.9499999829 1.4499999993 0 -8.9499999829 1.5 0 -8.8999999821 1.4499999993 0 
-8.8999999821 1.5 0 -8.8499999814 1.4499999993 0 -8.8499999814 1.5 0 
-8.7999999806 1.4499999993 0 -8.7999999806 1.5 0 -8.7499999799 1.4499999993 0 
-8.7499999799 1.5 0 -8.6999999791 1.4499999993 0 -8.6999999791 1.5 0 
-8.6499999784 1.4499999993 0 -8.6499999784 1.5 0 -8.5999999776 1.4499999993 0 
-8.5999999776 1.5 0 -8.5499999769 1.4499999993 0 -8.5499999769 1.5 0 
-8.4999999762 1.4499999993 0 -8.4999999762 1.5 0 -8.4499999754 1.4499999993 0 
-8.4499999754 1.5 0 -8.3999999747 1.4499999993 0 -8.3999999747 1.5 0 
-8.3499999739 1.4499999993 0 -8.3499999739 1.5 0 -8.2999999732 1.4499999993 0 
-8.2999999732 1.5 0 -8.2499999724 1.4499999993 0 -8.2499999724 1.5 0 
-8.1999999717 1.4499999993 0 -8.1999999717 1.5 0 -8.1499999709 1.4499999993 0 
-8.1499999709 1.5 0 -8.0999999702 1.4499999993 0 -8.0999999702 1.5 0 
-8.0499999695 1.4499999993 0 -8.0499999695 1.5 0 -7.9999999687 1.4499999993 0 
-7.9999999687 1.5 0 -7.949999968 1.4499999993 0 -7.949999968 1.5 0 
-7.8999999672 1.4499999993 0 -7.8999999672 1.5 0 -7.8499999665 1.4499999993 0 
-7.8499999665 1.5 0 -7.7999999657 1.4499999993 0 -7.7999999657 1.5 0 
-7.749999965 1.4499999993 0 -7.749999965 1.5 0 -7.6999999642 1.4499999993 0 
-7.6999999642 1.5 0 -7.6499999635 1.4499999993 0 -7.6499999635 1.5 0 
-7.5999999627 1.4499999993 0 -7.5999999627 1.5 0 -7.549999962 1.4499999993 0 
-7.549999962 1.5 0 -7.4999999613 1.4499999993 0 -7.4999999613 1.5 0 
-7.4499999605 1.4499999993 0 -7.4499999605 1.5 0 -7.3999999598 1.4499999993 0 
-7.3999999598 1.5 0 -7.349999959 1.4499999993 0 -7.349999959 1.5 0 
-7.2999999583 1.4499999993 0 -7.2999999583 1.5 0 -7.2499999575 1.4499999993 0 
-7.2499999575 1.5 0 -7.1999999568 1.4499999993 0 -7.1999999568 1.5 0 
-7.149999956 1.4499999993 0 -7.149999956 1.5 0 -7.0999999553 1.4499999993 0 
-7.0999999553 1.5 0 -7.0499999546 1.4499999993 0 -7.0499999546 1.5 0 
-6.9999999538 1.4499999993 0 -6.9999999538 1.5 0 -6.9499999531 1.4499999993 0 
-6.9499999531 1.5 0 -6.8999999523 1.4499999993 0 -6.8999999523 1.5 0 
-6.8499999516 1.4499999993 0 -6.8499999516 1.5 0 -6.7999999508 1.4499999993 0 
-6.7999999508 1.5 0 -6.7499999501 1.4499999993 0 -6.7499999501 1.5 0 
-6.6999999493 1.4499999993 0 -6.6999999493 1.5 0 -6.6499999486 1.4499999993 0 
-6.6499999486 1.5 0 -6.5999999478 1.4499999993 0 -6.5999999478 1.5 0 
-6.5499999471 1.4499999993 0 -6.5499999471 1.5 0 -6.4999999464 1.4499999993 0 
-6.4999999464 1.5 0 -6.4499999456 1.4499999993 0 -6.4499999456 1.5 0 
-6.3999999449 1.4499999993 0 -6.3999999449 1.5 0 -6.3499999441 1.4499999993 0 
-6.3499999441 1.5 0 -6.2999999434 1.4499999993 0 -6.2999999434 1.5 0 
-6.2499999426 1.4499999993 0 -6.2499999426 1.5 0 -6.1999999419 1.4499999993 0 
-6.1999999419 1.5 0 -6.1499999411 1.4499999993 0 -6.1499999411 1.5 0 
-6.0999999404 1.4499999993 0 -6.0999999404 1.5 0 -6.0499999397 1.4499999993 0 
-6.0499999397 1.5 0 -5.9999999389 1.4499999993 0 -5.9999999389 1.5 0 
-5.9499999382 1.4499999993 0 -5.9499999382 1.5 0 -5.8999999374 1.4499999993 0 
-5.8999999374 1.5 0 -5.8499999367 1.4499999993 0 -5.8499999367 1.5 0 
-5.7999999359 1.4499999993 0 -5.7999999359 1.5 0 -5.7499999352 1.4499999993 0 
-5.7499999352 1.5 0 -5.6999999344 1.4499999993 0 -5.6999999344 1.5 0 
-5.6499999337 1.4499999993 0 -5.6499999337 1.5 0 -5.5999999329 1.4499999993 0 
-5.5999999329 1.5 0 -5.5499999322 1.4499999993 0 -5.5499999322 1.5 0 
-5.4999999315 1.4499999993 0 -5.4999999315 1.5 0 -5.4499999307 1.4499999993 0 
-5.4499999307 1.5 0 -5.39999993 1.4499999993 0 -5.39999993 1.5 0 
-5.3499999292 1.4499999993 0 -5.3499999292 1.5 0 -5.2999999285 1.4499999993 0 
-5.2999999285 1.5 0 -5.2499999277 1.4499999993 0 -5.2499999277 1.5 0 
-5.199999927 1.4499999993 0 -5.199999927 1.5 0 -5.1499999262 1.4499999993 0 
-5.1499999262 1.5 0 -5.0999999255 1.4499999993 0 -5.0999999255 1.5 0 
-5.0499999247 1.4499999993 0 -5.0499999247 1.5 0 -4.999999924 1.4499999993 0 
-4.999999924 1.5 0 -4.9499999233 1.4499999993 0 -4.9499999233 1.5 0 
-4.8999999225 1.4499999993 0 -4.8999999225 1.5 0 -4.8499999218 1.4499999993 0 
-4.8499999218 1.5 0 -4.799999921 1.4499999993 0 -4.799999921 1.5 0 
-4.7499999203 1.4499999993 0 -4.7499999203 1.5 0 -4.6999999195 1.4499999993 0 
-4.6999999195 1.5 0 -4.6499999188 1.4499999993 0 -4.6499999188 1.5 0 
-4.599999918 1.4499999993 0 -4.599999918 1.5 0 -4.5499999173 1.4499999993 0 
-4.5499999173 1.5 0 -4.4999999166 1.4499999993 0 -4.4999999166 1.5 0 
-4.4499999158 1.4499999993 0 -4.4499999158 1.5 0 -4.3999999151 1.4499999993 0 
-4.3999999151 1.5 0 -4.3499999143 1.4499999993 0 -4.3499999143 1.5 0 
-4.2999999136 1.4499999993 0 -4.2999999136 1.5 0 -4.2499999128 1.4499999993 0 
-4.2499999128 1.5 0 -4.1999999121 1.4499999993 0 -4.1999999121 1.5 0 
-4.1499999113 1.4499999993 0 -4.1499999113 1.5 0 -4.0999999106 1.4499999993 0 
-4.0999999106 1.5 0 -4.0499999098 1.4499999993 0 -4.0499999098 1.5 0 
-3.9999999091 1.4499999993 0 -3.9999999091 1.5 0 -3.9499999084 1.4499999993 0 
-3.9499999084 1.5 0 -3.8999999076 1.4499999993 0 -3.8999999076 1.5 0 
-3.8499999069 1.4499999993 0 -3.8499999069 1.5 0 -3.7999999061 1.4499999993 0 
-3.7999999061 1.5 0 -3.7499999054 1.4499999993 0 -3.7499999054 1.5 0 
-3.6999999046 1.4499999993 0 -3.6999999046 1.5 0 -3.6499999039 1.4499999993 0 
-3.6499999039 1.5 0 -3.5999999031 1.4499999993 0 -3.5999999031 1.5 0 
-3.5499999024 1.4499999993 0 -3.5499999024 1.5 0 -3.4999999017 1.4499999993 0 
-3.4999999017 1.5 0 -3.4499999009 1.4499999993 0 -3.4499999009 1.5 0 
-3.3999999002 1.4499999993 0 -3.3999999002 1.5 0 -3.3499998994 1.4499999993 0 
-3.3499998994 1.5 0 -3.2999998987 1.4499999993 0 -3.2999998987 1.5 0 
-3.2499998979 1.4499999993 0 -3.2499998979 1.5 0 -3.1999998972 1.4499999993 0 
-3.1999998972 1.5 0 -3.1499998964 1.4499999993 0 -3.1499998964 1.5 0 
-3.0999998957 1.4499999993 0 -3.0999998957 1.5 0 -3.0499998949 1.4499999993 0 
-3.0499998949 1.5 0 -2.9999998942 1.4499999993 0 -2.9999998942 1.5 0 
-2.9499998935 1.4499999993 0 -2.9499998935 1.5 0 -2.8999998927 1.4499999993 0 
-2.8999998927 1.5 0 -2.849999892 1.4499999993 0 -2.849999892 1.5 0 
-2.7999998912 1.4499999993 0 -2.7999998912 1.5 0 -2.7499998905 1.4499999993 0 
-2.7499998905 1.5 0 -2.6999998897 1.4499999993 0 -2.6999998897 1.5 0 
-2.649999889 1.4499999993 0 -2.649999889 1.5 0 -2.5999998882 1.4499999993 0 
-2.5999998882 1.5 0 -2.5499998875 1.4499999993 0 -2.5499998875 1.5 0 
-2.4999998868 1.4499999993 0 -2.4999998868 1.5 0 -2.449999886 1.4499999993 0 
-2.449999886 1.5 0 -2.3999998853 1.4499999993 0 -2.3999998853 1.5 0 
-2.3499998845 1.4499999993 0 -2.3499998845 1.5 0 -2.2999998838 1.4499999993 0 
-2.2999998838 1.5 0 -2.249999883 1.4499999993 0 -2.249999883 1.5 0 
-2.1999998823 1.4499999993 0 -2.1999998823 1.5 0 -2.1499998815 1.4499999993 0 
-2.1499998815 1.5 0 -2.0999998808 1.4499999993 0 -2.0999998808 1.5 0 
-2.04999988 1.4499999993 0 -2.04999988 1.5 0 -1.9999998793 1.4499999993 0 
-1.9999998793 1.5 0 -1.9499998786 1.4499999993 0 -1.9499998786 1.5 0 
-1.8999998778 1.4499999993 0 -1.8999998778 1.5 0 -1.8499998771 1.4499999993 0 
-1.8499998771 1.5 0 -1.7999998763 1.4499999993 0 -1.7999998763 1.5 0 
-1.7499998756 1.4499999993 0 -1.7499998756 1.5 0 -1.6999998748 1.4499999993 0 
-1.6999998748 1.5 0 -1.6499998741 1.4499999993 0 -1.6499998741 1.5 0 
-1.5999998733 1.4499999993 0 -1.5999998733 1.5 0 -1.5499998726 1.4499999993 0 
-1.5499998726 1.5 0 -1.4999998718 1.4499999993 0 -1.4999998718 1.5 0 
-1.4499998711 1.4499999993 0 -1.4499998711 1.5 0 -1.3999998704 1.4499999993 0 
-1.3999998704 1.5 0 -1.3499998696 1.4499999993 0 -1.3499998696 1.5 0 
-1.2999998689 1.4499999993 0 -1.2999998689 1.5 0 -1.2499998681 1.4499999993 0 
-1.2499998681 1.5 0 -1.1999998674 1.4499999993 0 -1.1999998674 1.5 0 
-1.1499998666 1.4499999993 0 -1.1499998666 1.5 0 -1.0999998659 1.4499999993 0 
-1.0999998659 1.5 0 -1.0499998651 1.4499999993 0 -1.0499998651 1.5 0 
-0.9999998644 1.4499999993 0 -0.9999998644 1.5 0 -0.94999986365 1.4499999993 0 
-0.94999986365 1.5 0 -0.89999986291 1.4499999993 0 -0.89999986291 1.5 0 
-0.84999986216 1.4499999993 0 -0.84999986216 1.5 0 -0.79999986142 1.4499999993 0 
-0.79999986142 1.5 0 -0.74999986067 1.4499999993 0 -0.74999986067 1.5 0 
-0.69999985993 1.4499999993 0 -0.69999985993 1.5 0 -0.64999985918 1.4499999993 0 
-0.64999985918 1.5 0 -0.59999985844 1.4499999993 0 -0.59999985844 1.5 0 
-0.54999985769 1.4499999993 0 -0.54999985769 1.5 0 -0.49999985695 1.4499999993 0 
-0.49999985695 1.5 0 -0.4499998562 1.4499999993 0 -0.4499998562 1.5 0 
-0.39999985546 1.4499999993 0 -0.39999985546 1.5 0 -0.34999985471 1.4499999993 0 
-0.34999985471 1.5 0 -0.29999985397 1.4499999993 0 -0.29999985397 1.5 0 
-0.24999985322 1.4499999993 0 -0.24999985322 1.5 0 -0.191663057 1.4499999993 0 
-0.17548248559 1.5 0 0.18862900414 1.4499999993 0 0.25000015423 1.4499999993 0 
[...]
CELL_DATA 9510
FIELD FieldData 4
Water_Depth_m 1 9510 float
0.479989 0.479966 0.479944 0.47992 0.479897 0.479872 0.479848 0.479822 0.479796 
0.479769 0.479742 0.479714 0.479686 0.479657 0.479629 0.4796 0.479572 0.479543 
0.479516 0.479489 0.479463 0.479438 0.479415 0.479393 0.479372 0.479353 0.479337 
0.479321 0.479308 0.479297 0.479288 0.47928 0.479275 0.479271 0.479269 0.479268 
0.479269 0.479271 0.479274 0.479277 0.479282 0.479286 0.47929 0.479295 0.479298 
0.479301 0.479303 0.479304 0.479304 0.479302 0.479298 0.479293 0.479286 0.479278 
0.479267 0.479255 0.479242 0.479228 0.479213 0.479197 0.479182 0.479168 0.479154 
0.479142 0.479132 0.479124 0.47912 0.479118 0.479121 0.479127 0.479138 0.479153 
0.479173 0.479197 0.479227 0.479261 0.4793 0.479344 0.479392 0.479444 0.4795 
0.479559 0.47962 0.479683 0.479748 0.479813 0.479877 0.47994 0.480001 0.480059 
0.480114 0.480164 0.48021 0.48025 0.480284 0.480313 0.480335 0.480351 0.48036 
0.480363 0.48036 0.48035 0.480334 0.480312 0.480285 0.480253 0.480217 0.480178 
0.480136 0.480093 0.48005 0.480009 0.47997 0.479937 0.479909 0.479888 0.479875 
0.479871 0.479876 0.479889 0.479911 0.479939 0.479974 0.480012 0.480054 0.480096 
0.480137 0.480177 0.480213 0.480244 0.48027 0.48029 0.480303 0.48031 0.48031 
0.480304 0.480292 0.480273 0.48025 0.480222 0.48019 0.480155 0.480118 0.480079 
0.48004 0.480001 0.479964 0.47993 0.479898 0.479871 0.479848 0.479829 0.479816 
0.479807 0.479803 0.479804 0.479808 0.479815 0.479824 0.479836 0.479848 0.479861 
0.479874 0.479887 0.479901 0.479913 0.479926 0.479939 0.479951 0.479964 0.479977 
0.479991 0.480005 0.480021 0.480039 0.480058 0.48008 0.480104 0.480131 0.480162 
0.480196 0.480235 0.48028 0.480331 0.480388 0.480453 0.480527 0.48061 0.480703 
0.480807 0.480924 0.481054 0.481197 0.481354 0.481525 0.481707 0.481911 0.482152 
0.48409 0.484304 0.484481 0.484645 0.484795 0.484932 0.485057 0.48517 0.485271 
0.485363 0.485445 0.485519 0.485585 0.485644 0.485697 0.485744 0.485787 0.485824 
0.485858 0.485889 0.485916 0.485941 0.485963 0.485983 0.486 0.486017 0.486031 
0.486044 0.486056 0.486067 0.486077 0.486086 0.486094 0.486101 0.486108 0.486114 
0.486119 0.486124 0.486129 0.486133 0.486137 0.486141 0.486145 0.486148 0.486151 
0.486153 0.486156 0.486158 0.486161 0.486163 0.486165 0.486167 0.486169 0.486171 
0.486172 0.486174 0.486175 0.486177 0.486178 0.48618 0.486181 0.486183 0.486184 
0.486185 0.486187 0.486188 0.486189 0.48619 0.486191 0.486193 0.486194 0.486195 
0.486196 0.486197 0.486199 0.4862 0.486201 0.486202 0.486203 0.486204 0.486205 
0.486207 0.486208 0.486209 0.48621 0.486211 0.486212 0.486213 0.486214 0.486216 
0.486217 0.486218 0.486219 0.486211 0.486204 0.484933 0.480771 0.479989 0.479967 
0.479944 0.479921 0.479897 0.479873 0.479848 0.479822 0.479796 0.479769 0.479742 
0.479714 0.479686 0.479657 0.479628 0.479599 0.479571 0.479542 0.479515 0.479488 
0.479462 0.479437 0.479413 0.479391 0.47937 0.479352 0.479335 0.479319 0.479306 
0.479295 0.479286 0.479279 0.479273 0.479269 0.479267 0.479267 0.479268 0.47927 
0.479273 0.479277 0.479281 0.479286 0.479291 0.479295 0.479299 0.479302 0.479305 
0.479306 0.479305 0.479303 0.4793 0.479295 0.479288 0.479279 0.479268 0.479256 
0.479242 0.479228 0.479212 0.479197 0.479181 0.479166 0.479152 0.479139 0.479129 
0.479121 0.479116 0.479115 0.479117 0.479123 0.479133 0.479148 0.479168 0.479192 
0.479222 0.479256 0.479295 0.479339 0.479387 0.479439 0.479495 0.479555 0.479617 
0.479681 0.479746 0.479811 0.479876 0.47994 0.480002 0.480061 0.480116 0.480167 
0.480213 0.480254 0.480289 0.480318 0.480341 0.480357 0.480367 0.48037 0.480366 
0.480356 0.480339 0.480317 0.480289 0.480257 0.480219 0.480179 0.480136 0.480091 
0.480047 0.480004 0.479965 0.47993 0.479901 0.47988 0.479866 0.479862 0.479867 
0.479881 0.479903 0.479933 0.479969 0.480009 0.480052 0.480096 0.480139 0.480179 
0.480216 0.480249 0.480275 0.480296 0.48031 0.480317 0.480317 0.48031 0.480297 
0.480279 0.480254 0.480226 0.480193 0.480157 0.480119 0.480079 0.480039 0.479999 
0.479961 0.479926 0.479894 0.479866 0.479843 0.479824 0.479811 0.479803 0.479799 
0.4798 0.479805 0.479812 0.479823 0.479834 0.479847 0.479861 0.479874 0.479888 
0.479901 0.479914 0.479926 0.479938 0.479951 0.479963 0.479976 0.47999 0.480004 
0.48002 0.480037 0.480056 0.480077 0.480101 0.480128 0.480158 0.480192 0.48023 
0.480274 0.480324 0.48038 0.480444 0.480516 0.480598 0.48069 0.480794 0.480909 
0.481038 0.48118 0.481335 0.481505 0.48169 0.481892 0.482126 0.484091 0.484307 
0.484485 0.48465 0.484801 0.484939 0.485063 0.485176 0.485278 0.485369 0.485451 
0.485525 0.48559 0.485649 0.485701 0.485748 0.48579 0.485828 0.485861 0.485891 
0.485919 0.485943 0.485965 0.485984 0.486002 0.486018 0.486032 0.486045 0.486057 
0.486068 0.486078 0.486086 0.486094 0.486102 0.486108 0.486114 0.48612 0.486125 
0.486129 0.486134 0.486138 0.486141 0.486145 0.486148 0.486151 0.486154 0.486156 
0.486159 0.486161 0.486163 0.486165 0.486167 0.486169 0.486171 0.486172 0.486174 
0.486175 0.486177 0.486178 0.48618 0.486181 0.486183 0.486184 0.486185 0.486187 
0.486188 0.486189 0.48619 0.486191 0.486193 0.486194 0.486195 0.486196 0.486197 
0.486199 0.4862 0.486201 0.486202 0.486203 0.486204 0.486205 0.486207 0.486208 
0.486209 0.48621 0.486211 0.486212 0.486213 0.486214 0.486216 0.486217 0.486218 
0.486219 0.486211 0.486204 0.484933 0.480771 0.479989 0.479967 0.479944 0.479921 
0.479898 0.479873 0.479849 0.479823 0.479797 0.47977 0.479742 0.479714 0.479685 
0.479656 0.479627 0.479598 0.479569 0.47954 0.479512 0.479485 0.479459 0.479434 
0.47941 0.479387 0.479367 0.479348 0.479331 0.479316 0.479302 0.479291 0.479282 
0.479275 0.47927 0.479266 0.479264 0.479264 0.479266 0.479268 0.479272 0.479276 
0.479281 0.479286 0.479291 0.479296 0.4793 0.479304 0.479307 0.479308 0.479308 
0.479306 0.479303 0.479298 0.47929 0.479281 0.47927 0.479258 0.479243 0.479228 
0.479212 0.479195 0.479179 0.479163 0.479148 0.479134 0.479123 0.479115 0.479109 
0.479107 0.479109 0.479114 0.479125 0.479139 0.479158 0.479183 0.479212 0.479246 
0.479285 0.479329 0.479377 0.47943 0.479487 0.479547 0.47961 0.479675 0.479741 
0.479808 0.479875 0.47994 0.480004 0.480064 0.480121 0.480174 0.480221 0.480263 
0.4803 0.48033 0.480353 0.48037 0.48038 0.480382 0.480378 0.480368 0.480351 
0.480327 0.480298 0.480264 0.480224 0.480181 0.480136 0.480089 0.480042 0.479996 
0.479954 0.479917 0.479886 0.479863 0.479849 0.479844 0.47985 0.479865 0.479889 
0.479921 0.479959 0.480002 0.480048 0.480095 0.480141 0.480185 0.480224 0.480258 
0.480287 0.480308 0.480322 0.48033 0.48033 0.480323 0.480309 0.480289 0.480263 
0.480233 0.480198 0.480161 0.48012 0.480079 0.480037 0.479995 0.479955 0.479918 
0.479885 0.479856 0.479832 0.479814 0.479801 0.479793 0.479791 0.479793 0.479799 
0.479808 0.479819 0.479832 0.479846 0.47986 0.479874 0.479888 0.479901 0.479914 
0.479926 0.479939 0.47995 0.479962 0.479975 0.479988 0.480002 0.480017 0.480034 
0.480052 0.480072 0.480095 0.480121 0.48015 0.480182 0.48022 0.480262 0.48031 
0.480364 0.480426 0.480496 0.480576 0.480665 0.480766 0.480879 0.481005 0.481145 
0.481299 0.481467 0.481653 0.481852 0.482087 0.484093 0.484312 0.484494 0.484661 
0.484813 0.484951 0.485077 0.485189 0.485291 0.485381 0.485463 0.485535 0.4856 
0.485658 0.48571 0.485756 0.485797 0.485834 0.485867 0.485897 0.485923 0.485947 
0.485969 0.485988 0.486005 0.486021 0.486035 0.486048 0.486059 0.48607 0.486079 
0.486088 0.486096 0.486103 0.486109 0.486115 0.486121 0.486126 0.48613 0.486134 
0.486138 0.486142 0.486145 0.486148 0.486151 0.486154 0.486157 0.486159 0.486161 
0.486163 0.486165 0.486167 0.486169 0.486171 0.486172 0.486174 0.486176 0.486177 
0.486179 0.48618 0.486181 0.486183 0.486184 0.486185 0.486187 0.486188 0.486189 
0.48619 0.486192 0.486193 0.486194 0.486195 0.486196 0.486197 0.486199 0.4862 
0.486201 0.486202 0.486203 0.486204 0.486205 0.486207 0.486208 0.486209 0.48621 
0.486211 0.486212 0.486213 0.486214 0.486216 0.486217 0.486218 0.486219 0.486211 
0.486204 0.484933 0.480771 0.479989 0.479967 0.479945 0.479922 0.479899 0.479874 
0.479849 0.479824 0.479797 0.47977 0.479742 0.479714 0.479685 0.479655 0.479626 
0.479596 0.479567 0.479538 0.479509 0.479481 0.479454 0.479429 0.479405 0.479382 
0.479361 0.479342 0.479325 0.47931 0.479296 0.479285 0.479276 0.479269 0.479264 
0.479261 0.47926 0.47926 0.479262 0.479265 0.479269 0.479274 0.47928 0.479286 
0.479292 0.479297 0.479303 0.479307 0.47931 0.479312 0.479312 0.479311 0.479308 
0.479302 0.479295 0.479285 0.479273 0.47926 0.479245 0.479228 0.479211 0.479193 
0.479175 0.479158 0.479141 0.479127 0.479114 0.479105 0.479098 0.479096 0.479097 
0.479102 0.479111 0.479125 0.479144 0.479168 0.479197 0.479231 0.47927 0.479314 
0.479363 0.479416 0.479474 0.479535 0.479599 0.479666 0.479734 0.479803 0.479872 
0.47994 0.480006 0.480069 0.480128 0.480183 0.480233 0.480277 0.480315 0.480347 
0.480371 0.480389 0.480399 0.480402 0.480397 0.480386 0.480368 0.480342 0.480311 
0.480274 0.480232 0.480185 0.480136 0.480084 0.480033 0.479983 0.479937 0.479896 
0.479862 0.479837 0.479822 0.479817 0.479823 0.47984 0.479866 0.479902 0.479944 
0.479992 0.480043 0.480095 0.480145 0.480193 0.480236 0.480273 0.480304 0.480327 
0.480342 0.48035 0.480349 0.480341 0.480326 0.480305 0.480277 0.480244 0.480207 
0.480166 0.480123 0.480078 0.480033 0.479989 0.479946 0.479907 0.479872 0.479841 
0.479817 0.479798 0.479785 0.479779 0.479778 0.479782 0.47979 0.479801 0.479814 
0.479829 0.479844 0.47986 0.479875 0.479889 0.479902 0.479915 0.479927 0.479939 
0.47995 0.479961 0.479973 0.479985 0.479998 0.480013 0.480028 0.480046 0.480065 
0.480086 0.480111 0.480138 0.480169 0.480204 0.480244 0.480289 0.480341 0.4804 
0.480466 0.480542 0.480628 0.480725 0.480834 0.480956 0.481093 0.481243 0.48141 
0.481595 0.481793 0.482029 0.484095 0.484322 0.484507 0.484677 0.484832 0.484971 
0.485097 0.485209 0.48531 0.4854 0.48548 0.485551 0.485615 0.485672 0.485722 
0.485767 0.485808 0.485844 0.485876 0.485905 0.48593 0.485953 0.485974 0.485993 
0.48601 0.486025 0.486039 0.486051 0.486062 0.486073 0.486082 0.48609 0.486098 
0.486105 0.486111 0.486117 0.486122 0.486127 0.486131 0.486135 0.486139 0.486143 
0.486146 0.486149 0.486152 0.486155 0.486157 0.486159 0.486162 0.486164 0.486166 
0.486167 0.486169 0.486171 0.486173 0.486174 0.486176 0.486177 0.486179 0.48618 
0.486181 0.486183 0.486184 0.486185 0.486187 0.486188 0.486189 0.48619 0.486192 
0.486193 0.486194 0.486195 0.486196 0.486197 0.486199 0.4862 0.486201 0.486202 
0.486203 0.486204 0.486205 0.486207 0.486208 0.486209 0.48621 0.486211 0.486212 
0.486213 0.486214 0.486216 0.486217 0.486218 0.486219 0.486211 0.486204 0.484933 
0.480771 0.479989 0.479968 0.479946 0.479923 0.4799 0.479876 0.479851 0.479825 
0.479798 0.479771 0.479743 0.479714 0.479684 0.479654 0.479624 0.479594 0.479564 
0.479534 0.479504 0.479476 0.479449 0.479422 0.479398 0.479375 0.479353 0.479334 
0.479317 0.479301 0.479288 0.479277 0.479269 0.479262 0.479257 0.479255 0.479254 
0.479255 0.479257 0.479261 0.479266 0.479272 0.479279 0.479286 0.479293 0.479299 
0.479305 0.479311 0.479315 0.479317 0.479318 0.479317 0.479314 0.479308 0.4793 
0.47929 0.479278 0.479263 0.479247 0.479229 0.479209 0.47919 0.47917 0.479151 
0.479133 0.479116 0.479103 0.479092 0.479084 0.47908 0.47908 0.479085 0.479093 
0.479107 0.479125 0.479148 0.479176 0.47921 0.479249 0.479294 0.479343 0.479397 
0.479456 0.479518 0.479585 0.479653 0.479724 0.479796 0.479868 0.479939 0.480008 
0.480075 0.480138 0.480196 0.480248 0.480295 0.480336 0.480369 0.480395 0.480414 
0.480425 0.480428 0.480423 0.48041 0.48039 0.480363 0.480329 0.480288 0.480242 
0.48019 0.480136 0.480078 0.480021 0.479965 0.479913 0.479867 0.479829 0.479801 
0.479784 0.479778 0.479785 0.479804 0.479835 0.479875 0.479924 0.479978 0.480036 
0.480094 0.480151 0.480204 0.480252 0.480294 0.480327 0.480353 0.480369 0.480377 
0.480376 0.480367 0.48035 0.480326 0.480296 0.480259 0.480218 0.480174 0.480126 
0.480077 0.480028 0.479979 0.479933 0.47989 0.479852 0.47982 0.479794 0.479776 
0.479764 0.479759 0.47976 0.479767 0.479778 0.479792 0.479808 0.479825 0.479843 
0.47986 0.479876 0.479891 0.479904 0.479917 0.479928 0.479939 0.47995 0.47996 
0.479971 0.479982 0.479994 0.480007 0.480022 0.480037 0.480055 0.480075 0.480098 
0.480123 0.480151 0.480184 0.48022 0.480262 0.48031 0.480365 0.480427 0.480498 
0.480579 0.48067 0.480774 0.480891 0.481022 0.481169 0.481332 0.481515 0.481713 
0.481949 0.4841 0.484335 0.484527 0.484701 0.484857 0.484998 0.485124 0.485236 
0.485336 0.485424 0.485503 0.485573 0.485635 0.48569 0.485739 0.485783 0.485821 
0.485856 0.485887 0.485915 0.48594 0.485962 0.485982 0.486 0.486016 0.486031 
0.486044 0.486056 0.486066 0.486076 0.486085 0.486093 0.4861 0.486107 0.486113 
0.486119 0.486124 0.486128 0.486133 0.486137 0.48614 0.486144 0.486147 0.48615 
0.486153 0.486155 0.486158 0.48616 0.486162 0.486164 0.486166 0.486168 0.48617 
0.486171 0.486173 0.486174 0.486176 0.486177 0.486179 0.48618 0.486182 0.486183 
0.486184 0.486186 0.486187 0.486188 0.486189 0.48619 0.486192 0.486193 0.486194 
0.486195 0.486196 0.486197 0.486199 0.4862 0.486201 0.486202 0.486203 0.486204 
0.486205 0.486207 0.486208 0.486209 0.48621 0.486211 0.486212 0.486213 0.486215 
0.486216 0.486217 0.486218 0.486219 0.486211 0.486204 0.484933 0.480771 0.47999 
0.479969 0.479947 0.479925 0.479901 0.479877 0.479853 0.479827 0.4798 0.479772 
0.479743 0.479714 0.479683 0.479653 0.479622 0.479591 0.479559 0.479529 0.479499 
0.479469 0.479441 0.479414 0.479389 0.479365 0.479344 0.479324 0.479307 0.479291 
0.479278 0.479268 0.479259 0.479253 0.479248 0.479246 0.479246 0.479248 0.479251 
0.479256 0.479262 0.479269 0.479277 0.479285 0.479294 0.479302 0.479309 0.479315 
0.47932 0.479324 0.479325 0.479325 0.479322 0.479316 0.479308 0.479297 0.479284 
0.479268 0.479249 0.479229 0.479208 0.479186 0.479164 0.479142 0.479122 0.479103 
0.479088 0.479075 0.479066 0.479061 0.47906 0.479063 0.479071 0.479084 0.479101 
0.479124 0.479152 0.479185 0.479224 0.479268 0.479318 0.479373 0.479433 0.479498 
0.479566 0.479637 0.479711 0.479787 0.479863 0.479938 0.480011 0.480082 0.480149 
0.480211 0.480267 0.480318 0.480361 0.480397 0.480425 0.480445 0.480457 0.48046 
0.480455 0.480441 0.480419 0.480389 0.480351 0.480306 0.480254 0.480197 0.480135 
0.480071 0.480006 0.479942 0.479882 0.47983 0.479786 0.479753 0.479733 0.479727 
0.479735 0.479758 0.479793 0.47984 0.479897 0.47996 0.480026 0.480094 0.480159 
0.480219 0.480274 0.48032 0.480358 0.480386 0.480404 0.480412 0.48041 0.480399 
0.48038 0.480353 0.480319 0.480278 0.480233 0.480183 0.48013 0.480076 0.480021 
0.479967 0.479916 0.479869 0.479827 0.479792 0.479765 0.479746 0.479735 0.479733 
0.479737 0.479747 0.479762 0.47978 0.479801 0.479821 0.479842 0.479861 0.479878 
0.479894 0.479907 0.479919 0.47993 0.47994 0.479949 0.479958 0.479968 0.479978 
0.479988 0.48 0.480013 0.480028 0.480044 0.480062 0.480082 0.480105 0.48013 
0.480159 0.480192 0.48023 0.480273 0.480322 0.480378 0.480443 0.480517 0.480602 
0.480699 0.480809 0.480933 0.481074 0.481232 0.481411 0.481606 0.481843 0.484107 
0.484354 0.484553 0.484732 0.484892 0.485034 0.485159 0.485271 0.485369 0.485456 
0.485532 0.4856 0.48566 0.485713 0.48576 0.485801 0.485839 0.485872 0.485901 
0.485927 0.485951 0.485972 0.485991 0.486008 0.486024 0.486037 0.48605 0.486061 
0.486071 0.486081 0.486089 0.486097 0.486104 0.48611 0.486116 0.486121 0.486126 
0.48613 0.486134 0.486138 0.486142 0.486145 0.486148 0.486151 0.486154 0.486156 
0.486158 0.486161 0.486163 0.486165 0.486167 0.486168 0.48617 0.486172 0.486173 
0.486175 0.486176 0.486178 0.486179 0.48618 0.486182 0.486183 0.486184 0.486186 
0.486187 0.486188 0.486189 0.48619 0.486192 0.486193 0.486194 0.486195 0.486196 
0.486198 0.486199 0.4862 0.486201 0.486202 0.486203 0.486204 0.486205 0.486207 
0.486208 0.486209 0.48621 0.486211 0.486212 0.486213 0.486215 0.486216 0.486217 
0.486218 0.486219 0.486211 0.486204 0.484933 0.480771 0.47999 0.47997 0.479948 
0.479926 0.479904 0.47988 0.479855 0.479829 0.479801 0.479773 0.479744 0.479714 
0.479683 0.479651 0.479619 0.479587 0.479555 0.479523 0.479492 0.479461 0.479432 
0.479404 0.479378 0.479354 0.479332 0.479312 0.479294 0.479279 0.479266 0.479255 
0.479247 0.479241 0.479238 0.479236 0.479237 0.479239 0.479244 0.47925 0.479257 
0.479266 0.479275 0.479285 0.479295 0.479304 0.479313 0.479321 0.479327 0.479332 
0.479334 0.479334 0.479331 0.479326 0.479317 0.479305 0.479291 0.479273 0.479253 
0.47923 0.479206 0.479181 0.479156 0.479131 0.479108 0.479087 0.479069 0.479055 
0.479044 0.479038 0.479036 0.479038 0.479046 0.479057 0.479074 0.479095 0.479123 
0.479156 0.479195 0.479239 0.47929 0.479345 0.479407 0.479473 0.479544 0.479618 
0.479696 0.479775 0.479855 0.479935 0.480014 0.48009 0.480162 0.480229 0.48029 
0.480344 0.480392 0.480431 0.480461 0.480483 0.480496 0.480499 0.480493 0.480478 
0.480453 0.48042 0.480378 0.480328 0.48027 0.480206 0.480135 0.480062 0.479986 
0.479912 0.479843 0.479781 0.47973 0.479692 0.479669 0.479662 0.479672 0.479698 
0.47974 0.479795 0.479862 0.479937 0.480015 0.480093 0.480169 0.480239 0.480301 
0.480354 0.480396 0.480427 0.480446 0.480455 0.480452 0.480439 0.480417 0.480386 
0.480347 0.480302 0.48025 0.480194 0.480135 0.480074 0.480012 0.479951 0.479893 
0.479841 0.479794 0.479756 0.479727 0.479708 0.479699 0.479699 0.479708 0.479723 
0.479744 0.479767 0.479793 0.479818 0.479842 0.479863 0.479882 0.479899 0.479912 
0.479923 0.479933 0.479941 0.479949 0.479957 0.479964 0.479973 0.479982 0.479992 
0.480004 0.480016 0.48003 0.480046 0.480064 0.480083 0.480106 0.480131 0.480159 
0.480192 0.480229 0.480272 0.480321 0.480379 0.480445 0.480521 0.480609 0.48071 
0.480826 0.480958 0.481108 0.48128 0.481471 0.481708 0.484118 0.484379 0.484587 
0.484772 0.484935 0.485078 0.485203 0.485313 0.485409 0.485493 0.485567 0.485632 
0.485689 0.48574 0.485784 0.485824 0.485859 0.48589 0.485918 0.485942 0.485965 
0.485984 0.486002 0.486018 0.486033 0.486046 0.486057 0.486068 0.486077 0.486086 
0.486094 0.486101 0.486108 0.486113 0.486119 0.486124 0.486128 0.486133 0.486137 
0.48614 0.486143 0.486147 0.486149 0.486152 0.486155 0.486157 0.486159 0.486161 
0.486163 0.486165 0.486167 0.486169 0.48617 0.486172 0.486174 0.486175 0.486177 
0.486178 0.486179 0.486181 0.486182 0.486183 0.486185 0.486186 0.486187 0.486188 
0.486189 0.486191 0.486192 0.486193 0.486194 0.486195 0.486196 0.486198 0.486199 
0.4862 0.486201 0.486202 0.486203 0.486204 0.486205 0.486207 0.486208 0.486209 
0.48621 0.486211 0.486212 0.486213 0.486215 0.486216 0.486217 0.486218 0.486219 
0.486211 0.486204 0.484933 0.480771 0.47999 0.479971 0.47995 0.479929 0.479906 
0.479883 0.479857 0.479831 0.479804 0.479775 0.479745 0.479714 0.479682 0.479649 
0.479616 0.479582 0.479549 0.479516 0.479483 0.479452 0.479422 0.479393 0.479366 
0.479341 0.479319 0.479298 0.47928 0.479265 0.479252 0.479241 0.479234 0.479228 
0.479225 0.479224 0.479226 0.479229 0.479235 0.479242 0.479251 0.479261 0.479272 
0.479284 0.479296 0.479307 0.479318 0.479327 0.479335 0.479341 0.479344 0.479345 
0.479343 0.479337 0.479328 0.479315 0.479299 0.479279 0.479257 0.479231 0.479204 
0.479175 0.479147 0.479119 0.479092 0.479069 0.479048 0.479032 0.47902 0.479012 
0.479009 0.479011 0.479018 0.479029 0.479045 0.479066 0.479093 0.479126 0.479164 
0.479209 0.479259 0.479316 0.479378 0.479446 0.47952 0.479597 0.479678 0.479762 
0.479847 0.479932 0.480017 0.480098 0.480176 0.480249 0.480315 0.480375 0.480426 
0.480469 0.480502 0.480526 0.48054 0.480544 0.480537 0.48052 0.480493 0.480457 
0.48041 0.480354 0.480289 0.480216 0.480135 0.48005 0.479963 0.479876 0.479794 
0.479721 0.47966 0.479615 0.479588 0.47958 0.479592 0.479623 0.479673 0.47974 
0.47982 0.479909 0.480001 0.480094 0.480182 0.480263 0.480335 0.480395 0.480442 
0.480477 0.480498 0.480506 0.480502 0.480486 0.48046 0.480424 0.48038 0.480329 
0.480271 0.480207 0.48014 0.48007 0.48 0.479931 0.479865 0.479805 0.479753 