# vtk DataFile Version 5.1
vtk output
ASCII
DATASET UNSTRUCTURED_GRID
POINTS 10043 double
-10.1 1.4499999993 -1.9274396834e-07 -10.049999999 1.4499999993 -1.0286679952e-07 -10.049999999 1.5 3.682841907e-07 
-9.9999999985 1.4499999993 -6.8151386756e-08 -9.9999999985 1.5 2.5468375497e-07 -9.9499999978 1.4499999993 -5.1095629061e-08 
-9.9499999978 1.5 1.9264986406e-07 -9.899999997 1.4499999993 -4.0350858654e-08 -9.899999997 1.5 1.5276852139e-07 
-9.8499999963 1.4499999993 -3.2863898269e-08 -9.8499999963 1.5 1.2472970923e-07 -9.7999999955 1.4499999993 -2.7287788029e-08 
-9.7999999955 1.5 1.0373583592e-07 -9.7499999948 1.4499999993 -2.2929489418e-08 -9.7499999948 1.5 8.7447695307e-08 
-9.699999994 1.4499999993 -1.9562540032e-08 -9.699999994 1.5 7.4291854446e-08 -9.6499999933 1.4499999993 -1.6707636163e-08 
-9.6499999933 1.5 6.3600744227e-08 -9.5999999925 1.4499999993 -1.4355682865e-08 -9.5999999925 1.5 5.458856478e-08 
-9.5499999918 1.4499999993 -1.2282944439e-08 -9.5499999918 1.5 4.6846036383e-08 -9.4999999911 1.4499999993 -1.0586736821e-08 
-9.4999999911 1.5 4.032859735e-08 -9.4499999903 1.4499999993 -9.0751566262e-09 -9.4499999903 1.5 3.459696174e-08 
-9.3999999896 1.4499999993 -7.8036830331e-09 -9.3999999896 1.5 2.9495604181e-08 -9.3499999888 1.4499999993 -6.5804126592e-09 
-9.3499999888 1.5 2.5005428839e-08 -9.2999999881 1.4499999993 -5.5172133528e-09 -9.2999999881 1.5 2.1062769306e-08 
-9.2499999873 1.4499999993 -4.6013521882e-09 -9.2499999873 1.5 1.7450256351e-08 -9.1999999866 1.4499999993 -3.7318752533e-09 
-9.1999999866 1.5 1.4277029337e-08 -9.1499999858 1.4499999993 -2.9897273546e-09 -9.1499999858 1.5 1.1356641849e-08 
-9.0999999851 1.4499999993 -2.2785024978e-09 -9.0999999851 1.5 8.6863654047e-09 -9.0499999844 1.4499999993 -1.6245758072e-09 
-9.0499999844 1.5 6.2780234344e-09 -8.9999999836 1.4499999993 -1.076150502e-09 -8.9999999836 1.5 4.1143355389e-09 
-8.9499999829 1.4499999993 -5.8411386838e-10 -8.9499999829 1.5 2.0406878409e-09 -8.8999999821 1.4499999993 -2.946753952e-12 
-8.8999999821 1.5 2.1806045858e-10 -8.8499999814 1.4499999993 2.9991498174e-10 -8.8499999814 1.5 -1.558182694e-09 
-8.7999999806 1.4499999993 7.937706048e-10 -8.7999999806 1.5 -3.0870432877e-09 -8.7499999799 1.4499999993 1.1730298954e-09 
-8.7499999799 1.5 -4.5158596862e-09 -8.6999999791 1.4499999993 1.3562930778e-09 -8.6999999791 1.5 -5.2411817109e-09 
-8.6499999784 1.4499999993 1.6878038966e-09 -8.6499999784 1.5 -6.4694543056e-09 -8.5999999776 1.4499999993 2.017495726e-09 
-8.5999999776 1.5 -7.6718063013e-09 -8.5499999769 1.4499999993 2.2867061578e-09 -8.5499999769 1.5 -8.7863920584e-09 
-8.4999999762 1.4499999993 2.5709232521e-09 -8.4999999762 1.5 -9.7677368416e-09 -8.4499999754 1.4499999993 2.786018749e-09 
-8.4499999754 1.5 -1.0780459192e-08 -8.3999999747 1.4499999993 3.0547744334e-09 -8.3999999747 1.5 -1.1589909477e-08 
-8.3499999739 1.4499999993 3.2380376158e-09 -8.3499999739 1.5 -1.232569069e-08 -8.2999999732 1.4499999993 3.4294862505e-09 
-8.2999999732 1.5 -1.3056469683e-08 -8.2499999724 1.4499999993 3.6245728641e-09 -8.2499999724 1.5 -1.367492608e-08 
-8.1999999717 1.4499999993 3.806016835e-09 -8.1999999717 1.5 -1.4250636227e-08 -8.1499999709 1.4499999993 4.0247507549e-09 
-8.1499999709 1.5 -1.4761317502e-08 -8.0999999702 1.4499999993 4.1216114965e-09 -8.0999999702 1.5 -1.5177866075e-08 
-8.0499999695 1.4499999993 4.313969626e-09 -8.0499999695 1.5 -1.5534842746e-08 -7.9999999687 1.4499999993 4.4763144302e-09 
-7.9999999687 1.5 -1.5875903259e-08 -7.949999968 1.4499999993 4.5299746176e-09 -7.949999968 1.5 -1.6161939342e-08 
-7.8999999672 1.4499999993 4.5490740064e-09 -7.8999999672 1.5 -1.6397043723e-08 -7.8499999665 1.4499999993 4.5408885541e-09 
-7.8499999665 1.5 -1.6625326893e-08 -7.7999999657 1.4499999993 4.599096215e-09 -7.7999999657 1.5 -1.6749018172e-08 
-7.749999965 1.4499999993 4.5831800577e-09 -7.749999965 1.5 -1.6788126445e-08 -7.6999999642 1.4499999993 4.6027341938e-09 
-7.6999999642 1.5 -1.6877711673e-08 -7.6499999635 1.4499999993 4.5277008809e-09 -7.6499999635 1.5 -1.6842241379e-08 
-7.5999999627 1.4499999993 4.5613521849e-09 -7.5999999627 1.5 -1.6792219171e-08 -7.549999962 1.4499999993 4.5154227024e-09 
-7.549999962 1.5 -1.6623962651e-08 -7.4999999613 1.4499999993 4.4171972746e-09 -7.4999999613 1.5 -1.6462072594e-08 
-7.4499999605 1.4499999993 4.3344332568e-09 -7.4499999605 1.5 -1.6241974876e-08 -7.3999999598 1.4499999993 4.3207908362e-09 
-7.3999999598 1.5 -1.5926380215e-08 -7.349999959 1.4499999993 4.1920973359e-09 -7.349999959 1.5 -1.5585319701e-08 
-7.2999999583 1.4499999993 4.054763636e-09 -7.2999999583 1.5 -1.5178320822e-08 -7.2499999575 1.4499999993 3.9351650827e-09 
-7.2499999575 1.5 -1.4672187021e-08 -7.1999999568 1.4499999993 3.8173855188e-09 -7.1999999568 1.5 -1.4131492421e-08 
-7.149999956 1.4499999993 3.6345773058e-09 -7.149999956 1.5 -1.3525314202e-08 -7.0999999553 1.4499999993 3.5145240052e-09 
-7.0999999553 1.5 -1.3206536309e-08 -7.0499999546 1.4499999993 3.3578635428e-09 -7.0499999546 1.5 -1.2492355594e-08 
-6.9999999538 1.4499999993 3.1516356191e-09 -6.9999999538 1.5 -1.1725196813e-08 -6.9499999531 1.4499999993 2.9356306275e-09 
-6.9499999531 1.5 -1.0887324819e-08 -6.8999999523 1.4499999993 2.7134865466e-09 -6.8999999523 1.5 -9.9557748712e-09 
-6.8499999516 1.4499999993 2.4031214796e-09 -6.8499999516 1.5 -8.9951210924e-09 -6.7999999508 1.4499999993 2.1652886151e-09 
-6.7999999508 1.5 -7.8900850298e-09 -6.7499999501 1.4499999993 1.825592344e-09 -6.7499999501 1.5 -6.7818657357e-09 
-6.6999999493 1.4499999993 1.5186378821e-09 -6.6999999493 1.5 -5.598385755e-09 -6.6499999486 1.4499999993 1.2082728151e-09 
-6.6499999486 1.5 -4.2648391485e-09 -6.5999999478 1.4499999993 8.3151463492e-10 -6.5999999478 1.5 -2.8767226379e-09 
-6.5499999471 1.4499999993 3.9177394662e-10 -6.5499999471 1.5 -1.3637782015e-09 -6.4999999464 1.4499999993 9.1038288019e-15 
-6.4999999464 1.5 1.9873369617e-10 -6.4499999456 1.4499999993 -4.756566252e-10 -6.4499999456 1.5 1.8958508097e-09 
-6.3999999449 1.4499999993 -9.2881236036e-10 -6.3999999449 1.5 3.6593610364e-09 -6.3499999441 1.4499999993 -1.4147099048e-09 
-6.3499999441 1.5 5.5613416095e-09 -6.2999999434 1.4499999993 -1.9474464263e-09 -6.2999999434 1.5 7.5649584375e-09 
-6.2499999426 1.4499999993 -2.4756354744e-09 -6.2499999426 1.5 9.676805135e-09 -6.1999999419 1.4499999993 -3.070672383e-09 
-6.1999999419 1.5 1.1860501914e-08 -6.1499999411 1.4499999993 -3.6986784746e-09 -6.1499999411 1.5 1.4189717845e-08 
-6.0999999404 1.4499999993 -4.32122782e-09 -6.0999999404 1.5 1.6651265256e-08 -6.0499999397 1.4499999993 -5.0117616723e-09 
-6.0499999397 1.5 1.9185799616e-08 -5.9999999389 1.4499999993 -5.7277613763e-09 -5.9999999389 1.5 2.1850391718e-08 
-5.9499999382 1.4499999993 -6.4330745175e-09 -5.9499999382 1.5 2.4679374988e-08 -5.8999999374 1.4499999993 -7.206145014e-09 
-5.8999999374 1.5 2.7579753592e-08 -5.8499999367 1.4499999993 -8.0013844439e-09 -5.8499999367 1.5 3.0600187273e-08 
-5.7999999359 1.4499999993 -8.8184517466e-09 -5.7999999359 1.5 3.3738057681e-08 -5.7499999352 1.4499999993 -9.7055501413e-09 
-5.7499999352 1.5 3.6996208763e-08 -5.6999999344 1.4499999993 -1.0565250008e-08 -5.6999999344 1.5 4.0378278499e-08 
-5.6499999337 1.4499999993 -1.1469969863e-08 -5.6499999337 1.5 4.3829242458e-08 -5.5999999329 1.4499999993 -1.2400269256e-08 
-5.5999999329 1.5 4.7363652556e-08 -5.5499999322 1.4499999993 -1.2887758416e-08 -5.5499999322 1.5 4.9145466363e-08 
-5.4999999315 1.4499999993 -1.3846024771e-08 -5.4999999315 1.5 5.2783672544e-08 -5.4499999307 1.4499999993 -1.4800766834e-08 
-5.4499999307 1.5 5.6460191189e-08 -5.39999993 1.4499999993 -1.5745049708e-08 -5.39999993 1.5 6.0163081628e-08 
-5.3499999292 1.4499999993 -1.6733556762e-08 -5.3499999292 1.5 6.3804584727e-08 -5.2999999285 1.4499999993 -1.7662719287e-08 
-5.2999999285 1.5 6.7391631831e-08 -5.2499999277 1.4499999993 -1.8555502024e-08 -5.2499999277 1.5 7.0856579271e-08 
-5.199999927 1.4499999993 -1.9419749364e-08 -5.199999927 1.5 7.4098700509e-08 -5.1499999262 1.4499999993 -2.0202142181e-08 
-5.1499999262 1.5 7.7062061621e-08 -5.0999999255 1.4499999993 -2.088994755e-08 -5.0999999255 1.5 7.9613194259e-08 
-5.0499999247 1.4499999993 -2.1406426853e-08 -5.0499999247 1.5 8.1675587182e-08 -4.999999924 1.4499999993 -2.176783731e-08 
-4.999999924 1.5 8.3038237619e-08 -4.9499999233 1.4499999993 -2.1898918234e-08 -4.9499999233 1.5 8.3489460678e-08 
-4.8999999225 1.4499999993 -2.169632829e-08 -4.8999999225 1.5 8.2768004006e-08 -4.8499999218 1.4499999993 -2.1115956983e-08 
-4.8499999218 1.5 8.0561115112e-08 -4.799999921 1.4499999993 -2.0030077152e-08 -4.799999921 1.5 7.6436954544e-08 
-4.7499999203 1.4499999993 -1.8314315398e-08 -4.7499999203 1.5 6.9894220189e-08 -4.6999999195 1.4499999993 -1.5771936646e-08 
-4.6999999195 1.5 6.0288193993e-08 -4.6499999188 1.4499999993 -1.2218768219e-08 -4.6499999188 1.5 4.6741217119e-08 
-4.599999918 1.4499999993 -7.3485946217e-09 -4.599999918 1.5 2.8166377675e-08 -4.5499999173 1.4499999993 -7.9540085629e-10 
-4.5499999173 1.5 3.206716892e-09 -4.4999999166 1.4499999993 7.9327922009e-09 -4.4999999166 1.5 -2.9934529522e-08 
-4.4499999158 1.4499999993 1.9452452094e-08 -4.4499999158 1.5 -7.3709593096e-08 -4.3999999151 1.4499999993 3.4612138933e-08 
-4.3999999151 1.5 -1.3126860665e-07 -4.3499999143 1.4499999993 5.4512963032e-08 -4.3499999143 1.5 -2.0684340996e-07 
-4.2999999136 1.4499999993 8.0724198881e-08 -4.2999999136 1.5 -3.0626426906e-07 -4.2499999128 1.4499999993 1.1535752975e-07 
-4.2499999128 1.5 -4.3754931767e-07 -4.1999999121 1.4499999993 1.6143174264e-07 -4.1999999121 1.5 -6.1200614709e-07 
-4.1499999113 1.4499999993 2.2323975202e-07 -4.1499999113 1.5 -8.4582364934e-07 -4.0999999106 1.4499999993 3.071435799e-07 
-4.0999999106 1.5 -1.162802846e-06 -4.0499999098 1.4499999993 4.2280368007e-07 -4.0499999098 1.5 -1.598946028e-06 
-3.9999999091 1.4499999993 5.8537347059e-07 -3.9999999091 1.5 -2.2104752588e-06 -3.9499999084 1.4499999993 6.9144692816e-07 
[...]
CELL_DATA 9510
FIELD FieldData 4
Water_Depth_m 1 9510 float
0.603 0.603001 0.603002 0.603002 0.603003 0.603003 0.603004 0.603005 0.603005 
0.603006 0.603006 0.603007 0.603008 0.603008 0.603009 0.60301 0.60301 0.603011 
0.603011 0.603012 0.603013 0.603013 0.603014 0.603014 0.603015 0.603016 0.603016 
0.603017 0.603018 0.603018 0.603019 0.603019 0.60302 0.603021 0.603021 0.603022 
0.603022 0.603023 0.603024 0.603024 0.603025 0.603026 0.603026 0.603027 0.603027 
0.603028 0.603029 0.603029 0.60303 0.60303 0.603031 0.603032 0.603032 0.603033 
0.603033 0.603034 0.603035 0.603035 0.603036 0.603037 0.603037 0.603038 0.603038 
0.603039 0.60304 0.60304 0.603041 0.603041 0.603042 0.603043 0.603043 0.603044 
0.603044 0.603045 0.603046 0.603046 0.603047 0.603047 0.603048 0.603048 0.603049 
0.60305 0.60305 0.603051 0.603051 0.603052 0.603052 0.603053 0.603053 0.603054 
0.603054 0.603055 0.603055 0.603056 0.603056 0.603057 0.603057 0.603058 0.603058 
0.603058 0.603059 0.603059 0.603059 0.60306 0.60306 0.60306 0.60306 0.60306 
0.60306 0.60306 0.60306 0.60306 0.603059 0.603059 0.603058 0.603058 0.603057 
0.603056 0.603055 0.603054 0.603052 0.603051 0.603049 0.603048 0.603046 0.603045 
0.603046 0.603049 0.603062 0.603119 0.603316 0.603193 0.597591 0.583905 0.563968 
0.539517 0.511912 0.482343 0.452295 0.422944 0.394826 0.368998 0.346628 0.329051 
0.318112 0.316256 0.316244 0.316235 0.316249 0.316323 0.32583 0.333391 0.333 
0.32764 0.328644 0.328152 0.301416 0.257733 0.232375 0.230525 0.217153 0.18356 
0.178166 0.182702 0.181237 0.18164 0.186613 0.18859 0.19358 0.199311 0.201803 
0.204941 0.209563 0.215811 0.219269 0.223565 0.228729 0.234288 0.23928 0.241543 
0.248241 0.255802 0.264265 0.26715 0.271541 0.283682 0.296445 0.313104 0.330016 
0.344213 0.35838 0.367909 0.385539 0.393906 0.405736 0.425649 0.450307 0.48814 
0.619536 0.573084 0.536111 0.493212 0.461958 0.425943 0.387986 0.378968 0.378669 
0.368303 0.368006 0.367888 0.367849 0.367833 0.367824 0.36782 0.367818 0.367817 
0.367817 0.367818 0.367819 0.367821 0.367823 0.367825 0.367827 0.36783 0.367832 
0.367835 0.367838 0.367841 0.367843 0.367846 0.367849 0.367852 0.367856 0.367859 
0.367862 0.367865 0.367868 0.367872 0.367875 0.367878 0.367881 0.367885 0.367888 
0.367891 0.367894 0.367898 0.367901 0.367904 0.367908 0.367911 0.367915 0.367918 
0.367921 0.367925 0.367928 0.367931 0.367935 0.367938 0.367942 0.367945 0.367948 
0.367952 0.367955 0.367959 0.367962 0.367966 0.367969 0.367972 0.367976 0.367979 
0.367983 0.367986 0.36799 0.367993 0.367996 0.368 0.368003 0.368007 0.36801 
0.368013 0.368017 0.36802 0.368024 0.368027 0.368031 0.368034 0.368038 0.368041 
0.368044 0.368048 0.36805 0.368042 0.367832 0.365949 0.36249 0.603001 0.603001 
0.603002 0.603002 0.603003 0.603003 0.603004 0.603005 0.603005 0.603006 0.603007 
0.603007 0.603008 0.603008 0.603009 0.60301 0.60301 0.603011 0.603011 0.603012 
0.603013 0.603013 0.603014 0.603014 0.603015 0.603016 0.603016 0.603017 0.603018 
0.603018 0.603019 0.603019 0.60302 0.603021 0.603021 0.603022 0.603022 0.603023 
0.603024 0.603024 0.603025 0.603025 0.603026 0.603027 0.603027 0.603028 0.603029 
0.603029 0.60303 0.60303 0.603031 0.603032 0.603032 0.603033 0.603033 0.603034 
0.603035 0.603035 0.603036 0.603037 0.603037 0.603038 0.603038 0.603039 0.60304 
0.60304 0.603041 0.603041 0.603042 0.603043 0.603043 0.603044 0.603044 0.603045 
0.603046 0.603046 0.603047 0.603047 0.603048 0.603048 0.603049 0.60305 0.60305 
0.603051 0.603051 0.603052 0.603052 0.603053 0.603053 0.603054 0.603054 0.603055 
0.603055 0.603056 0.603056 0.603057 0.603057 0.603058 0.603058 0.603058 0.603059 
0.603059 0.603059 0.60306 0.60306 0.60306 0.60306 0.60306 0.60306 0.60306 
0.60306 0.60306 0.603059 0.603059 0.603058 0.603058 0.603057 0.603056 0.603054 
0.603053 0.603051 0.603049 0.603047 0.603045 0.603042 0.603038 0.603035 0.603031 
0.603027 0.603024 0.603054 0.602998 0.597905 0.5848 0.565173 0.540667 0.512731 
0.482661 0.451921 0.421741 0.392915 0.366627 0.344204 0.327229 0.317727 0.316277 
0.316259 0.316249 0.316272 0.316336 0.324485 0.331369 0.33109 0.325961 0.323846 
0.322469 0.306 0.283179 0.261503 0.238886 0.217597 0.184181 0.169206 0.171047 
0.174503 0.17691 0.18074 0.182869 0.187607 0.191391 0.193673 0.195031 0.198867 
0.204452 0.207254 0.210214 0.212499 0.216913 0.220846 0.225325 0.231516 0.24253 
0.250646 0.262662 0.273792 0.286419 0.303071 0.31993 0.334983 0.351861 0.366978 
0.383668 0.399033 0.41323 0.426484 0.442253 0.452831 0.48722 0.613951 0.570426 
0.535637 0.492582 0.457113 0.421894 0.38842 0.380216 0.37978 0.368957 0.367777 
0.36778 0.367781 0.367783 0.367786 0.367789 0.367792 0.367795 0.367798 0.367801 
0.367805 0.367808 0.367811 0.367814 0.367818 0.367821 0.367824 0.367828 0.367831 
0.367834 0.367838 0.367841 0.367844 0.367848 0.367851 0.367854 0.367858 0.367861 
0.367865 0.367868 0.367872 0.367875 0.367878 0.367882 0.367885 0.367889 0.367892 
0.367896 0.367899 0.367902 0.367906 0.367909 0.367913 0.367916 0.36792 0.367923 
0.367926 0.36793 0.367933 0.367937 0.36794 0.367944 0.367947 0.367951 0.367954 
0.367957 0.367961 0.367964 0.367968 0.367971 0.367975 0.367978 0.367982 0.367985 
0.367989 0.367992 0.367995 0.367999 0.368002 0.368006 0.368009 0.368013 0.368016 
0.36802 0.368023 0.368026 0.36803 0.368033 0.368037 0.36804 0.368044 0.368047 
0.368049 0.368041 0.367831 0.365948 0.362488 0.603 0.603001 0.603002 0.603002 
0.603003 0.603003 0.603004 0.603005 0.603005 0.603006 0.603006 0.603007 0.603008 
0.603008 0.603009 0.60301 0.60301 0.603011 0.603011 0.603012 0.603013 0.603013 
0.603014 0.603014 0.603015 0.603016 0.603016 0.603017 0.603018 0.603018 0.603019 
0.603019 0.60302 0.603021 0.603021 0.603022 0.603022 0.603023 0.603024 0.603024 
0.603025 0.603025 0.603026 0.603027 0.603027 0.603028 0.603029 0.603029 0.60303 
0.60303 0.603031 0.603032 0.603032 0.603033 0.603033 0.603034 0.603035 0.603035 
0.603036 0.603037 0.603037 0.603038 0.603038 0.603039 0.60304 0.60304 0.603041 
0.603041 0.603042 0.603043 0.603043 0.603044 0.603044 0.603045 0.603046 0.603046 
0.603047 0.603047 0.603048 0.603048 0.603049 0.60305 0.60305 0.603051 0.603051 
0.603052 0.603052 0.603053 0.603053 0.603054 0.603054 0.603055 0.603055 0.603056 
0.603056 0.603057 0.603057 0.603058 0.603058 0.603059 0.603059 0.603059 0.603059 
0.60306 0.60306 0.60306 0.60306 0.60306 0.60306 0.60306 0.60306 0.60306 
0.603059 0.603059 0.603059 0.603058 0.603057 0.603056 0.603055 0.603054 0.603052 
0.60305 0.603048 0.603045 0.603043 0.60304 0.603036 0.603032 0.603029 0.603029 
0.603107 0.602998 0.598019 0.585175 0.565763 0.541291 0.513202 0.48285 0.451674 
0.420959 0.391729 0.365276 0.34303 0.326597 0.317631 0.31624 0.316236 0.316233 
0.316241 0.316304 0.323593 0.329575 0.329334 0.32393 0.321984 0.32171 0.308733 
0.302048 0.287369 0.256645 0.225239 0.191039 0.165586 0.164245 0.164492 0.165335 
0.167899 0.169588 0.17225 0.17515 0.177039 0.179082 0.182398 0.190585 0.191126 
0.192157 0.200208 0.205276 0.210849 0.221648 0.230131 0.241892 0.250362 0.261987 
0.273468 0.287121 0.303284 0.319912 0.334265 0.351514 0.366822 0.38262 0.39926 
0.414661 0.42991 0.44452 0.458658 0.489433 0.612601 0.557223 0.524938 0.486541 
0.450982 0.419991 0.392388 0.383509 0.382965 0.368688 0.367782 0.367785 0.367784 
0.367785 0.367788 0.36779 0.367793 0.367796 0.367799 0.367802 0.367805 0.367808 
0.367812 0.367815 0.367818 0.367821 0.367825 0.367828 0.367831 0.367834 0.367838 
0.367841 0.367845 0.367848 0.367851 0.367855 0.367858 0.367861 0.367865 0.367868 
0.367872 0.367875 0.367878 0.367882 0.367885 0.367889 0.367892 0.367896 0.367899 
0.367902 0.367906 0.367909 0.367913 0.367916 0.36792 0.367923 0.367927 0.36793 
0.367933 0.367937 0.36794 0.367944 0.367947 0.367951 0.367954 0.367958 0.367961 
0.367964 0.367968 0.367971 0.367975 0.367978 0.367982 0.367985 0.367989 0.367992 
0.367995 0.367999 0.368002 0.368006 0.368009 0.368013 0.368016 0.36802 0.368023 
0.368026 0.36803 0.368033 0.368037 0.36804 0.368044 0.368047 0.368049 0.368041 
0.367831 0.365948 0.362488 0.603 0.603001 0.603002 0.603002 0.603003 0.603003 
0.603004 0.603005 0.603005 0.603006 0.603006 0.603007 0.603008 0.603008 0.603009 
0.60301 0.60301 0.603011 0.603011 0.603012 0.603013 0.603013 0.603014 0.603014 
0.603015 0.603016 0.603016 0.603017 0.603018 0.603018 0.603019 0.603019 0.60302 
0.603021 0.603021 0.603022 0.603022 0.603023 0.603024 0.603024 0.603025 0.603025 
0.603026 0.603027 0.603027 0.603028 0.603029 0.603029 0.60303 0.60303 0.603031 
0.603032 0.603032 0.603033 0.603033 0.603034 0.603035 0.603035 0.603036 0.603037 
0.603037 0.603038 0.603038 0.603039 0.60304 0.60304 0.603041 0.603041 0.603042 
0.603043 0.603043 0.603044 0.603044 0.603045 0.603046 0.603046 0.603047 0.603047 
0.603048 0.603048 0.603049 0.60305 0.60305 0.603051 0.603051 0.603052 0.603052 
0.603053 0.603053 0.603054 0.603055 0.603055 0.603056 0.603056 0.603056 0.603057 
0.603057 0.603058 0.603058 0.603059 0.603059 0.603059 0.60306 0.60306 0.60306 
0.60306 0.60306 0.60306 0.60306 0.60306 0.60306 0.60306 0.60306 0.603059 
0.603059 0.603058 0.603057 0.603056 0.603055 0.603054 0.603052 0.603051 0.603049 
0.603046 0.603043 0.60304 0.603036 0.603032 0.603027 0.603022 0.603094 0.602996 
0.598059 0.585327 0.566031 0.541599 0.513449 0.482952 0.451526 0.4205 0.391066 
0.364579 0.342501 0.326357 0.317616 0.316241 0.316238 0.316239 0.316249 0.316298 
0.321478 0.325244 0.323705 0.318336 0.317063 0.316375 0.311651 0.311109 0.296846 
0.262491 0.23263 0.200933 0.169187 0.160679 0.162095 0.162551 0.165357 0.166239 
0.168137 0.169783 0.174888 0.177411 0.181528 0.193438 0.195115 0.199944 0.206745 
0.211061 0.214835 0.221205 0.228862 0.235178 0.244582 0.261537 0.265507 0.279849 
0.290819 0.305696 0.318636 0.338806 0.354703 0.364412 0.38051 0.397582 0.418593 
0.435724 0.456855 0.48992 0.610053 0.558815 0.520896 0.484712 0.446765 0.417834 
0.391865 0.383471 0.382921 0.36903 0.367772 0.367776 0.367779 0.367782 0.367785 
0.367788 0.367791 0.367795 0.367798 0.367801 0.367804 0.367808 0.367811 0.367814 
0.367817 0.367821 0.367824 0.367827 0.367831 0.367834 0.367837 0.367841 0.367844 
0.367848 0.367851 0.367854 0.367858 0.367861 0.367865 0.367868 0.367871 0.367875 
0.367878 0.367882 0.367885 0.367889 0.367892 0.367895 0.367899 0.367902 0.367906 
0.367909 0.367913 0.367916 0.36792 0.367923 0.367926 0.36793 0.367933 0.367937 
0.36794 0.367944 0.367947 0.367951 0.367954 0.367957 0.367961 0.367964 0.367968 
0.367971 0.367975 0.367978 0.367982 0.367985 0.367988 0.367992 0.367995 0.367999 
0.368002 0.368006 0.368009 0.368013 0.368016 0.36802 0.368023 0.368026 0.36803 
0.368033 0.368037 0.36804 0.368044 0.368047 0.368049 0.368041 0.367831 0.365948 
0.362488 0.603 0.603001 0.603002 0.603002 0.603003 0.603003 0.603004 0.603005 
0.603005 0.603006 0.603006 0.603007 0.603008 0.603008 0.603009 0.60301 0.60301 
0.603011 0.603011 0.603012 0.603013 0.603013 0.603014 0.603014 0.603015 0.603016 
0.603016 0.603017 0.603018 0.603018 0.603019 0.603019 0.60302 0.603021 0.603021 
0.603022 0.603022 0.603023 0.603024 0.603024 0.603025 0.603025 0.603026 0.603027 
0.603027 0.603028 0.603029 0.603029 0.60303 0.60303 0.603031 0.603032 0.603032 
0.603033 0.603033 0.603034 0.603035 0.603035 0.603036 0.603036 0.603037 0.603038 
0.603038 0.603039 0.60304 0.60304 0.603041 0.603041 0.603042 0.603043 0.603043 
0.603044 0.603044 0.603045 0.603046 0.603046 0.603047 0.603047 0.603048 0.603048 
0.603049 0.60305 0.60305 0.603051 0.603051 0.603052 0.603052 0.603053 0.603054 
0.603054 0.603055 0.603055 0.603056 0.603056 0.603056 0.603057 0.603057 0.603058 
0.603058 0.603059 0.603059 0.603059 0.60306 0.60306 0.60306 0.60306 0.60306 
0.603061 0.603061 0.603061 0.603061 0.60306 0.60306 0.60306 0.603059 0.603059 
0.603058 0.603057 0.603056 0.603055 0.603053 0.603052 0.60305 0.603047 0.603045 
0.603042 0.603038 0.603034 0.603029 0.603025 0.603098 0.602997 0.598073 0.585383 
0.566142 0.541739 0.513567 0.483004 0.451446 0.420257 0.390728 0.364249 0.342274 
0.326265 0.317604 0.316235 0.316235 0.316238 0.31625 0.316279 0.31834 0.319871 
0.319056 0.315691 0.313643 0.312238 0.311373 0.310796 0.295921 0.261695 0.232198 
0.199676 0.16873 0.167988 0.171709 0.174835 0.174559 0.177647 0.181653 0.186239 
0.188821 0.19239 0.200461 0.207939 0.211142 0.219814 0.223924 0.234017 0.23792 
0.240535 0.25488 0.263988 0.267077 0.275705 0.2867 0.289991 0.304096 0.311188 
0.311564 0.312977 0.32813 0.336925 0.354463 0.373439 0.397216 0.426296 0.44913 
0.48876 0.609162 0.559334 0.523527 0.490714 0.447822 0.410515 0.38719 0.383861 
0.383366 0.368973 0.367774 0.367777 0.367779 0.367782 0.367785 0.367788 0.367791 
0.367795 0.367798 0.367801 0.367804 0.367807 0.367811 0.367814 0.367817 0.367821 
0.367824 0.367827 0.367831 0.367834 0.367837 0.367841 0.367844 0.367848 0.367851 
0.367854 0.367858 0.367861 0.367865 0.367868 0.367871 0.367875 0.367878 0.367882 
0.367885 0.367889 0.367892 0.367895 0.367899 0.367902 0.367906 0.367909 0.367913 
0.367916 0.36792 0.367923 0.367926 0.36793 0.367933 0.367937 0.36794 0.367944 
0.367947 0.367951 0.367954 0.367957 0.367961 0.367964 0.367968 0.367971 0.367975 
0.367978 0.367982 0.367985 0.367988 0.367992 0.367995 0.367999 0.368002 0.368006 
0.368009 0.368013 0.368016 0.36802 0.368023 0.368026 0.36803 0.368033 0.368037 
0.36804 0.368044 0.368047 0.368049 0.368041 0.367831 0.365948 0.362488 0.603 
0.603001 0.603002 0.603002 0.603003 0.603003 0.603004 0.603005 0.603005 0.603006 
0.603006 0.603007 0.603008 0.603008 0.603009 0.60301 0.60301 0.603011 0.603011 
0.603012 0.603013 0.603013 0.603014 0.603014 0.603015 0.603016 0.603016 0.603017 
0.603018 0.603018 0.603019 0.603019 0.60302 0.603021 0.603021 0.603022 0.603022 
0.603023 0.603024 0.603024 0.603025 0.603025 0.603026 0.603027 0.603027 0.603028 
0.603029 0.603029 0.60303 0.60303 0.603031 0.603032 0.603032 0.603033 0.603033 
0.603034 0.603035 0.603035 0.603036 0.603036 0.603037 0.603038 0.603038 0.603039 
0.60304 0.60304 0.603041 0.603041 0.603042 0.603043 0.603043 0.603044 0.603044 
0.603045 0.603046 0.603046 0.603047 0.603047 0.603048 0.603049 0.603049 0.60305 
0.60305 0.603051 0.603051 0.603052 0.603052 0.603053 0.603054 0.603054 0.603055 
0.603055 0.603056 0.603056 0.603057 0.603057 0.603058 0.603058 0.603058 0.603059 
0.603059 0.603059 0.60306 0.60306 0.60306 0.603061 0.603061 0.603061 0.603061 
0.603061 0.603061 0.603061 0.603061 0.60306 0.60306 0.603059 0.603059 0.603058 
0.603057 0.603056 0.603055 0.603053 0.603051 0.603049 0.603047 0.603044 0.60304 
0.603036 0.603032 0.603027 0.603101 0.603001 0.598079 0.585402 0.566183 0.541795 
0.513618 0.483029 0.451408 0.420141 0.390572 0.364106 0.342183 0.32623 0.317597 
0.316228 0.316229 0.316233 0.316247 0.316282 0.318594 0.320402 0.319483 0.313699 
0.308955 0.306247 0.307954 0.307417 0.291069 0.256127 0.226222 0.190082 0.173455 
0.174671 0.177107 0.181306 0.184441 0.186579 0.190897 0.194892 0.19713 0.206536 
0.209562 0.216186 0.219186 0.224282 0.233567 0.241926 0.251709 0.255188 0.264648 
0.274971 0.283094 0.284532 0.290882 0.29926 0.306805 0.313536 0.319965 0.328102 
0.342635 0.344084 0.354644 0.373593 0.397379 0.425933 0.450243 0.488245 0.605651 
0.556377 0.521999 0.488394 0.446581 0.406583 0.385094 0.38506 0.384526 0.369153 
0.367774 0.367777 0.367779 0.367782 0.367785 0.367788 0.367791 0.367794 0.367798 
0.367801 0.367804 0.367807 0.367811 0.367814 0.367817 0.367821 0.367824 0.367827 
0.367831 0.367834 0.367837 0.367841 0.367844 0.367847 0.367851 0.367854 0.367858 
0.367861 0.367865 0.367868 0.367871 0.367875 0.367878 0.367882 0.367885 0.367889 
0.367892 0.367895 0.367899 0.367902 0.367906 0.367909 0.367913 0.367916 0.36792 
0.367923 0.367926 0.36793 0.367933 0.367937 0.36794 0.367944 0.367947 0.367951 
0.367954 0.367957 0.367961 0.367964 0.367968 0.367971 0.367975 0.367978 0.367982 
0.367985 0.367988 0.367992 0.367995 0.367999 0.368002 0.368006 0.368009 0.368013 
0.368016 0.36802 0.368023 0.368026 0.36803 0.368033 0.368037 0.36804 0.368044 
0.368047 0.368049 0.368041 0.367831 0.365948 0.362488 0.603 0.603001 0.603002 
0.603002 0.603003 0.603003 0.603004 0.603005 0.603005 0.603006 0.603006 0.603007 
0.603008 0.603008 0.603009 0.60301 0.60301 0.603011 0.603011 0.603012 0.603013 
0.603013 0.603014 0.603014 0.603015 0.603016 0.603016 0.603017 0.603018 0.603018 
0.603019 0.603019 0.60302 0.603021 0.603021 0.603022 0.603022 0.603023 0.603024 
0.603024 0.603025 0.603025 0.603026 0.603027 0.603027 0.603028 0.603029 0.603029 
0.60303 0.60303 0.603031 0.603032 0.603032 0.603033 0.603033 0.603034 0.603035 
0.603035 0.603036 0.603037 0.603037 0.603038 0.603038 0.603039 0.60304 0.60304 
0.603041 0.603041 0.603042 0.603043 0.603043 0.603044 0.603044 0.603045 0.603046 
0.603046 0.603047 0.603047 0.603048 0.603049 0.603049 0.60305 0.60305 0.603051 
0.603051 0.603052 0.603052 0.603053 0.603054 0.603054 0.603055 0.603055 0.603056 
0.603056 0.603057 0.603057 0.603058 0.603058 0.603059 0.603059 0.603059 0.60306 
0.60306 0.60306 0.603061 0.603061 0.603061 0.603061 0.603061 0.603061 0.603061 
0.603061 0.603061 0.603061 0.603061 0.60306 0.60306 0.603059 0.603058 0.603057 
0.603056 0.603055 0.603053 0.603051 0.603049 0.603046 0.603043 0.60304 0.603036 
0.603032 0.603106 0.603007 0.598083 0.585406 0.566195 0.541814 0.513637 0.48304 
0.451397 0.420091 0.390508 0.364049 0.342155 0.326222 0.317587 0.316218 0.316219 
0.316222 0.316234 0.316274 0.319338 0.322267 0.322069 0.316433 0.31037 0.306786 
0.305553 0.304767 0.286756 0.249496 0.215921 0.185247 0.183259 0.187867 0.189411 
0.191537 0.197032 0.198815 0.201926 0.205821 0.209826 0.217661 0.220372 0.224455 
0.231586 0.233853 0.243232 0.25416 0.257028 0.265129 0.269901 0.276108 0.285427 
0.287359 0.296579 0.306604 0.308807 0.314797 0.326012 0.330629 0.342026 0.343638 
0.353799 0.372351 0.395072 0.42007 0.455377 0.499872 0.604701 0.563933 0.524758 
0.482057 0.447434 0.4092 0.385596 0.386534 0.385965 0.369247 0.367774 0.367777 
0.367779 0.367782 0.367785 0.367788 0.367791 0.367794 0.367797 0.367801 0.367804 
0.367807 0.367811 0.367814 0.367817 0.36782 0.367824 0.367827 0.36783 0.367834 
0.367837 0.367841 0.367844 0.367847 0.367851 0.367854 0.367858 0.367861 0.367865 
0.367868 0.367871 0.367875 0.367878 0.367882 0.367885 0.367889 0.367892 0.367895 
0.367899 0.367902 0.367906 0.367909 0.367913 0.367916 0.36792 0.367923 0.367926 
0.36793 0.367933 0.367937 0.36794 0.367944 0.367947 0.367951 0.367954 0.367957 
0.367961 0.367964 0.367968 0.367971 0.367975 0.367978 0.367982 0.367985 0.367988 
0.367992 0.367995 0.367999 0.368002 0.368006 0.368009 0.368013 0.368016 0.36802 
0.368023 0.368026 0.36803 0.368033 0.368037 0.36804 0.368044 0.368047 0.368049 
0.368041 0.367831 0.365948 0.362488 0.603 0.603001 0.603002 0.603002 0.603003 
0.603003 0.603004 0.603005 0.603005 0.603006 0.603006 0.603007 0.603008 0.603008 
0.603009 0.60301 0.60301 0.603011 0.603011 0.603012 0.603013 0.603013 0.603014 
0.603014 0.603015 0.603016 0.603016 0.603017 0.603018 0.603018 0.603019 0.603019 
0.60302 0.603021 0.603021 0.603022 0.603022 0.603023 0.603024 0.603024 0.603025 
0.603025 0.603026 0.603027 0.603027 0.603028 0.603029 0.603029 0.60303 0.60303 
0.603031 0.603032 0.603032 0.603033 0.603033 0.603034 0.603035 0.603035 0.603036 
0.603037 0.603037 0.603038 0.603038 0.603039 0.60304 0.60304 0.603041 0.603041 
0.603042 0.603043 0.603043 0.603044 0.603044 0.603045 0.603046 0.603046 0.603047 
0.603047 0.603048 0.603049 0.603049 0.60305 0.60305 0.603051 0.603051 0.603052 
0.603053 0.603053 0.603054 0.603054 0.603055 0.603055 0.603056 0.603056 0.603057 
0.603057 0.603058 0.603058 0.603059 0.603059 0.60306 0.60306 0.60306 0.603061 
0.603061 0.603061 0.603061 0.603062 0.603062 0.603062 0.603062 0.603062 0.603062 
0.603062 0.603061 0.603061 0.603061 0.60306 0.60306 0.603059 0.603058 0.603057 
0.603055 0.603054 0.603052 0.60305 0.603047 0.603044 0.603041 0.603038 0.603114 
0.603014 0.598088 0.585412 0.566199 0.541818 0.513643 0.483045 0.451398 0.420085 
0.390497 0.364043 0.34215 0.326214 0.317574 0.316204 0.316205 0.316207 0.316219 