# vtk DataFile Version 5.1
vtk output
ASCII
DATASET UNSTRUCTURED_GRID
POINTS 10043 double
-10.1 1.4499999993 0 -10.049999999 1.4499999993 0 -10.049999999 1.5 0 
-9.9999999985 1.4499999993 0 -9.9999999985 1.5 0 -9.9499999978 1.4499999993 0 
-9.9499999978 1.5 0 -9.899999997 1.4499999993 0 -9.899999997 1.5 0 
-9.8499999963 1.4499999993 0 -9.8499999963 1.5 0 -9.7999999955 1.4499999993 0 
-9.7999999955 1.5 0 -9.7499999948 1.4499999993 0 -9.7499999948 1.5 0 
-9.699999994 1.4499999993 0 -9.699999994 1.5 0 -9.6499999933 1.4499999993 0 
-9.6499999933 1.5 0 -9.5999999925 1.4499999993 0 -9.5999999925 1.5 0 
-9.5499999918 1.4499999993 0 -9.5499999918 1.5 0 -9.4999999911 1.4499999993 0 
-9.4999999911 1.5 0 -9.4499999903 1.4499999993 0 -9.4499999903 1.5 0 
-9.3999999896 1.4499999993 0 -9.3999999896 1.5 0 -9.3499999888 1.4499999993 0 
-9.3499999888 1.5 0 -9.2999999881 1.4499999993 0 -9.2999999881 1.5 0 
-9.2499999873 1.4499999993 0 -9.2499999873 1.5 0 -9.1999999866 1.4499999993 0 
-9.1999999866 1.5 0 -9.1499999858 1.4499999993 0 -9.1499999858 1.5 0 
-9.0999999851 1.4499999993 0 -9.0999999851 1.5 0 -9.0499999844 1.4499999993 0 
-9.0499999844 1.5 0 -8.9999999836 1.4499999993 0 -8.9999999836 1.5 0 
-8.9499999829 1.4499999993 0 -8.9499999829 1.5 0 -8.8999999821 1.4499999993 0 
-8.8999999821 1.5 0 -8.8499999814 1.4499999993 0 -8.8499999814 1.5 0 
-8.7999999806 1.4499999993 0 -8.7999999806 1.5 0 -8.7499999799 1.4499999993 0 
-8.7499999799 1.5 0 -8.6999999791 1.4499999993 0 -8.6999999791 1.5 0 
-8.6499999784 1.4499999993 0 -8.6499999784 1.5 0 -8.5999999776 1.4499999993 0 
-8.5999999776 1.5 0 -8.5499999769 1.4499999993 0 -8.5499999769 1.5 0 
-8.4999999762 1.4499999993 0 -8.4999999762 1.5 0 -8.4499999754 1.4499999993 0 
-8.4499999754 1.5 0 -8.3999999747 1.4499999993 0 -8.3999999747 1.5 0 
-8.3499999739 1.4499999993 0 -8.3499999739 1.5 0 -8.2999999732 1.4499999993 0 
-8.2999999732 1.5 0 -8.2499999724 1.4499999993 0 -8.2499999724 1.5 0 
-8.1999999717 1.4499999993 0 -8.1999999717 1.5 0 -8.1499999709 1.4499999993 0 
-8.1499999709 1.5 0 -8.0999999702 1.4499999993 0 -8.0999999702 1.5 0 
-8.0499999695 1.4499999993 0 -8.0499999695 1.5 0 -7.9999999687 1.4499999993 0 
-7.9999999687 1.5 0 -7.949999968 1.4499999993 0 -7.949999968 1.5 0 
-7.8999999672 1.4499999993 0 -7.8999999672 1.5 0 -7.8499999665 1.4499999993 0 
-7.8499999665 1.5 0 -7.7999999657 1.4499999993 0 -7.7999999657 1.5 0 
-7.749999965 1.4499999993 0 -7.749999965 1.5 0 -7.6999999642 1.4499999993 0 
-7.6999999642 1.5 0 -7.6499999635 1.4499999993 0 -7.6499999635 1.5 0 
-7.5999999627 1.4499999993 0 -7.5999999627 1.5 0 -7.549999962 1.4499999993 0 
-7.549999962 1.5 0 -7.4999999613 1.4499999993 0 -7.4999999613 1.5 0 
-7.4499999605 1.4499999993 0 -7.4499999605 1.5 0 -7.3999999598 1.4499999993 0 
-7.3999999598 1.5 0 -7.349999959 1.4499999993 0 -7.349999959 1.5 0 
-7.2999999583 1.4499999993 0 -7.2999999583 1.5 0 -7.2499999575 1.4499999993 0 
-7.2499999575 1.5 0 -7.1999999568 1.4499999993 0 -7.1999999568 1.5 0 
-7.149999956 1.4499999993 0 -7.149999956 1.5 0 -7.0999999553 1.4499999993 0 
-7.0999999553 1.5 0 -7.0499999546 1.4499999993 0 -7.0499999546 1.5 0 
-6.9999999538 1.4499999993 0 -6.9999999538 1.5 0 -6.9499999531 1.4499999993 0 
-6.9499999531 1.5 0 -6.8999999523 1.4499999993 0 -6.8999999523 1.5 0 
-6.8499999516 1.4499999993 0 -6.8499999516 1.5 0 -6.7999999508 1.4499999993 0 
-6.7999999508 1.5 0 -6.7499999501 1.4499999993 0 -6.7499999501 1.5 0 
-6.6999999493 1.4499999993 0 -6.6999999493 1.5 0 -6.6499999486 1.4499999993 0 
-6.6499999486 1.5 0 -6.5999999478 1.4499999993 0 -6.5999999478 1.5 0 
-6.5499999471 1.4499999993 0 -6.5499999471 1.5 0 -6.4999999464 1.4499999993 0 
-6.4999999464 1.5 0 -6.4499999456 1.4499999993 0 -6.4499999456 1.5 0 
-6.3999999449 1.4499999993 0 -6.3999999449 1.5 0 -6.3499999441 1.4499999993 0 
-6.3499999441 1.5 0 -6.2999999434 1.4499999993 0 -6.2999999434 1.5 0 
-6.2499999426 1.4499999993 0 -6.2499999426 1.5 0 -6.1999999419 1.4499999993 0 
-6.1999999419 1.5 0 -6.1499999411 1.4499999993 0 -6.1499999411 1.5 0 
-6.0999999404 1.4499999993 0 -6.0999999404 1.5 0 -6.0499999397 1.4499999993 0 
-6.0499999397 1.5 0 -5.9999999389 1.4499999993 0 -5.9999999389 1.5 0 
-5.9499999382 1.4499999993 0 -5.9499999382 1.5 0 -5.8999999374 1.4499999993 0 
-5.8999999374 1.5 0 -5.8499999367 1.4499999993 0 -5.8499999367 1.5 0 
-5.7999999359 1.4499999993 0 -5.7999999359 1.5 0 -5.7499999352 1.4499999993 0 
-5.7499999352 1.5 0 -5.6999999344 1.4499999993 0 -5.6999999344 1.5 0 
-5.6499999337 1.4499999993 0 -5.6499999337 1.5 0 -5.5999999329 1.4499999993 0 
-5.5999999329 1.5 0 -5.5499999322 1.4499999993 0 -5.5499999322 1.5 0 
-5.4999999315 1.4499999993 0 -5.4999999315 1.5 0 -5.4499999307 1.4499999993 0 
-5.4499999307 1.5 0 -5.39999993 1.4499999993 0 -5.39999993 1.5 0 
-5.3499999292 1.4499999993 0 -5.3499999292 1.5 0 -5.2999999285 1.4499999993 0 
-5.2999999285 1.5 0 -5.2499999277 1.4499999993 0 -5.2499999277 1.5 0 
-5.199999927 1.4499999993 0 -5.199999927 1.5 0 -5.1499999262 1.4499999993 0 
-5.1499999262 1.5 0 -5.0999999255 1.4499999993 0 -5.0999999255 1.5 0 
-5.0499999247 1.4499999993 0 -5.0499999247 1.5 0 -4.999999924 1.4499999993 0 
-4.999999924 1.5 0 -4.9499999233 1.4499999993 0 -4.9499999233 1.5 0 
-4.8999999225 1.4499999993 0 -4.8999999225 1.5 0 -4.8499999218 1.4499999993 0 
-4.8499999218 1.5 0 -4.799999921 1.4499999993 0 -4.799999921 1.5 0 
-4.7499999203 1.4499999993 0 -4.7499999203 1.5 0 -4.6999999195 1.4499999993 0 
-4.6999999195 1.5 0 -4.6499999188 1.4499999993 0 -4.6499999188 1.5 0 
-4.599999918 1.4499999993 0 -4.599999918 1.5 0 -4.5499999173 1.4499999993 0 
-4.5499999173 1.5 0 -4.4999999166 1.4499999993 0 -4.4999999166 1.5 0 
-4.4499999158 1.4499999993 0 -4.4499999158 1.5 0 -4.3999999151 1.4499999993 0 
-4.3999999151 1.5 0 -4.3499999143 1.4499999993 0 -4.3499999143 1.5 0 
-4.2999999136 1.4499999993 0 -4.2999999136 1.5 0 -4.2499999128 1.4499999993 0 
-4.2499999128 1.5 0 -4.1999999121 1.4499999993 0 -4.1999999121 1.5 0 
-4.1499999113 1.4499999993 0 -4.1499999113 1.5 0 -4.0999999106 1.4499999993 0 
-4.0999999106 1.5 0 -4.0499999098 1.4499999993 0 -4.0499999098 1.5 0 
-3.9999999091 1.4499999993 0 -3.9999999091 1.5 0 -3.9499999084 1.4499999993 0 
-3.9499999084 1.5 0 -3.8999999076 1.4499999993 0 -3.8999999076 1.5 0 
-3.8499999069 1.4499999993 0 -3.8499999069 1.5 0 -3.7999999061 1.4499999993 0 
-3.7999999061 1.5 0 -3.7499999054 1.4499999993 0 -3.7499999054 1.5 0 
-3.6999999046 1.4499999993 0 -3.6999999046 1.5 0 -3.6499999039 1.4499999993 0 
-3.6499999039 1.5 0 -3.5999999031 1.4499999993 0 -3.5999999031 1.5 0 
-3.5499999024 1.4499999993 0 -3.5499999024 1.5 0 -3.4999999017 1.4499999993 0 
-3.4999999017 1.5 0 -3.4499999009 1.4499999993 0 -3.4499999009 1.5 0 
-3.3999999002 1.4499999993 0 -3.3999999002 1.5 0 -3.3499998994 1.4499999993 0 
-3.3499998994 1.5 0 -3.2999998987 1.4499999993 0 -3.2999998987 1.5 0 
-3.2499998979 1.4499999993 0 -3.2499998979 1.5 0 -3.1999998972 1.4499999993 0 
-3.1999998972 1.5 0 -3.1499998964 1.4499999993 0 -3.1499998964 1.5 0 
-3.0999998957 1.4499999993 0 -3.0999998957 1.5 0 -3.0499998949 1.4499999993 0 
-3.0499998949 1.5 0 -2.9999998942 1.4499999993 0 -2.9999998942 1.5 0 
-2.9499998935 1.4499999993 0 -2.9499998935 1.5 0 -2.8999998927 1.4499999993 0 
-2.8999998927 1.5 0 -2.849999892 1.4499999993 0 -2.849999892 1.5 0 
-2.7999998912 1.4499999993 0 -2.7999998912 1.5 0 -2.7499998905 1.4499999993 0 
-2.7499998905 1.5 0 -2.6999998897 1.4499999993 0 -2.6999998897 1.5 0 
-2.649999889 1.4499999993 0 -2.649999889 1.5 0 -2.5999998882 1.4499999993 0 
-2.5999998882 1.5 0 -2.5499998875 1.4499999993 0 -2.5499998875 1.5 0 
-2.4999998868 1.4499999993 0 -2.4999998868 1.5 0 -2.449999886 1.4499999993 0 
-2.449999886 1.5 0 -2.3999998853 1.4499999993 0 -2.3999998853 1.5 0 
-2.3499998845 1.4499999993 0 -2.3499998845 1.5 0 -2.2999998838 1.4499999993 0 
-2.2999998838 1.5 0 -2.249999883 1.4499999993 0 -2.249999883 1.5 0 
-2.1999998823 1.4499999993 0 -2.1999998823 1.5 0 -2.1499998815 1.4499999993 0 
-2.1499998815 1.5 0 -2.0999998808 1.4499999993 0 -2.0999998808 1.5 0 
-2.04999988 1.4499999993 0 -2.04999988 1.5 0 -1.9999998793 1.4499999993 0 
-1.9999998793 1.5 0 -1.9499998786 1.4499999993 0 -1.9499998786 1.5 0 
-1.8999998778 1.4499999993 0 -1.8999998778 1.5 0 -1.8499998771 1.4499999993 0 
-1.8499998771 1.5 0 -1.7999998763 1.4499999993 0 -1.7999998763 1.5 0 
-1.7499998756 1.4499999993 0 -1.7499998756 1.5 0 -1.6999998748 1.4499999993 0 
-1.6999998748 1.5 0 -1.6499998741 1.4499999993 0 -1.6499998741 1.5 0 
-1.5999998733 1.4499999993 0 -1.5999998733 1.5 0 -1.5499998726 1.4499999993 0 
-1.5499998726 1.5 0 -1.4999998718 1.4499999993 0 -1.4999998718 1.5 0 
-1.4499998711 1.4499999993 0 -1.4499998711 1.5 0 -1.3999998704 1.4499999993 0 
-1.3999998704 1.5 0 -1.3499998696 1.4499999993 0 -1.3499998696 1.5 0 
-1.2999998689 1.4499999993 0 -1.2999998689 1.5 0 -1.2499998681 1.4499999993 0 
-1.2499998681 1.5 0 -1.1999998674 1.4499999993 0 -1.1999998674 1.5 0 
-1.1499998666 1.4499999993 0 -1.1499998666 1.5 0 -1.0999998659 1.4499999993 0 
-1.0999998659 1.5 0 -1.0499998651 1.4499999993 0 -1.0499998651 1.5 0 
-0.9999998644 1.4499999993 0 -0.9999998644 1.5 0 -0.94999986365 1.4499999993 0 
-0.94999986365 1.5 0 -0.89999986291 1.4499999993 0 -0.89999986291 1.5 0 
-0.84999986216 1.4499999993 0 -0.84999986216 1.5 0 -0.79999986142 1.4499999993 0 
-0.79999986142 1.5 0 -0.74999986067 1.4499999993 0 -0.74999986067 1.5 0 
-0.69999985993 1.4499999993 0 -0.69999985993 1.5 0 -0.64999985918 1.4499999993 0 
-0.64999985918 1.5 0 -0.59999985844 1.4499999993 0 -0.59999985844 1.5 0 
-0.54999985769 1.4499999993 0 -0.54999985769 1.5 0 -0.49999985695 1.4499999993 0 
-0.49999985695 1.5 0 -0.4499998562 1.4499999993 0 -0.4499998562 1.5 0 
-0.39999985546 1.4499999993 0 -0.39999985546 1.5 0 -0.34999985471 1.4499999993 0 
-0.34999985471 1.5 0 -0.29999985397 1.4499999993 0 -0.29999985397 1.5 0 
-0.24999985322 1.4499999993 0 -0.24999985322 1.5 0 -0.191663057 1.4499999993 0 
-0.17548248559 1.5 0 0.18862900414 1.4499999993 0 0.25000015423 1.4499999993 0 
[...]
CELL_DATA 9510
FIELD FieldData 4
Water_Depth_m 1 9510 float
0.339936 0.339803 0.339668 0.339531 0.339391 0.33925 0.339108 0.338964 0.338818 
0.338672 0.338523 0.338373 0.338221 0.338067 0.33791 0.337751 0.337588 0.337423 
0.337254 0.337081 0.336906 0.336728 0.336547 0.336364 0.336181 0.335999 0.335819 
0.335643 0.335474 0.335313 0.335164 0.335027 0.334905 0.3348 0.334713 0.334646 
0.3346 0.334576 0.334573 0.334592 0.334634 0.334697 0.334781 0.334884 0.335007 
0.335147 0.335304 0.335476 0.335662 0.335861 0.33607 0.336288 0.336513 0.336744 
0.336978 0.337214 0.337449 0.337682 0.337911 0.338134 0.338349 0.338555 0.33875 
0.338934 0.339106 0.339263 0.339407 0.339536 0.33965 0.33975 0.339836 0.339906 
0.339963 0.340007 0.340037 0.340055 0.340061 0.340056 0.340039 0.340013 0.339976 
0.33993 0.339875 0.339812 0.33974 0.339661 0.339575 0.339482 0.339383 0.339279 
0.339169 0.339055 0.338937 0.338817 0.338695 0.338573 0.338451 0.338332 0.338216 
0.338106 0.338003 0.337907 0.337821 0.337746 0.337681 0.337628 0.337586 0.337555 
0.337534 0.337521 0.337516 0.337516 0.33752 0.337525 0.337528 0.337529 0.337525 
0.337515 0.337497 0.33747 0.337432 0.337385 0.337326 0.337257 0.337176 0.337086 
0.336986 0.336879 0.336766 0.336647 0.336526 0.336404 0.336285 0.33617 0.336063 
0.335965 0.335878 0.335804 0.335744 0.3357 0.335671 0.335655 0.335653 0.335663 
0.335683 0.33571 0.335742 0.335777 0.335812 0.335845 0.335876 0.335902 0.335923 
0.335938 0.335947 0.335949 0.335947 0.335939 0.335928 0.335914 0.335897 0.335878 
0.335859 0.335841 0.335825 0.335811 0.3358 0.335792 0.335789 0.33579 0.335797 
0.33581 0.33583 0.335856 0.335889 0.335933 0.335986 0.336051 0.336129 0.336221 
0.336329 0.336456 0.336604 0.336775 0.336971 0.337195 0.337448 0.337734 0.338056 
0.338414 0.338813 0.339255 0.339734 0.340264 0.340817 0.341413 0.34204 0.342801 
0.348661 0.349287 0.349804 0.350282 0.350722 0.351124 0.35149 0.351821 0.352121 
0.352392 0.352636 0.352856 0.353055 0.353234 0.353395 0.353541 0.353672 0.353791 
0.353899 0.353997 0.354085 0.354166 0.35424 0.354307 0.354369 0.354425 0.354477 
0.354525 0.35457 0.354611 0.354649 0.354685 0.354718 0.35475 0.354779 0.354807 
0.354834 0.354859 0.354882 0.354905 0.354927 0.354948 0.354969 0.354988 0.355007 
0.355026 0.355044 0.355061 0.355078 0.355095 0.355112 0.355128 0.355144 0.35516 
0.355175 0.35519 0.355206 0.355221 0.355236 0.355251 0.355265 0.35528 0.355295 
0.355309 0.355324 0.355338 0.355352 0.355367 0.355381 0.355395 0.355409 0.355423 
0.355437 0.355452 0.355466 0.35548 0.355494 0.355508 0.355522 0.355536 0.35555 
0.355564 0.355577 0.355591 0.355605 0.355619 0.355633 0.355647 0.355661 0.355675 
0.355688 0.355702 0.355699 0.355683 0.354354 0.351902 0.348739 0.339936 0.339803 
0.339667 0.339529 0.33939 0.339249 0.339106 0.338962 0.338817 0.33867 0.338521 
0.338371 0.338219 0.338065 0.337908 0.337748 0.337586 0.33742 0.33725 0.337077 
0.336901 0.336722 0.33654 0.336356 0.336172 0.335988 0.335807 0.33563 0.335459 
0.335297 0.335146 0.335008 0.334885 0.334779 0.334692 0.334626 0.33458 0.334555 
0.334552 0.334572 0.334614 0.334678 0.334762 0.334866 0.334989 0.33513 0.335287 
0.33546 0.335646 0.335845 0.336055 0.336274 0.3365 0.336732 0.336967 0.337204 
0.33744 0.337675 0.337905 0.338129 0.338346 0.338553 0.338751 0.338936 0.339109 
0.339268 0.339412 0.339542 0.339658 0.339758 0.339844 0.339916 0.339973 0.340017 
0.340048 0.340066 0.340072 0.340066 0.340049 0.340022 0.339986 0.339939 0.339884 
0.33982 0.339748 0.339668 0.339582 0.339488 0.339388 0.339283 0.339172 0.339057 
0.338938 0.338817 0.338693 0.33857 0.338447 0.338326 0.338209 0.338098 0.337994 
0.337897 0.337811 0.337735 0.33767 0.337617 0.337576 0.337545 0.337525 0.337515 
0.337511 0.337513 0.337519 0.337526 0.337532 0.337535 0.337532 0.337523 0.337506 
0.33748 0.337443 0.337395 0.337337 0.337266 0.337185 0.337094 0.336993 0.336884 
0.336768 0.336647 0.336524 0.3364 0.336279 0.336162 0.336052 0.335952 0.335864 
0.33579 0.33573 0.335686 0.335657 0.335643 0.335643 0.335655 0.335676 0.335706 
0.33574 0.335776 0.335813 0.335849 0.33588 0.335907 0.335929 0.335944 0.335953 
0.335955 0.335952 0.335944 0.335932 0.335916 0.335898 0.335879 0.335859 0.33584 
0.335823 0.335808 0.335796 0.335789 0.335785 0.335787 0.335793 0.335805 0.335823 
0.335849 0.335883 0.335925 0.335977 0.33604 0.336116 0.336207 0.336314 0.33644 
0.336585 0.336752 0.336945 0.337165 0.337417 0.3377 0.338018 0.338372 0.338767 
0.3392 0.339681 0.340205 0.34076 0.341357 0.341987 0.342727 0.348668 0.349298 
0.349819 0.3503 0.350741 0.351144 0.35151 0.351841 0.35214 0.35241 0.352653 
0.352872 0.353069 0.353247 0.353407 0.353552 0.353682 0.3538 0.353907 0.354004 
0.354092 0.354172 0.354245 0.354312 0.354373 0.354429 0.354481 0.354529 0.354573 
0.354614 0.354652 0.354687 0.35472 0.354751 0.354781 0.354809 0.354835 0.35486 
0.354883 0.354906 0.354928 0.354949 0.354969 0.354989 0.355008 0.355026 0.355044 
0.355062 0.355079 0.355095 0.355112 0.355128 0.355144 0.35516 0.355175 0.355191 
0.355206 0.355221 0.355236 0.355251 0.355265 0.35528 0.355295 0.355309 0.355324 
0.355338 0.355352 0.355367 0.355381 0.355395 0.355409 0.355423 0.355437 0.355452 
0.355466 0.35548 0.355494 0.355508 0.355522 0.355536 0.35555 0.355564 0.355577 
0.355591 0.355605 0.355619 0.355633 0.355647 0.355661 0.355675 0.355688 0.355702 
0.355699 0.355683 0.354354 0.351902 0.348739 0.339935 0.339801 0.339665 0.339527 
0.339387 0.339246 0.339103 0.338958 0.338813 0.338666 0.338518 0.338367 0.338215 
0.338061 0.337904 0.337744 0.33758 0.337414 0.337243 0.337069 0.336891 0.33671 
0.336526 0.33634 0.336153 0.335966 0.335782 0.335602 0.335428 0.335263 0.33511 
0.33497 0.334845 0.334739 0.334651 0.334584 0.334538 0.334514 0.334512 0.334533 
0.334575 0.334639 0.334724 0.334829 0.334952 0.335094 0.335252 0.335426 0.335613 
0.335814 0.336025 0.336245 0.336473 0.336707 0.336944 0.337183 0.337423 0.33766 
0.337893 0.33812 0.33834 0.338551 0.338751 0.338939 0.339114 0.339276 0.339423 
0.339555 0.339672 0.339774 0.339862 0.339934 0.339992 0.340037 0.340068 0.340086 
0.340092 0.340086 0.340069 0.340042 0.340004 0.339957 0.339901 0.339836 0.339763 
0.339682 0.339594 0.339499 0.339398 0.339291 0.339178 0.339061 0.33894 0.338816 
0.33869 0.338564 0.338438 0.338315 0.338196 0.338082 0.337975 0.337877 0.337789 
0.337712 0.337647 0.337595 0.337555 0.337527 0.337509 0.337502 0.337502 0.337508 
0.337518 0.337529 0.337538 0.337545 0.337546 0.33754 0.337525 0.3375 0.337464 
0.337417 0.337358 0.337287 0.337204 0.33711 0.337006 0.336893 0.336773 0.336648 
0.33652 0.336392 0.336265 0.336144 0.336031 0.335927 0.335837 0.335761 0.335701 
0.335657 0.33563 0.335618 0.335622 0.335637 0.335663 0.335697 0.335735 0.335776 
0.335817 0.335855 0.335889 0.335918 0.335941 0.335956 0.335965 0.335967 0.335962 
0.335953 0.335939 0.335921 0.335901 0.33588 0.335859 0.335838 0.33582 0.335804 
0.335791 0.335782 0.335778 0.335778 0.335784 0.335795 0.335813 0.335837 0.335869 
0.335909 0.335959 0.33602 0.336094 0.336181 0.336284 0.336404 0.336545 0.336708 
0.336895 0.33711 0.337354 0.33763 0.33794 0.338289 0.338676 0.339103 0.33958 
0.340097 0.340649 0.341246 0.341876 0.342618 0.348682 0.349322 0.34985 0.350335 
0.35078 0.351184 0.35155 0.35188 0.352178 0.352446 0.352687 0.352904 0.353099 
0.353274 0.353432 0.353574 0.353703 0.353819 0.353924 0.354019 0.354106 0.354185 
0.354256 0.354322 0.354382 0.354438 0.354488 0.354535 0.354579 0.354619 0.354656 
0.354691 0.354724 0.354755 0.354784 0.354811 0.354837 0.354862 0.354886 0.354908 
0.35493 0.35495 0.354971 0.35499 0.355009 0.355027 0.355045 0.355062 0.355079 
0.355096 0.355112 0.355129 0.355145 0.35516 0.355176 0.355191 0.355206 0.355221 
0.355236 0.355251 0.355266 0.35528 0.355295 0.355309 0.355324 0.355338 0.355352 
0.355367 0.355381 0.355395 0.355409 0.355423 0.355437 0.355452 0.355466 0.35548 
0.355494 0.355508 0.355522 0.355536 0.35555 0.355564 0.355578 0.355591 0.355605 
0.355619 0.355633 0.355647 0.355661 0.355675 0.355688 0.355702 0.355699 0.355683 
0.354354 0.351902 0.348739 0.339935 0.3398 0.339663 0.339524 0.339383 0.339241 
0.339097 0.338953 0.338807 0.33866 0.338512 0.338362 0.338209 0.338055 0.337897 
0.337737 0.337573 0.337405 0.337233 0.337057 0.336877 0.336693 0.336506 0.336316 
0.336125 0.335934 0.335745 0.33556 0.335382 0.335213 0.335055 0.334912 0.334785 
0.334677 0.334588 0.334521 0.334475 0.334452 0.334451 0.334473 0.334516 0.334581 
0.334667 0.334773 0.334898 0.335041 0.3352 0.335375 0.335564 0.335766 0.335979 
0.336202 0.336432 0.336669 0.33691 0.337152 0.337396 0.337637 0.337875 0.338106 
0.338331 0.338546 0.338751 0.338943 0.339123 0.339288 0.339439 0.339574 0.339694 
0.339798 0.339887 0.339962 0.340021 0.340067 0.340098 0.340117 0.340123 0.340117 
0.340099 0.340071 0.340032 0.339984 0.339927 0.33986 0.339785 0.339703 0.339613 
0.339516 0.339412 0.339302 0.339187 0.339067 0.338942 0.338815 0.338685 0.338555 
0.338425 0.338298 0.338174 0.338057 0.337947 0.337846 0.337756 0.337678 0.337613 
0.337561 0.337523 0.337498 0.337485 0.337482 0.337488 0.3375 0.337516 0.337533 
0.337549 0.337561 0.337567 0.337565 0.337554 0.337531 0.337497 0.33745 0.33739 
0.337317 0.337232 0.337134 0.337025 0.336907 0.336781 0.33665 0.336514 0.336379 
0.336245 0.336117 0.335997 0.335889 0.335795 0.335717 0.335656 0.335613 0.335588 
0.335581 0.335589 0.335611 0.335643 0.335684 0.335729 0.335776 0.335823 0.335866 
0.335904 0.335936 0.33596 0.335976 0.335984 0.335985 0.335978 0.335966 0.335949 
0.335929 0.335906 0.335882 0.335858 0.335835 0.335814 0.335796 0.335782 0.335772 
0.335766 0.335766 0.33577 0.335781 0.335797 0.335819 0.335849 0.335886 0.335933 
0.33599 0.336059 0.336141 0.336239 0.336353 0.336487 0.336642 0.336821 0.337026 
0.337261 0.337526 0.337826 0.338163 0.338538 0.338956 0.339425 0.339935 0.340482 
0.341074 0.341706 0.342455 0.348704 0.34936 0.349898 0.35039 0.350839 0.351245 
0.351611 0.35194 0.352235 0.3525 0.352738 0.352951 0.353142 0.353314 0.353469 
0.353608 0.353733 0.353846 0.353949 0.354042 0.354126 0.354203 0.354273 0.354337 
0.354396 0.35445 0.354499 0.354545 0.354587 0.354627 0.354664 0.354698 0.35473 
0.35476 0.354789 0.354816 0.354841 0.354865 0.354889 0.354911 0.354932 0.354953 
0.354972 0.354992 0.35501 0.355028 0.355046 0.355063 0.35508 0.355097 0.355113 
0.355129 0.355145 0.355161 0.355176 0.355191 0.355207 0.355222 0.355237 0.355251 
0.355266 0.355281 0.355295 0.35531 0.355324 0.355338 0.355353 0.355367 0.355381 
0.355395 0.355409 0.355423 0.355438 0.355452 0.355466 0.35548 0.355494 0.355508 
0.355522 0.355536 0.35555 0.355564 0.355578 0.355591 0.355605 0.355619 0.355633 
0.355647 0.355661 0.355675 0.355688 0.355702 0.355699 0.355683 0.354354 0.351902 
0.348739 0.339934 0.339798 0.339659 0.339519 0.339377 0.339234 0.33909 0.338946 
0.3388 0.338653 0.338504 0.338354 0.338202 0.338047 0.337889 0.337728 0.337563 
0.337394 0.33722 0.337041 0.336858 0.33667 0.336479 0.336284 0.336087 0.33589 
0.335695 0.335503 0.335319 0.335144 0.334982 0.334834 0.334704 0.334593 0.334504 
0.334436 0.334392 0.33437 0.334371 0.334394 0.334439 0.334505 0.334592 0.3347 
0.334826 0.334971 0.335132 0.335309 0.3355 0.335704 0.335919 0.336145 0.336378 
0.336619 0.336863 0.337111 0.337359 0.337606 0.33785 0.338088 0.338318 0.33854 
0.338751 0.338949 0.339134 0.339304 0.339459 0.339599 0.339722 0.33983 0.339922 
0.339998 0.340059 0.340106 0.340138 0.340157 0.340163 0.340157 0.340138 0.340109 
0.340069 0.34002 0.33996 0.339892 0.339815 0.33973 0.339638 0.339538 0.339431 
0.339318 0.339199 0.339075 0.338946 0.338814 0.338679 0.338543 0.338408 0.338275 
0.338146 0.338023 0.337908 0.337803 0.33771 0.337631 0.337565 0.337515 0.337479 
0.337458 0.337451 0.337454 0.337468 0.337488 0.337513 0.337539 0.337563 0.337583 
0.337596 0.3376 0.337593 0.337574 0.337542 0.337495 0.337435 0.337359 0.33727 
0.337168 0.337053 0.336927 0.336792 0.336651 0.336506 0.33636 0.336217 0.336079 
0.335951 0.335836 0.335736 0.335655 0.335593 0.335551 0.33553 0.335528 0.335544 
0.335575 0.335617 0.335667 0.335722 0.335778 0.335832 0.335882 0.335926 0.335961 
0.335987 0.336004 0.336011 0.336009 0.336 0.335984 0.335964 0.335939 0.335912 
0.335884 0.335856 0.33583 0.335807 0.335786 0.33577 0.335758 0.335751 0.335749 
0.335753 0.335761 0.335776 0.335796 0.335822 0.335856 0.335899 0.335951 0.336014 
0.33609 0.33618 0.336286 0.33641 0.336556 0.336723 0.336917 0.337138 0.337389 
0.337673 0.337995 0.338356 0.338759 0.339214 0.339715 0.340253 0.340838 0.341471 
0.342231 0.348735 0.349413 0.349965 0.350467 0.350921 0.351329 0.351694 0.352021 
0.352312 0.352573 0.352806 0.353014 0.3532 0.353367 0.353517 0.353652 0.353773 
0.353883 0.353982 0.354072 0.354153 0.354227 0.354295 0.354357 0.354413 0.354466 
0.354514 0.354558 0.354599 0.354637 0.354673 0.354706 0.354738 0.354767 0.354795 
0.354821 0.354846 0.35487 0.354893 0.354914 0.354935 0.354956 0.354975 0.354994 
0.355012 0.35503 0.355048 0.355065 0.355082 0.355098 0.355114 0.35513 0.355146 
0.355162 0.355177 0.355192 0.355207 0.355222 0.355237 0.355252 0.355266 0.355281 
0.355295 0.35531 0.355324 0.355338 0.355353 0.355367 0.355381 0.355395 0.355409 
0.355424 0.355438 0.355452 0.355466 0.35548 0.355494 0.355508 0.355522 0.355536 
0.35555 0.355564 0.355578 0.355591 0.355605 0.355619 0.355633 0.355647 0.355661 
0.355675 0.355688 0.355702 0.355699 0.355683 0.354354 0.351902 0.348739 0.339933 
0.339795 0.339655 0.339513 0.33937 0.339226 0.339082 0.338937 0.33879 0.338643 
0.338495 0.338345 0.338192 0.338038 0.337879 0.337717 0.337551 0.33738 0.337204 
0.337022 0.336835 0.336642 0.336445 0.336244 0.33604 0.335835 0.335631 0.335432 
0.335239 0.335057 0.334888 0.334735 0.334601 0.334488 0.334398 0.33433 0.334287 
0.334268 0.334271 0.334298 0.334345 0.334413 0.334503 0.334613 0.334742 0.334889 
0.335052 0.335231 0.335424 0.33563 0.335848 0.336077 0.336314 0.336558 0.336808 
0.337061 0.337315 0.337569 0.337819 0.338065 0.338303 0.338532 0.33875 0.338956 
0.339147 0.339324 0.339485 0.33963 0.339758 0.339869 0.339964 0.340043 0.340106 
0.340154 0.340188 0.340207 0.340213 0.340206 0.340187 0.340156 0.340115 0.340063 
0.340002 0.339931 0.339852 0.339764 0.339668 0.339565 0.339455 0.339337 0.339214 
0.339085 0.33895 0.338812 0.338671 0.338528 0.338385 0.338245 0.338109 0.337979 
0.337858 0.337748 0.337651 0.337569 0.337503 0.337454 0.337422 0.337406 0.337406 
0.337419 0.337442 0.337473 0.337509 0.337546 0.337582 0.337611 0.337633 0.337645 
0.337644 0.337629 0.337599 0.337554 0.337492 0.337414 0.33732 0.337211 0.337088 
0.336952 0.336807 0.336654 0.336496 0.336337 0.33618 0.33603 0.335891 0.335766 
0.335659 0.335574 0.33551 0.335471 0.335455 0.335461 0.335486 0.335528 0.335582 
0.335645 0.335713 0.335781 0.335846 0.335905 0.335955 0.335995 0.336023 0.33604 
0.336046 0.336041 0.336028 0.336007 0.335982 0.335952 0.335919 0.335886 0.335854 
0.335823 0.335796 0.335773 0.335754 0.335741 0.335732 0.335729 0.335731 0.335738 
0.33575 0.335767 0.33579 0.33582 0.335857 0.335903 0.335959 0.336027 0.336108 
0.336203 0.336317 0.33645 0.336604 0.336782 0.336986 0.337219 0.337484 0.337787 
0.338127 0.338511 0.338946 0.33943 0.339955 0.340532 0.341166 0.341935 0.34878 
0.349485 0.350055 0.350568 0.351028 0.351437 0.3518 0.352123 0.35241 0.352664 
0.352891 0.353093 0.353272 0.353433 0.353577 0.353707 0.353823 0.353928 0.354023 
0.354108 0.354186 0.354257 0.354322 0.354381 0.354435 0.354485 0.354531 0.354574 
0.354613 0.35465 0.354684 0.354717 0.354747 0.354775 0.354802 0.354828 0.354852 
0.354875 0.354897 0.354919 0.354939 0.354959 0.354978 0.354997 0.355015 0.355033 
0.35505 0.355067 0.355083 0.3551 0.355116 0.355132 0.355147 0.355163 0.355178 
0.355193 0.355208 0.355223 0.355238 0.355252 0.355267 0.355281 0.355296 0.35531 
0.355324 0.355339 0.355353 0.355367 0.355381 0.355396 0.35541 0.355424 0.355438 
0.355452 0.355466 0.35548 0.355494 0.355508 0.355522 0.355536 0.35555 0.355564 
0.355578 0.355592 0.355605 0.355619 0.355633 0.355647 0.355661 0.355675 0.355688 
0.355702 0.355699 0.355683 0.354354 0.351902 0.348739 0.339932 0.339791 0.339649 
0.339505 0.339361 0.339216 0.339071 0.338925 0.338779 0.338632 0.338484 0.338334 
0.338182 0.338027 0.337868 0.337705 0.337538 0.337365 0.337186 0.337 0.336808 
0.33661 0.336406 0.336196 0.335983 0.335769 0.335555 0.335345 0.335143 0.334951 
0.334775 0.334616 0.334478 0.334363 0.334273 0.334207 0.334167 0.334151 0.334159 
0.33419 0.334242 0.334315 0.334409 0.334523 0.334654 0.334804 0.334969 0.33515 
0.335345 0.335554 0.335775 0.336007 0.336248 0.336496 0.336751 0.337009 0.33727 
0.33753 0.337788 0.338041 0.338287 0.338524 0.33875 0.338964 0.339163 0.339347 
0.339515 0.339666 0.339799 0.339915 0.340014 0.340096 0.340162 0.340212 0.340246 
0.340266 0.340272 0.340264 0.340244 0.340212 0.340169 0.340115 0.340051 0.339977 
0.339895 0.339804 0.339705 0.339597 0.339483 0.339361 0.339232 0.339096 0.338956 
0.33881 0.338661 0.338509 0.338358 0.338208 0.338063 0.337924 0.337795 0.337678 
0.337576 0.337491 0.337424 0.337377 0.33735 0.337341 0.337349 0.337373 0.337409 
0.337454 0.337505 0.337556 0.337605 0.337647 0.337681 0.337702 0.337708 0.337698 
0.337671 0.337627 0.337563 0.337482 0.337382 0.337265 0.337132 0.336984 0.336825 
0.336657 0.336483 0.336307 0.336133 0.335968 0.335814 0.335677 0.335561 0.33547 
0.335406 0.335369 0.335359 0.335375 0.335413 0.33547 0.335541 0.33562 0.335704 
0.335788 0.335866 0.335936 0.335994 0.336039 0.33607 0.336087 0.33609 0.336081 
0.336063 0.336036 0.336003 0.335967 0.335927 0.335888 0.33585 0.335814 0.335783 
0.335756 0.335735 0.335719 0.335709 0.335705 0.335705 0.335711 0.33572 0.335734 
0.335753 0.335778 0.335809 0.335848 0.335895 0.335953 0.336023 0.336108 0.336208 
0.336326 0.336464 0.336624 0.336808 0.337019 0.337261 0.337539 0.337854 0.338213 
0.338619 0.339078 0.339578 0.340146 0.340778 0.341557 0.348842 0.349582 0.350172 
0.350698 0.351162 0.351571 0.351931 0.352248 0.352528 0.352775 0.352993 0.353187 
0.353359 0.353512 0.353649 0.353772 0.353882 0.353981 0.35407 0.354152 0.354225 
0.354292 0.354353 0.354409 0.354461 0.354508 0.354552 0.354592 0.35463 0.354665 
0.354698 0.354729 0.354758 0.354785 0.354811 0.354836 0.354859 0.354882 0.354903 
0.354924 0.354944 0.354963 0.354982 0.355 0.355018 0.355035 0.355052 0.355069 
0.355085 0.355102 0.355117 0.355133 0.355148 0.355164 0.355179 0.355194 0.355209 
0.355224 0.355238 0.355253 0.355267 0.355282 0.355296 0.355311 0.355325 0.355339 
0.355353 0.355367 0.355382 0.355396 0.35541 0.355424 0.355438 0.355452 0.355466 
0.35548 0.355494 0.355508 0.355522 0.355536 0.35555 0.355564 0.355578 0.355592 
0.355605 0.355619 0.355633 0.355647 0.355661 0.355675 0.355688 0.355702 0.355699 
0.355683 0.354354 0.351902 0.348739 0.33993 0.339786 0.339642 0.339496 0.33935 
0.339204 0.339058 0.338912 0.338766 0.338619 0.338471 0.338322 0.33817 0.338015 
0.337856 0.337692 0.337523 0.337348 0.337166 0.336976 0.336779 0.336574 0.336361 
0.336142 0.335919 0.335693 0.335467 0.335246 0.335032 0.334831 0.334647 0.334483 
0.334343 0.334228 0.33414 0.334078 0.334044 0.334034 0.334049 0.334087 0.334146 
0.334224 0.334322 0.334439 0.334573 0.334724 0.334891 0.335074 0.335271 0.335483 
0.335706 0.335942 0.336187 0.33644 0.3367 0.336964 0.337231 0.337498 0.337763 
0.338023 0.338276 0.338521 0.338755 0.338976 0.339183 0.339374 0.339549 0.339706 
0.339846 0.339967 0.340071 0.340156 0.340225 0.340277 0.340312 0.340333 0.340339 
0.34033 0.340309 0.340275 0.340229 0.340173 0.340106 0.340029 0.339944 0.339849 
0.339746 0.339635 0.339515 0.339388 0.339253 0.33911 0.338962 0.338808 0.338649 
0.338487 0.338325 0.338164 0.338007 0.337857 0.337718 0.337592 0.337484 0.337395 
0.337327 0.337282 0.33726 0.337259 0.337279 0.337317 0.337369 0.337431 0.337499 
0.337568 0.337634 0.337692 0.337738 0.33777 0.337786 0.337782 0.337759 0.337715 
0.33765 0.337564 0.337457 0.33733 0.337185 0.337023 0.336848 0.336661 0.336466 
0.33627 0.336076 0.33589 0.335718 0.335566 0.335439 0.335341 0.335275 0.335242 
0.335241 0.33527 0.335324 0.3354 0.335491 0.335592 0.335697 0.335799 0.335894 