# vtk DataFile Version 5.1
vtk output
ASCII
DATASET UNSTRUCTURED_GRID
POINTS 9610 double
0.1016 1.5 0 0.1016 1.45 0 0.1016 1.4 0 
0.1016 1.35 0 0.1016 1.3 0 0.1016 1.25 0 
0.1016 1.2 0 0.1016 1.15 0 0.1016 1.1 0 
0.1016 1.05 0 0.1016 1 0 0.1016 0.95 0 
0.1016 0.9 0 0.1016 0.85 0 0.1016 0.8 0 
0.1016 0.75 0 0.1016 0.7 0 0.1016 0.65 0 
0.1016 0.6 0 0.1016 0.55 0 0.1016 0.5 0 
0.1016 0.45 0 0.1016 0.4 0 0.1016 0.35 0 
0.1016 0.3 0 0.1016 0.25 0 0.1016 0.2 0 
0.1016 0.15 0 0.1016 0.1 0 0.1016 0.05 0 
0.1016 0 0 5.08 1.5 0 5.08 1.45 0 
5.08 1.4 0 5.08 1.35 0 5.08 1.3 0 
5.08 1.25 0 5.08 1.2 0 5.08 1.15 0 
5.08 1.1 0 5.08 1.05 0 5.08 1 0 
5.08 0.95 0 5.08 0.9 0 5.08 0.85 0 
5.08 0.8 0 5.08 0.75 0 5.08 0.7 0 
5.08 0.65 0 5.08 0.6 0 5.08 0.55 0 
5.08 0.5 0 5.08 0.45 0 5.08 0.4 0 
5.08 0.35 0 5.08 0.3 0 5.08 0.25 0 
5.08 0.2 0 5.08 0.15 0 5.08 0.1 0 
5.08 0.05 0 5.08 0 0 0.151384 1.5 0 
0.151384 1.45 0 0.151384 1.4 0 0.151384 1.35 0 
0.151384 1.3 0 0.151384 1.25 0 0.151384 1.2 0 
0.151384 1.15 0 0.151384 1.1 0 0.151384 1.05 0 
0.151384 1 0 0.151384 0.95 0 0.151384 0.9 0 
0.151384 0.85 0 0.151384 0.8 0 0.151384 0.75 0 
0.151384 0.7 0 0.151384 0.65 0 0.151384 0.6 0 
0.151384 0.55 0 0.151384 0.5 0 0.151384 0.45 0 
0.151384 0.4 0 0.151384 0.35 0 0.151384 0.3 0 
0.151384 0.25 0 0.151384 0.2 0 0.151384 0.15 0 
0.151384 0.1 0 0.151384 0.05 0 0.151384 0 0 
0.201168 1.5 0 0.201168 1.45 0 0.201168 1.4 0 
0.201168 1.35 0 0.201168 1.3 0 0.201168 1.25 0 
0.201168 1.2 0 0.201168 1.15 0 0.201168 1.1 0 
0.201168 1.05 0 0.201168 1 0 0.201168 0.95 0 
0.201168 0.9 0 0.201168 0.85 0 0.201168 0.8 0 
0.201168 0.75 0 0.201168 0.7 0 0.201168 0.65 0 
0.201168 0.6 0 0.201168 0.55 0 0.201168 0.5 0 
0.201168 0.45 0 0.201168 0.4 0 0.201168 0.35 0 
0.201168 0.3 0 0.201168 0.25 0 0.201168 0.2 0 
0.201168 0.15 0 0.201168 0.1 0 0.201168 0.05 0 
0.201168 0 0 0.250952 1.5 0 0.250952 1.45 0 
0.250952 1.4 0 0.250952 1.35 0 0.250952 1.3 0 
0.250952 1.25 0 0.250952 1.2 0 0.250952 1.15 0 
0.250952 1.1 0 0.250952 1.05 0 0.250952 1 0 
0.250952 0.95 0 0.250952 0.9 0 0.250952 0.85 0 
0.250952 0.8 0 0.250952 0.75 0 0.250952 0.7 0 
0.250952 0.65 0 0.250952 0.6 0 0.250952 0.55 0 
0.250952 0.5 0 0.250952 0.45 0 0.250952 0.4 0 
0.250952 0.35 0 0.250952 0.3 0 0.250952 0.25 0 
0.250952 0.2 0 0.250952 0.15 0 0.250952 0.1 0 
0.250952 0.05 0 0.250952 0 0 0.300736 1.5 0 
0.300736 1.45 0 0.300736 1.4 0 0.300736 1.35 0 
0.300736 1.3 0 0.300736 1.25 0 0.300736 1.2 0 
0.300736 1.15 0 0.300736 1.1 0 0.300736 1.05 0 
0.300736 1 0 0.300736 0.95 0 0.300736 0.9 0 
0.300736 0.85 0 0.300736 0.8 0 0.300736 0.75 0 
0.300736 0.7 0 0.300736 0.65 0 0.300736 0.6 0 
0.300736 0.55 0 0.300736 0.5 0 0.300736 0.45 0 
0.300736 0.4 0 0.300736 0.35 0 0.300736 0.3 0 
0.300736 0.25 0 0.300736 0.2 0 0.300736 0.15 0 
0.300736 0.1 0 0.300736 0.05 0 0.300736 0 0 
0.35052 1.5 0 0.35052 1.45 0 0.35052 1.4 0 
0.35052 1.35 0 0.35052 1.3 0 0.35052 1.25 0 
0.35052 1.2 0 0.35052 1.15 0 0.35052 1.1 0 
0.35052 1.05 0 0.35052 1 0 0.35052 0.95 0 
0.35052 0.9 0 0.35052 0.85 0 0.35052 0.8 0 
0.35052 0.75 0 0.35052 0.7 0 0.35052 0.65 0 
0.35052 0.6 0 0.35052 0.55 0 0.35052 0.5 0 
0.35052 0.45 0 0.35052 0.4 0 0.35052 0.35 0 
0.35052 0.3 0 0.35052 0.25 0 0.35052 0.2 0 
0.35052 0.15 0 0.35052 0.1 0 0.35052 0.05 0 
0.35052 0 0 0.400304 1.5 0 0.400304 1.45 0 
0.400304 1.4 0 0.400304 1.35 0 0.400304 1.3 0 
0.400304 1.25 0 0.400304 1.2 0 0.400304 1.15 0 
0.400304 1.1 0 0.400304 1.05 0 0.400304 1 0 
0.400304 0.95 0 0.400304 0.9 0 0.400304 0.85 0 
0.400304 0.8 0 0.400304 0.75 0 0.400304 0.7 0 
0.400304 0.65 0 0.400304 0.6 0 0.400304 0.55 0 
0.400304 0.5 0 0.400304 0.45 0 0.400304 0.4 0 
0.400304 0.35 0 0.400304 0.3 0 0.400304 0.25 0 
0.400304 0.2 0 0.400304 0.15 0 0.400304 0.1 0 
0.400304 0.05 0 0.400304 0 0 0.450088 1.5 0 
0.450088 1.45 0 0.450088 1.4 0 0.450088 1.35 0 
0.450088 1.3 0 0.450088 1.25 0 0.450088 1.2 0 
0.450088 1.15 0 0.450088 1.1 0 0.450088 1.05 0 
0.450088 1 0 0.450088 0.95 0 0.450088 0.9 0 
0.450088 0.85 0 0.450088 0.8 0 0.450088 0.75 0 
0.450088 0.7 0 0.450088 0.65 0 0.450088 0.6 0 
0.450088 0.55 0 0.450088 0.5 0 0.450088 0.45 0 
0.450088 0.4 0 0.450088 0.35 0 0.450088 0.3 0 
0.450088 0.25 0 0.450088 0.2 0 0.450088 0.15 0 
0.450088 0.1 0 0.450088 0.05 0 0.450088 0 0 
0.499872 1.5 0 0.499872 1.45 0 0.499872 1.4 0 
0.499872 1.35 0 0.499872 1.3 0 0.499872 1.25 0 
0.499872 1.2 0 0.499872 1.15 0 0.499872 1.1 0 
0.499872 1.05 0 0.499872 1 0 0.499872 0.95 0 
0.499872 0.9 0 0.499872 0.85 0 0.499872 0.8 0 
0.499872 0.75 0 0.499872 0.7 0 0.499872 0.65 0 
0.499872 0.6 0 0.499872 0.55 0 0.499872 0.5 0 
0.499872 0.45 0 0.499872 0.4 0 0.499872 0.35 0 
0.499872 0.3 0 0.499872 0.25 0 0.499872 0.2 0 
0.499872 0.15 0 0.499872 0.1 0 0.499872 0.05 0 
0.499872 0 0 0.549656 1.5 0 0.549656 1.45 0 
0.549656 1.4 0 0.549656 1.35 0 0.549656 1.3 0 
0.549656 1.25 0 0.549656 1.2 0 0.549656 1.15 0 
0.549656 1.1 0 0.549656 1.05 0 0.549656 1 0 
0.549656 0.95 0 0.549656 0.9 0 0.549656 0.85 0 
0.549656 0.8 0 0.549656 0.75 0 0.549656 0.7 0 
0.549656 0.65 0 0.549656 0.6 0 0.549656 0.55 0 
0.549656 0.5 0 0.549656 0.45 0 0.549656 0.4 0 
0.549656 0.35 0 0.549656 0.3 0 0.549656 0.25 0 
0.549656 0.2 0 0.549656 0.15 0 0.549656 0.1 0 
0.549656 0.05 0 0.549656 0 0 0.59944 1.5 0 
0.59944 1.45 0 0.59944 1.4 0 0.59944 1.35 0 
0.59944 1.3 0 0.59944 1.25 0 0.59944 1.2 0 
0.59944 1.15 0 0.59944 1.1 0 0.59944 1.05 0 
0.59944 1 0 0.59944 0.95 0 0.59944 0.9 0 
0.59944 0.85 0 0.59944 0.8 0 0.59944 0.75 0 
0.59944 0.7 0 0.59944 0.65 0 0.59944 0.6 0 
0.59944 0.55 0 0.59944 0.5 0 0.59944 0.45 0 
0.59944 0.4 0 0.59944 0.35 0 0.59944 0.3 0 
0.59944 0.25 0 0.59944 0.2 0 0.59944 0.15 0 
0.59944 0.1 0 0.59944 0.05 0 0.59944 0 0 
0.649224 1.5 0 0.649224 1.45 0 0.649224 1.4 0 
0.649224 1.35 0 0.649224 1.3 0 0.649224 1.25 0 
0.649224 1.2 0 0.649224 1.15 0 0.649224 1.1 0 
0.649224 1.05 0 0.649224 1 0 0.649224 0.95 0 
0.649224 0.9 0 0.649224 0.85 0 0.649224 0.8 0 
0.649224 0.75 0 0.649224 0.7 0 0.649224 0.65 0 
0.649224 0.6 0 0.649224 0.55 0 0.649224 0.5 0 
0.649224 0.45 0 0.649224 0.4 0 0.649224 0.35 0 
0.649224 0.3 0 0.649224 0.25 0 0.649224 0.2 0 
0.649224 0.15 0 0.649224 0.1 0 0.649224 0.05 0 
0.649224 0 0 0.699008 1.5 0 0.699008 1.45 0 
0.699008 1.4 0 0.699008 1.35 0 0.699008 1.3 0 
0.699008 1.25 0 0.699008 1.2 0 0.699008 1.15 0 
0.699008 1.1 0 0.699008 1.05 0 0.699008 1 0 
0.699008 0.95 0 0.699008 0.9 0 0.699008 0.85 0 
0.699008 0.8 0 0.699008 0.75 0 0.699008 0.7 0 
0.699008 0.65 0 0.699008 0.6 0 0.699008 0.55 0 
0.699008 0.5 0 0.699008 0.45 0 0.699008 0.4 0 
0.699008 0.35 0 0.699008 0.3 0 0.699008 0.25 0 
0.699008 0.2 0 0.699008 0.15 0 0.699008 0.1 0 
0.699008 0.05 0 0.699008 0 0 0.748792 1.5 0 
0.748792 1.45 0 0.748792 1.4 0 0.748792 1.35 0 
0.748792 1.3 0 0.748792 1.25 0 0.748792 1.2 0 
0.748792 1.15 0 0.748792 1.1 0 0.748792 1.05 0 
0.748792 1 0 0.748792 0.95 0 0.748792 0.9 0 
0.748792 0.85 0 0.748792 0.8 0 0.748792 0.75 0 
0.748792 0.7 0 0.748792 0.65 0 0.748792 0.6 0 
0.748792 0.55 0 0.748792 0.5 0 0.748792 0.45 0 
0.748792 0.4 0 0.748792 0.35 0 0.748792 0.3 0 
0.748792 0.25 0 0.748792 0.2 0 0.748792 0.15 0 
0.748792 0.1 0 0.748792 0.05 0 0.748792 0 0 
0.798576 1.5 0 0.798576 1.45 0 0.798576 1.4 0 
0.798576 1.35 0 0.798576 1.3 0 0.798576 1.25 0 
0.798576 1.2 0 0.798576 1.15 0 0.798576 1.1 0 
0.798576 1.05 0 0.798576 1 0 0.798576 0.95 0 
0.798576 0.9 0 0.798576 0.85 0 0.798576 0.8 0 
0.798576 0.75 0 0.798576 0.7 0 0.798576 0.65 0 
0.798576 0.6 0 0.798576 0.55 0 0.798576 0.5 0 
0.798576 0.45 0 0.798576 0.4 0 0.798576 0.35 0 
0.798576 0.3 0 0.798576 0.25 0 0.798576 0.2 0 
0.798576 0.15 0 0.798576 0.1 0 0.798576 0.05 0 
0.798576 0 0 0.84836 1.5 0 0.84836 1.45 0 
0.84836 1.4 0 0.84836 1.35 0 0.84836 1.3 0 
0.84836 1.25 0 0.84836 1.2 0 0.84836 1.15 0 
0.84836 1.1 0 0.84836 1.05 0 0.84836 1 0 
0.84836 0.95 0 0.84836 0.9 0 0.84836 0.85 0 
0.84836 0.8 0 0.84836 0.75 0 0.84836 0.7 0 
0.84836 0.65 0 0.84836 0.6 0 0.84836 0.55 0 
0.84836 0.5 0 0.84836 0.45 0 0.84836 0.4 0 
0.84836 0.35 0 0.84836 0.3 0 0.84836 0.25 0 
0.84836 0.2 0 0.84836 0.15 0 0.84836 0.1 0 
0.84836 0.05 0 0.84836 0 0 0.898144 1.5 0 
0.898144 1.45 0 0.898144 1.4 0 0.898144 1.35 0 
0.898144 1.3 0 0.898144 1.25 0 0.898144 1.2 0 
0.898144 1.15 0 0.898144 1.1 0 0.898144 1.05 0 
0.898144 1 0 0.898144 0.95 0 0.898144 0.9 0 
0.898144 0.85 0 0.898144 0.8 0 0.898144 0.75 0 
0.898144 0.7 0 0.898144 0.65 0 0.898144 0.6 0 
0.898144 0.55 0 0.898144 0.5 0 0.898144 0.45 0 
0.898144 0.4 0 0.898144 0.35 0 0.898144 0.3 0 
0.898144 0.25 0 0.898144 0.2 0 0.898144 0.15 0 
0.898144 0.1 0 0.898144 0.05 0 0.898144 0 0 
0.947928 1.5 0 0.947928 1.45 0 0.947928 1.4 0 
0.947928 1.35 0 0.947928 1.3 0 0.947928 1.25 0 
0.947928 1.2 0 0.947928 1.15 0 0.947928 1.1 0 
0.947928 1.05 0 0.947928 1 0 0.947928 0.95 0 
0.947928 0.9 0 0.947928 0.85 0 0.947928 0.8 0 
0.947928 0.75 0 0.947928 0.7 0 0.947928 0.65 0 
0.947928 0.6 0 0.947928 0.55 0 0.947928 0.5 0 
0.947928 0.45 0 0.947928 0.4 0 0.947928 0.35 0 
0.947928 0.3 0 0.947928 0.25 0 0.947928 0.2 0 
0.947928 0.15 0 0.947928 0.1 0 0.947928 0.05 0 
0.947928 0 0 0.997712 1.5 0 0.997712 1.45 0 
0.997712 1.4 0 0.997712 1.35 0 0.997712 1.3 0 
0.997712 1.25 0 0.997712 1.2 0 0.997712 1.15 0 
0.997712 1.1 0 0.997712 1.05 0 0.997712 1 0 
0.997712 0.95 0 0.997712 0.9 0 0.997712 0.85 0 
0.997712 0.8 0 0.997712 0.75 0 0.997712 0.7 0 
0.997712 0.65 0 0.997712 0.6 0 0.997712 0.55 0 
0.997712 0.5 0 0.997712 0.45 0 0.997712 0.4 0 
0.997712 0.35 0 0.997712 0.3 0 0.997712 0.25 0 
0.997712 0.2 0 0.997712 0.15 0 0.997712 0.1 0 
0.997712 0.05 0 0.997712 0 0 1.047496 1.5 0 
1.047496 1.45 0 1.047496 1.4 0 1.047496 1.35 0 
1.047496 1.3 0 1.047496 1.25 0 1.047496 1.2 0 
1.047496 1.15 0 1.047496 1.1 0 1.047496 1.05 0 
1.047496 1 0 1.047496 0.95 0 1.047496 0.9 0 
1.047496 0.85 0 1.047496 0.8 0 1.047496 0.75 0 
1.047496 0.7 0 1.047496 0.65 0 1.047496 0.6 0 
1.047496 0.55 0 1.047496 0.5 0 1.047496 0.45 0 
1.047496 0.4 0 1.047496 0.35 0 1.047496 0.3 0 
1.047496 0.25 0 1.047496 0.2 0 1.047496 0.15 0 
[...]
CELL_DATA 9270
FIELD FieldData 7
B_Stress_n_p_m2 1 9270 float
0.635806 0.705938 0.717097 0.720717 0.724413 0.72903 0.734824 0.741928 0.750541 
0.760914 0.773325 0.78642 0.799635 0.82791 0.844781 0.649143 0.402646 0.283473 
0.214338 0.169561 0.138882 0.117131 0.101466 0.0902103 0.0823133 0.0769631 0.0735457 
0.0699188 0.0643819 0.0534908 0.593932 0.662731 0.672895 0.674815 0.676083 0.677379 
0.678769 0.680008 0.680793 0.680546 0.678079 0.670738 0.656146 0.631163 0.565031 
0.425527 0.313839 0.234592 0.179205 0.139823 0.111294 0.0903311 0.0748206 0.0633508 
0.0548857 0.0484877 0.0431842 0.0366321 0.0272287 0.00977532 0.557787 0.625548 0.635 
0.635654 0.63509 0.633958 0.632216 0.62948 0.625295 0.618917 0.609163 0.594255 
0.572664 0.540369 0.482707 0.395859 0.315616 0.252117 0.203671 0.167077 0.139454 
0.118573 0.102775 0.0907839 0.081501 0.073779 0.0661826 0.056297 0.042226 0.0208022 
0.523397 0.590285 0.599171 0.598775 0.596699 0.59361 0.589413 0.58367 0.575881 
0.565274 0.550772 0.530958 0.504288 0.467818 0.416944 0.355281 0.296741 0.246869 
0.206343 0.174181 0.148975 0.12937 0.114182 0.10235 0.0928131 0.0843309 0.0752169 
0.0630448 0.0456079 0.0211734 0.491418 0.557605 0.566103 0.564919 0.561712 0.557204 
0.551296 0.543574 0.533592 0.520709 0.504139 0.482959 0.456182 0.422379 0.380505 
0.333621 0.288169 0.247662 0.213243 0.184835 0.161821 0.143411 0.128776 0.117054 
0.107264 0.0981503 0.0879266 0.0741853 0.0544191 0.0275448 0.461891 0.527531 0.535798 
0.534063 0.530061 0.524596 0.517587 0.508679 0.497513 0.483599 0.466399 0.445341 
0.419896 0.389591 0.354643 0.317202 0.280604 0.247079 0.217685 0.192678 0.171853 
0.154773 0.14087 0.129459 0.119658 0.11025 0.099411 0.0846858 0.0631488 0.0335651 
0.434831 0.500053 0.508229 0.506148 0.50164 0.4956 0.487982 0.4785 0.46689 
0.452806 0.435915 0.415906 0.392575 0.36591 0.336436 0.305607 0.275346 0.247124 
0.221801 0.199732 0.180919 0.16514 0.152018 0.141018 0.131372 0.12194 0.110907 
0.0957383 0.0730073 0.040846 0.410182 0.475092 0.483289 0.481031 0.476252 0.469939 
0.462082 0.452466 0.44091 0.427186 0.411111 0.392547 0.371481 0.348093 0.322924 
0.296974 0.271448 0.247352 0.225359 0.205821 0.188837 0.174315 0.162009 0.151513 
0.142173 0.132943 0.12204 0.106827 0.0833012 0.048603 0.387842 0.452522 0.460829 
0.458527 0.453657 0.447297 0.43947 0.430023 0.418843 0.405793 0.39079 0.373807 
0.354928 0.334395 0.312679 0.290489 0.268634 0.247824 0.228582 0.211224 0.195885 
0.182552 0.171072 0.161142 0.152217 0.143356 0.132824 0.117877 0.0938999 0.0567915 
0.367677 0.43219 0.44067 0.438424 0.433599 0.427353 0.419741 0.41066 0.400051 
0.387837 0.374006 0.358591 0.341722 0.323643 0.304744 0.285545 0.266616 0.248477 
0.231534 0.21606 0.202199 0.189981 0.179319 0.169995 0.161561 0.153183 0.143184 
0.128724 0.104565 0.0651875 0.349536 0.413927 0.422623 0.420504 0.415818 0.409799 
0.402522 0.393928 0.383992 0.372684 0.360032 0.346103 0.33104 0.315067 0.298504 
0.281742 0.265201 0.249271 0.234273 0.220438 0.207905 0.196727 0.186865 0.178165 
0.170266 0.162439 0.153073 0.13925 0.115128 0.0736445 0.333261 0.397557 0.406494 
0.404551 0.400069 0.394348 0.387479 0.379435 0.370216 0.359824 0.348308 0.33575 
0.322293 0.308135 0.293536 0.278798 0.264243 0.250171 0.236836 0.224435 0.213097 
0.202887 0.193796 0.185723 0.17838 0.171135 0.162454 0.149362 0.125449 0.0820289 
0.318692 0.38291 0.392099 0.39036 0.386122 0.380741 0.374317 0.366849 0.358354 
0.34885 0.338401 0.327092 0.315058 0.30247 0.289541 0.276513 0.263635 0.251144 
0.239247 0.228109 0.217849 0.208535 0.200181 0.192725 0.185941 0.179285 0.171303 
0.158992 0.135419 0.0902365 0.305675 0.36982 0.37926 0.377741 0.37377 0.368747 
0.362781 0.355891 0.348098 0.339438 0.329975 0.319795 0.30902 0.297797 0.286305 
0.274737 0.263293 0.252164 0.241521 0.231502 0.222216 0.213732 0.206077 0.199218 
0.19298 0.1869 0.179609 0.168096 0.144962 0.0981868 0.294062 0.358131 0.367814 
0.36652 0.362824 0.358164 0.352652 0.346322 0.3392 0.331327 0.322766 0.313602 
0.303942 0.293914 0.283667 0.27336 0.263156 0.253212 0.243668 0.234647 0.226242 
0.218523 0.211525 0.205238 0.199525 0.193998 0.187371 0.176648 0.154025 0.105822 
0.283717 0.347702 0.357613 0.35654 0.353118 0.348815 0.343743 0.337946 0.331453 
0.324306 0.316568 0.308316 0.299645 0.290667 0.281507 0.272298 0.263175 0.254269 
0.245697 0.237566 0.22996 0.222945 0.216562 0.210816 0.205603 0.200596 0.194596 
0.184641 0.162574 0.113101 0.274514 0.3384 0.34852 0.347661 0.344505 0.340544 
0.335891 0.330597 0.324687 0.318206 0.311214 0.303779 0.295988 0.287937 0.279733 
0.271487 0.263313 0.255321 0.247613 0.240279 0.233398 0.22703 0.221219 0.215981 
0.211237 0.206716 0.2013 0.192077 0.170596 0.120002 0.266337 0.330106 0.340413 
0.339756 0.336856 0.33322 0.32896 0.324132 0.31876 0.312889 0.30657 0.29987 
0.292862 0.285632 0.278271 0.270874 0.263538 0.256357 0.249418 0.242802 0.236578 
0.230804 0.225522 0.220758 0.216451 0.212378 0.207502 0.19897 0.178089 0.126513 
0.259083 0.322714 0.333185 0.332716 0.330057 0.326725 0.322831 0.318436 0.313557 
0.308239 0.302529 0.296487 0.290179 0.283679 0.277065 0.27042 0.263828 0.257368 
0.251118 0.245148 0.23952 0.234289 0.229495 0.22517 0.221269 0.217607 0.213225 
0.205339 0.185062 0.132633 0.252657 0.316128 0.326738 0.326442 0.324008 0.32096 
0.317405 0.313406 0.308977 0.304162 0.299002 0.293552 0.287869 0.282019 0.27607 
0.270095 0.264164 0.258349 0.252715 0.247327 0.24224 0.237505 0.233161 0.229242 
0.225713 0.222427 0.218495 0.211208 0.191531 0.138368 0.246974 0.310261 0.320987 
0.320848 0.318623 0.315836 0.312594 0.308958 0.304939 0.300579 0.295916 0.290997 
0.285874 0.280605 0.27525 0.269871 0.264531 0.259293 0.254214 0.249351 0.244755 
0.240472 0.236539 0.232993 0.229808 0.226863 0.223338 0.216605 0.197518 0.143731 
0.241958 0.305037 0.315854 0.315857 0.313826 0.311279 0.308323 0.305018 0.301373 
0.297426 0.293209 0.288768 0.284147 0.279399 0.274574 0.269729 0.264919 0.260198 
0.255618 0.251229 0.247077 0.243207 0.23965 0.236446 0.233575 0.230939 0.227783 
0.22156 0.203047 0.148737 0.237541 0.300387 0.311272 0.311402 0.309549 0.307223 
0.304528 0.301525 0.298218 0.294644 0.290832 0.28682 0.282651 0.278368 0.27402 
0.269653 0.265317 0.261061 0.25693 0.25297 0.249221 0.245725 0.242513 0.239621 
0.237036 0.23468 0.231856 0.226102 0.208145 0.153406 0.233663 0.296251 0.307182 
0.307425 0.305734 0.303609 0.301154 0.298425 0.295425 0.292188 0.28874 0.285116 
0.281351 0.277488 0.273566 0.269629 0.26572 0.261881 0.258155 0.254582 0.251199 
0.248043 0.245144 0.242538 0.240213 0.23811 0.235585 0.23026 0.212841 0.157756 
0.230269 0.292573 0.30353 0.303872 0.302329 0.300389 0.29815 0.295671 0.292949 
0.290017 0.286897 0.283622 0.280223 0.276735 0.273197 0.269646 0.26612 0.262658 
0.259297 0.256074 0.253022 0.250176 0.247561 0.245215 0.243127 0.241251 0.238996 
0.234063 0.217163 0.16181 0.227311 0.289307 0.300269 0.300697 0.29929 0.297517 
0.295476 0.293222 0.290752 0.288097 0.285273 0.282312 0.279241 0.276093 0.2729 
0.269696 0.266515 0.263393 0.260361 0.257454 0.254701 0.252136 0.24978 0.247669 
0.245796 0.244127 0.242113 0.23754 0.221138 0.165588 0.224744 0.286408 0.297358 
0.29786 0.296576 0.294955 0.293094 0.291045 0.288803 0.286397 0.283841 0.281163 
0.278388 0.275545 0.272662 0.269771 0.266902 0.264085 0.261351 0.25873 0.256248 
0.253937 0.251816 0.249919 0.248241 0.246756 0.24496 0.240716 0.224793 0.169111 
0.22253 0.283838 0.294759 0.295325 0.294152 0.292669 0.290971 0.289108 0.287073 
0.284891 0.282577 0.280155 0.277647 0.275078 0.272476 0.269866 0.267277 0.264737 
0.262271 0.259908 0.257672 0.255591 0.253683 0.251981 0.250479 0.249161 0.24756 
0.243616 0.228154 0.172399 0.220634 0.281564 0.292439 0.29306 0.291988 0.29063 
0.28908 0.287384 0.285536 0.283558 0.281462 0.279271 0.277003 0.274683 0.272332 
0.269977 0.267641 0.265349 0.263126 0.260997 0.258983 0.25711 0.255395 0.253868 
0.252527 0.251358 0.249932 0.246265 0.231245 0.175471 0.219025 0.279555 0.29037 
0.291035 0.290055 0.28881 0.287395 0.285851 0.284171 0.282378 0.280479 0.278496 
0.276445 0.274348 0.272225 0.270099 0.267991 0.265924 0.26392 0.262002 0.260189 
0.258504 0.256964 0.255597 0.2544 0.253366 0.252098 0.248684 0.234089 0.178345 
0.217675 0.277783 0.288525 0.289227 0.288329 0.287187 0.285893 0.284487 0.28296 
0.281333 0.279612 0.277817 0.275962 0.274067 0.272149 0.27023 0.268328 0.266464 
0.264658 0.26293 0.261298 0.259784 0.258402 0.257179 0.256113 0.2552 0.254074 
0.250893 0.236707 0.18104 0.216558 0.276224 0.286881 0.287613 0.286788 0.285739 
0.284556 0.283274 0.281886 0.280409 0.278849 0.277223 0.275545 0.273832 0.2721 
0.270367 0.268651 0.26697 0.265343 0.263787 0.262319 0.26096 0.259721 0.258628 
0.25768 0.256876 0.255878 0.252911 0.239119 0.18357 0.215653 0.274856 0.285417 
0.286172 0.285414 0.284449 0.283366 0.282197 0.280933 0.279592 0.278177 0.276705 
0.275187 0.273638 0.272073 0.270508 0.26896 0.267445 0.265979 0.264579 0.26326 
0.262039 0.26093 0.259955 0.259113 0.258408 0.257524 0.254754 0.241344 0.185951 
0.214939 0.27366 0.284116 0.284887 0.284189 0.2833 0.282307 0.28124 0.28009 
0.278871 0.277588 0.276254 0.274879 0.273479 0.272065 0.270653 0.269256 0.267891 
0.26657 0.265311 0.264125 0.263031 0.262039 0.26117 0.260425 0.259807 0.259027 
0.25644 0.243397 0.188196 0.214399 0.272618 0.282959 0.283741 0.283097 0.282278 
0.281366 0.280392 0.279343 0.278235 0.277071 0.275862 0.274618 0.273351 0.272074 
0.270799 0.269539 0.268309 0.26712 0.265987 0.264923 0.263943 0.263056 0.262283 
0.261625 0.261087 0.260401 0.257982 0.245296 0.19032 0.214015 0.271714 0.281934 
0.282722 0.282126 0.281369 0.280532 0.27964 0.278684 0.277676 0.276619 0.275523 
0.274397 0.273251 0.272097 0.270946 0.26981 0.268701 0.267631 0.266613 0.265658 
0.264781 0.26399 0.263304 0.262724 0.262258 0.261656 0.259394 0.247053 0.192333 
0.213773 0.270935 0.281025 0.281815 0.281263 0.280562 0.279792 0.278975 0.278103 
0.277186 0.276226 0.275232 0.274211 0.273175 0.272132 0.271093 0.270069 0.26907 
0.268107 0.267193 0.266337 0.265553 0.264848 0.26424 0.263732 0.263329 0.262804 
0.260687 0.248682 0.194246 0.21366 0.270267 0.280222 0.28101 0.280497 0.279847 
0.279137 0.278389 0.277592 0.276757 0.275884 0.274982 0.274058 0.27312 0.272178 
0.27124 0.270316 0.269417 0.268551 0.267731 0.266964 0.266263 0.265636 0.265099 
0.264655 0.264311 0.263854 0.261873 0.250194 0.196069 0.213663 0.2697 0.279514 
0.280297 0.279818 0.279214 0.278559 0.277872 0.277144 0.276383 0.275589 0.27477 
0.273933 0.273084 0.272232 0.271386 0.270553 0.269744 0.268966 0.26823 0.267544 
0.266919 0.266362 0.265889 0.265502 0.26521 0.264816 0.262962 0.251602 0.197812 
0.213772 0.269224 0.278891 0.279666 0.279218 0.278655 0.27805 0.277419 0.276753 
0.276058 0.275335 0.274592 0.273833 0.273065 0.272295 0.271531 0.27078 0.270052 
0.269353 0.268694 0.26808 0.267524 0.267031 0.266615 0.266281 0.266036 0.265698 
0.263962 0.252913 0.199483 0.213978 0.268829 0.278346 0.279109 0.278688 0.278163 
0.277603 0.277022 0.276412 0.275777 0.275119 0.274444 0.273755 0.27306 0.272364 
0.271675 0.270999 0.270343 0.269716 0.269126 0.268578 0.268083 0.267647 0.267284 
0.266997 0.266794 0.266507 0.264882 0.254138 0.201089 0.214264 0.268514 0.27787 
0.278618 0.278223 0.277731 0.277212 0.276676 0.276116 0.275536 0.274937 0.274322 
0.273698 0.273068 0.272439 0.271817 0.271208 0.270619 0.270056 0.269528 0.26904 
0.268601 0.268217 0.267901 0.267655 0.267491 0.267251 0.26573 0.255285 0.202637 
0.214622 0.268272 0.277456 0.278188 0.277815 0.277353 0.276871 0.276376 0.275862 
0.275331 0.274784 0.274225 0.273658 0.273088 0.272519 0.271958 0.27141 0.27088 
0.270376 0.269904 0.269469 0.269081 0.268743 0.26847 0.268263 0.268133 0.267935 
0.266513 0.25636 0.204134 0.215046 0.268097 0.277099 0.277812 0.277458 0.277024 
0.276575 0.276117 0.275644 0.275157 0.274658 0.27415 0.273635 0.273118 0.272604 
0.272098 0.271604 0.271129 0.270677 0.270256 0.269869 0.269526 0.269231 0.268996 
0.268823 0.268724 0.268565 0.267236 0.25737 0.205586 0.21553 0.267982 0.276792 
0.277485 0.277149 0.276739 0.27632 0.275895 0.275459 0.275013 0.274557 0.274094 
0.273626 0.273158 0.272693 0.272236 0.271791 0.271365 0.270961 0.270585 0.270242 
0.269941 0.269684 0.269483 0.269342 0.269271 0.269147 0.267905 0.258322 0.206997 
0.216068 0.267919 0.276532 0.277203 0.276881 0.276494 0.276101 0.275707 0.275305 
0.274895 0.274477 0.274055 0.27363 0.273205 0.272785 0.272373 0.271973 0.27159 
0.271229 0.270895 0.270592 0.270327 0.270104 0.269935 0.269821 0.269776 0.269684 
0.268525 0.259221 0.208373 0.216657 0.267903 0.276314 0.27696 0.276651 0.276284 
0.275916 0.275549 0.275177 0.2748 0.274417 0.274032 0.273645 0.27326 0.27288 
0.272508 0.272148 0.271806 0.271483 0.271186 0.270919 0.270688 0.270496 0.270354 
0.270267 0.270244 0.270181 0.269101 0.260071 0.209718 0.217292 0.267929 0.276134 
0.276753 0.276455 0.276106 0.27576 0.275418 0.275073 0.274726 0.274375 0.274023 
0.273671 0.273321 0.272977 0.272642 0.272319 0.272012 0.271724 0.271461 0.271226 
0.271025 0.270861 0.270745 0.27068 0.270678 0.270642 0.269637 0.260878 0.211035 
0.217969 0.267992 0.275988 0.276578 0.276291 0.275958 0.275632 0.275311 0.274992 
0.274671 0.274349 0.274026 0.273706 0.273388 0.273077 0.272775 0.272485 0.27221 
0.271954 0.271721 0.271515 0.271341 0.271203 0.27111 0.271066 0.271082 0.27107 
0.270137 0.261645 0.212328 0.218687 0.268089 0.275872 0.276432 0.276153 0.275835 
0.275527 0.275227 0.274929 0.274633 0.274337 0.274041 0.273749 0.27346 0.273179 
0.272906 0.272646 0.2724 0.272173 0.271968 0.271788 0.271639 0.271523 0.271451 
0.271425 0.271458 0.271469 0.270604 0.262377 0.213602 0.219441 0.268215 0.275784 
0.276313 0.276041 0.275737 0.275445 0.275162 0.274885 0.27461 0.274337 0.274066 
0.273799 0.273537 0.273282 0.273037 0.272803 0.272584 0.272382 0.272202 0.272046 
0.271919 0.271824 0.27177 0.271762 0.27181 0.27184 0.27104 0.263075 0.214858 
0.220229 0.268368 0.27572 0.276217 0.275952 0.275659 0.275382 0.275116 0.274857 
0.274601 0.274349 0.274101 0.273857 0.273618 0.273388 0.273166 0.272957 0.272762 
0.272583 0.272425 0.27229 0.272183 0.272107 0.27207 0.272077 0.272139 0.272188 
0.27145 0.263743 0.216099 0.221049 0.268545 0.275679 0.276143 0.275883 0.275601 
0.275337 0.275085 0.274843 0.274605 0.274372 0.274143 0.27392 0.273703 0.273494 
0.273295 0.273107 0.272933 0.272776 0.272638 0.272522 0.272434 0.272374 0.272353 
0.272373 0.272447 0.272513 0.271835 0.264384 0.217328 0.221899 0.268742 0.275657 
0.276088 0.275832 0.27556 0.275307 0.275069 0.274842 0.27462 0.274404 0.274193 
0.273989 0.273791 0.273602 0.273422 0.273254 0.2731 0.272961 0.272842 0.272744 
0.272671 0.272627 0.27262 0.272652 0.272737 0.272819 0.272198 0.265 0.218546 
0.222777 0.268959 0.275652 0.27605 0.275798 0.275534 0.275293 0.275067 0.274852 
0.274645 0.274445 0.27425 0.274063 0.273882 0.273711 0.273549 0.273399 0.273262 
0.27314 0.273038 0.272955 0.272898 0.272867 0.272872 0.272915 0.273011 0.273107 
0.27254 0.265593 0.219757 0.223681 0.269191 0.275663 0.276028 0.275779 0.275523 
0.275291 0.275076 0.274873 0.274679 0.274493 0.274313 0.274141 0.273976 0.27382 
0.273675 0.27354 0.27342 0.273314 0.273226 0.273157 0.273113 0.273095 0.273111 
0.273164 0.273269 0.273378 0.272864 0.266166 0.220962 0.22461 0.269438 0.275688 
0.276019 0.275773 0.275524 0.275301 0.275095 0.274904 0.274721 0.274548 0.274381 
0.274223 0.274072 0.273931 0.2738 0.27368 0.273574 0.273481 0.273407 0.273351 
0.273319 0.273312 0.273338 0.273401 0.273513 0.273635 0.273171 0.266719 0.222162 
0.225563 0.269698 0.275726 0.276024 0.275779 0.275537 0.275322 0.275125 0.274943 
0.274771 0.274609 0.274454 0.274308 0.274171 0.274042 0.273924 0.273818 0.273724 
0.273645 0.273582 0.273538 0.273517 0.27352 0.273555 0.273626 0.273746 0.273878 
0.273462 0.267255 0.223359 0.226538 0.269969 0.275774 0.276039 0.275797 0.27556 
0.275352 0.275163 0.27499 0.274827 0.274675 0.274532 0.274397 0.274271 0.274154 
0.274048 0.273953 0.273871 0.273803 0.273752 0.273718 0.273707 0.273718 0.273762 
0.27384 0.273967 0.27411 0.27374 0.267774 0.224554 0.227534 0.270249 0.275833 
0.276065 0.275824 0.275592 0.27539 0.275209 0.275044 0.27489 0.274747 0.274613 
0.274488 0.274373 0.274267 0.274172 0.274087 0.274016 0.273958 0.273916 0.273892 
0.273889 0.273909 0.273961 0.274045 0.274178 0.27433 0.274004 0.268279 0.22575 
0.22855 0.270538 0.2759 0.2761 0.27586 0.275632 0.275437 0.275262 0.275104 
0.274958 0.274823 0.274698 0.274583 0.274476 0.27438 0.274294 0.27422 0.274158 
0.274109 0.274076 0.27406 0.274066 0.274093 0.274151 0.274242 0.27438 0.274541 
0.274258 0.268769 0.226946 0.229586 0.270834 0.275975 0.276144 0.275904 0.27568 
0.27549 0.275321 0.27517 0.27503 0.274904 0.274786 0.274679 0.274581 0.274494 
0.274417 0.274351 0.274297 0.274257 0.274232 0.274224 0.274237 0.274271 0.274335 
0.27443 0.274574 0.274742 0.2745 0.269246 0.228144 0.23064 0.271135 0.276056 
0.276195 0.275955 0.275735 0.27555 0.275386 0.27524 0.275108 0.274988 0.274877 
0.274778 0.274687 0.274608 0.274538 0.27448 0.274434 0.274402 0.274384 0.274383 
0.274402 0.274442 0.274512 0.274612 0.27476 0.274936 0.274733 0.269712 0.229344 
0.231713 0.271442 0.276144 0.276252 0.276013 0.275796 0.275615 0.275456 0.275316 
0.275189 0.275075 0.274971 0.274878 0.274795 0.274722 0.27466 0.274609 0.27457 
0.274544 0.274533 0.274538 0.274563 0.274608 0.274683 0.274788 0.27494 0.275122 
0.274956 0.270165 0.230549 0.232803 0.271752 0.276236 0.276315 0.276076 0.275863 
0.275686 0.27553 0.275395 0.275273 0.275165 0.275067 0.27498 0.274903 0.274837 
0.274781 0.274736 0.274704 0.274684 0.274679 0.274689 0.27472 0.27477 0.274849 
0.274958 0.275113 0.275301 0.275172 0.270608 0.231758 0.23391 0.272065 0.276334 
0.276384 0.276145 0.275934 0.275761 0.275609 0.275479 0.275361 0.275258 0.275165 
0.275084 0.275012 0.274952 0.274902 0.274863 0.274836 0.274821 0.274822 0.274837 
0.274873 0.274927 0.27501 0.275122 0.275281 0.275475 0.275379 0.271041 0.232973 
0.235034 0.272381 0.276435 0.276458 0.276218 0.27601 0.27584 0.275692 0.275565 
0.275452 0.275353 0.275265 0.275189 0.275123 0.275067 0.275022 0.274988 0.274967 
0.274957 0.274962 0.274982 0.275022 0.27508 0.275167 0.275283 0.275444 0.275643 
0.27558 0.271464 0.234193 0.236174 0.272698 0.27654 0.276536 0.276296 0.27609 
0.275923 0.275778 0.275655 0.275546 0.275451 0.275367 0.275295 0.275233 0.275183 
0.275142 0.275113 0.275096 0.275091 0.275101 0.275125 0.275168 0.27523 0.27532 
0.275438 0.275603 0.275806 0.275775 0.271878 0.235421 0.23733 0.273015 0.276647 
0.276617 0.276378 0.276174 0.276009 0.275867 0.275747 0.275641 0.27555 0.275471 
0.275403 0.275345 0.275298 0.275262 0.275237 0.275224 0.275223 0.275237 0.275265 
0.275311 0.275377 0.275469 0.27559 0.275757 0.275964 0.275963 0.272283 0.236655 
0.238501 0.273333 0.276757 0.276703 0.276463 0.276261 0.276098 0.275959 0.275842 
0.275739 0.275652 0.275575 0.275511 0.275457 0.275414 0.275382 0.275361 0.275352 
0.275354 0.275371 0.275403 0.275452 0.275521 0.275616 0.275739 0.275908 0.276118 
0.276146 0.272679 0.237897 0.239687 0.273651 0.276869 0.276791 0.276551 0.276351 
0.27619 0.276053 0.275939 0.275839 0.275755 0.275682 0.27562 0.27557 0.275531 
0.275502 0.275484 0.275478 0.275484 0.275504 0.275538 0.275591 0.275662 0.275759 
0.275884 0.276055 0.276269 0.276324 0.273067 0.239148 0.240889 0.273967 0.276983 
0.276882 0.276642 0.276443 0.276285 0.27615 0.276038 0.275941 0.275859 0.275789 
0.275731 0.275683 0.275647 0.275621 0.275607 0.275604 0.275613 0.275635 0.275672 
0.275727 0.2758 0.2759 0.276027 0.2762 0.276416 0.276497 0.273447 0.240407 
0.242105 0.274282 0.277098 0.276975 0.276736 0.276538 0.276381 0.276249 0.276139 
0.276044 0.275965 0.275897 0.275842 0.275797 0.275764 0.275741 0.275729 0.275729 
0.27574 0.275765 0.275805 0.275862 0.275937 0.276038 0.276167 0.276341 0.27656 
0.276665 0.273819 0.241676 0.243337 0.274594 0.277215 0.277071 0.276831 0.276635 
0.27648 0.276349 0.276241 0.276149 0.276072 0.276007 0.275954 0.275912 0.27588 