# vtk DataFile Version 5.1
vtk output
ASCII
DATASET UNSTRUCTURED_GRID
POINTS 693 double
0.1016 1.5 0.1439999938 0.1016 1.3125 0.11299386621 0.1016 1.125 0.044603906572 
0.1016 0.9375 4.3171767174e-05 0.1016 0.75 -2.7692611041e-19 0.1016 0.5625 0.028883494437 
0.1016 0.375 0.09996420145 0.1016 0.1875 0.19062872231 0.1016 0 0.2658187151 
5.08 1.5 0.28700000048 5.08 1.3125 0.28700006008 5.08 1.125 0.28700017929 
5.08 0.9375 0.28700008988 5.08 0.75 0.28700000048 5.08 0.5625 0.28700008988 
5.08 0.375 0.28700017929 5.08 0.1875 0.28700011969 5.08 0 0.28700000048 
0.300736 1.5 0.19399508834 0.300736 1.3125 0.15319642425 0.300736 1.125 0.068133160472 
0.300736 0.9375 0.046390365809 0.300736 0.75 0.013365014456 0.300736 0.5625 0.026417372748 
0.300736 0.375 0.095226302743 0.300736 0.1875 0.19705471396 0.300736 0 0.28301364183 
0.499872 1.5 0.28093001246 0.499872 1.3125 0.20878048241 0.499872 1.125 0.12747275829 
0.499872 0.9375 0.076707467437 0.499872 0.75 0.067907102406 0.499872 0.5625 0.11992693692 
0.499872 0.375 0.18823242188 0.499872 0.1875 0.2669030726 0.499872 0 0.28098458052 
0.699008 1.5 0.28123101592 0.699008 1.3125 0.27719938755 0.699008 1.125 0.23602952063 
0.699008 0.9375 0.19533678889 0.699008 0.75 0.20024216175 0.699008 0.5625 0.20777213573 
0.699008 0.375 0.24031040072 0.699008 0.1875 0.28071248531 0.699008 0 0.2808482945 
0.898144 1.5 0.28474295139 0.898144 1.3125 0.28480017185 0.898144 1.125 0.28481325507 
0.898144 0.9375 0.28535923362 0.898144 0.75 0.28542524576 0.898144 0.5625 0.28530728817 
0.898144 0.375 0.28527057171 0.898144 0.1875 0.28495153785 0.898144 0 0.28482493758 
1.09728 1.5 0.28700000048 1.09728 1.3125 0.28699988127 1.09728 1.125 0.28700000048 
1.09728 0.9375 0.28700000048 1.09728 0.75 0.28700000048 1.09728 0.5625 0.28700000048 
1.09728 0.375 0.28700000048 1.09728 0.1875 0.28700003028 1.09728 0 0.28700000048 
1.296416 1.5 0.28700000048 1.296416 1.3125 0.28699988127 1.296416 1.125 0.28700000048 
1.296416 0.9375 0.28700000048 1.296416 0.75 0.28700000048 1.296416 0.5625 0.28700000048 
1.296416 0.375 0.28700000048 1.296416 0.1875 0.28700003028 1.296416 0 0.28700000048 
1.495552 1.5 0.28700000048 1.495552 1.3125 0.28699991107 1.495552 1.125 0.28700000048 
1.495552 0.9375 0.28700000048 1.495552 0.75 0.28700000048 1.495552 0.5625 0.28700000048 
1.495552 0.375 0.28700000048 1.495552 0.1875 0.28700000048 1.495552 0 0.28700000048 
1.694688 1.5 0.28700000048 1.694688 1.3125 0.28699994087 1.694688 1.125 0.28700000048 
1.694688 0.9375 0.28700000048 1.694688 0.75 0.28700000048 1.694688 0.5625 0.28700000048 
1.694688 0.375 0.28700000048 1.694688 0.1875 0.28700000048 1.694688 0 0.28700000048 
1.893824 1.5 0.28700000048 1.893824 1.3125 0.28699994087 1.893824 1.125 0.28700000048 
1.893824 0.9375 0.28700000048 1.893824 0.75 0.28700000048 1.893824 0.5625 0.28700000048 
1.893824 0.375 0.28700000048 1.893824 0.1875 0.28700000048 1.893824 0 0.28700000048 
2.09296 1.5 0.28700000048 2.09296 1.3125 0.28699994087 2.09296 1.125 0.28700000048 
2.09296 0.9375 0.28700000048 2.09296 0.75 0.28700000048 2.09296 0.5625 0.28700000048 
2.09296 0.375 0.28700000048 2.09296 0.1875 0.28700000048 2.09296 0 0.28700000048 
2.292096 1.5 0.28700000048 2.292096 1.3125 0.28699994087 2.292096 1.125 0.28700000048 
2.292096 0.9375 0.28700000048 2.292096 0.75 0.28700000048 2.292096 0.5625 0.28700000048 
2.292096 0.375 0.28700000048 2.292096 0.1875 0.28700000048 2.292096 0 0.28700000048 
2.491232 1.5 0.28700000048 2.491232 1.3125 0.28699994087 2.491232 1.125 0.28700000048 
2.491232 0.9375 0.28700000048 2.491232 0.75 0.28700000048 2.491232 0.5625 0.28700000048 
2.491232 0.375 0.28700000048 2.491232 0.1875 0.28700000048 2.491232 0 0.28700000048 
2.690368 1.5 0.28700000048 2.690368 1.3125 0.28699994087 2.690368 1.125 0.28700000048 
2.690368 0.9375 0.28700000048 2.690368 0.75 0.28700000048 2.690368 0.5625 0.28700000048 
2.690368 0.375 0.28700000048 2.690368 0.1875 0.28700000048 2.690368 0 0.28700000048 
2.889504 1.5 0.28700000048 2.889504 1.3125 0.28699994087 2.889504 1.125 0.28700000048 
2.889504 0.9375 0.28700000048 2.889504 0.75 0.28700000048 2.889504 0.5625 0.28700000048 
2.889504 0.375 0.28700000048 2.889504 0.1875 0.28700000048 2.889504 0 0.28700000048 
3.08864 1.5 0.28700000048 3.08864 1.3125 0.28699997067 3.08864 1.125 0.28700000048 
3.08864 0.9375 0.28700000048 3.08864 0.75 0.28700000048 3.08864 0.5625 0.28700000048 
3.08864 0.375 0.28700000048 3.08864 0.1875 0.28700000048 3.08864 0 0.28700000048 
3.287776 1.5 0.28700000048 3.287776 1.3125 0.28699997067 3.287776 1.125 0.28700000048 
3.287776 0.9375 0.28700000048 3.287776 0.75 0.28700000048 3.287776 0.5625 0.28700000048 
3.287776 0.375 0.28700000048 3.287776 0.1875 0.28700000048 3.287776 0 0.28700000048 
3.486912 1.5 0.28700000048 3.486912 1.3125 0.28699997067 3.486912 1.125 0.28700000048 
3.486912 0.9375 0.28700000048 3.486912 0.75 0.28700000048 3.486912 0.5625 0.28700000048 
3.486912 0.375 0.28700000048 3.486912 0.1875 0.28700000048 3.486912 0 0.28700000048 
3.686048 1.5 0.28700000048 3.686048 1.3125 0.28699997067 3.686048 1.125 0.28700000048 
3.686048 0.9375 0.28700000048 3.686048 0.75 0.28700000048 3.686048 0.5625 0.28700000048 
3.686048 0.375 0.28700000048 3.686048 0.1875 0.28700000048 3.686048 0 0.28700000048 
3.885184 1.5 0.28700000048 3.885184 1.3125 0.28699997067 3.885184 1.125 0.28700000048 
3.885184 0.9375 0.28700000048 3.885184 0.75 0.28700000048 3.885184 0.5625 0.28700000048 
3.885184 0.375 0.28700000048 3.885184 0.1875 0.28700000048 3.885184 0 0.28700000048 
4.08432 1.5 0.28700000048 4.08432 1.3125 0.28699997067 4.08432 1.125 0.28700000048 
4.08432 0.9375 0.28700000048 4.08432 0.75 0.28700000048 4.08432 0.5625 0.28700000048 
4.08432 0.375 0.28700000048 4.08432 0.1875 0.28700000048 4.08432 0 0.28700000048 
4.283456 1.5 0.28700000048 4.283456 1.3125 0.28700000048 4.283456 1.125 0.28700000048 
4.283456 0.9375 0.28700000048 4.283456 0.75 0.28700000048 4.283456 0.5625 0.28700000048 
4.283456 0.375 0.28700000048 4.283456 0.1875 0.28700000048 4.283456 0 0.28700000048 
4.482592 1.5 0.28700000048 4.482592 1.3125 0.28700000048 4.482592 1.125 0.28700000048 
4.482592 0.9375 0.28700000048 4.482592 0.75 0.28700000048 4.482592 0.5625 0.28700000048 
4.482592 0.375 0.28700000048 4.482592 0.1875 0.28700000048 4.482592 0 0.28700000048 
4.681728 1.5 0.28700000048 4.681728 1.3125 0.28700000048 4.681728 1.125 0.28700000048 
4.681728 0.9375 0.28700000048 4.681728 0.75 0.28700000048 4.681728 0.5625 0.28700000048 
4.681728 0.375 0.28700000048 4.681728 0.1875 0.28700000048 4.681728 0 0.28700000048 
4.880864 1.5 0.28700000048 4.880864 1.3125 0.28700000048 4.880864 1.125 0.28700000048 
4.880864 0.9375 0.28700000048 4.880864 0.75 0.28700000048 4.880864 0.5625 0.28700000048 
4.880864 0.375 0.28700000048 4.880864 0.1875 0.28700000048 4.880864 0 0.28700000048 
-0.1 1.5 0.12513391674 -0.1 1.3125 0.097646377981 -0.1 1.125 0.0069025200792 
-0.1 0.9375 -6.4758249209e-05 -0.1 0.75 -0.00020060798852 -0.1 0.5625 0.15258419514 
-0.1 0.375 0.25206366181 -0.1 0.1875 0.28200760484 -0.1 0 0.27514004707 
-10.16 1.5 3.4180752324e-22 -10.16 1.3125 -6.3734766798e-08 -10.16 1.125 -7.2232289483e-08 
-10.16 0.9375 -3.0702832277e-08 -10.16 0.75 -6.267088501e-24 -10.16 0.5625 -2.754597439e-08 
-10.16 0.375 -5.6747229138e-08 -10.16 0.1875 -3.8738217967e-08 -10.16 0 0 
-9.9588 1.5 -3.0990227743e-22 -9.9588 1.3125 -1.2778509806e-08 -9.9588 1.125 -1.5967345501e-10 
-9.9588 0.9375 3.1973826364e-11 -9.9588 0.75 1.1976343282e-25 -9.9588 0.5625 1.7098544802e-12 
-9.9588 0.375 -5.5833511425e-11 -9.9588 0.1875 -4.875580828e-09 -9.9588 0 0 
-9.7576 1.5 2.6216733218e-22 -9.7576 1.3125 -1.0496587599e-08 -9.7576 1.125 -1.0783942489e-10 
-9.7576 0.9375 -1.6308166623e-11 -9.7576 0.75 -5.6787877896e-27 -9.7576 0.5625 2.3537727323e-11 
-9.7576 0.375 -3.250175129e-11 -9.7576 0.1875 -4.2115280152e-09 -9.7576 0 0 
-9.5564 1.5 1.2111004087e-22 -9.5564 1.3125 -9.7926386999e-09 -9.5564 1.125 -1.4961888672e-10 
-9.5564 0.9375 -1.1166298788e-11 -9.5564 0.75 -1.499264663e-26 -9.5564 0.5625 2.6266211428e-11 
-9.5564 0.375 -3.3719183695e-11 -9.5564 0.1875 -4.1252694594e-09 -9.5564 0 0 
-9.3552 1.5 2.3459410657e-22 -9.3552 1.3125 -9.484319996e-09 -9.3552 1.125 -8.4908698128e-11 
-9.3552 0.9375 1.0948028942e-11 -9.3552 0.75 6.2361673229e-27 -9.3552 0.5625 -2.1937007766e-11 
-9.3552 0.375 -7.2720038324e-11 -9.3552 0.1875 -4.274061105e-09 -9.3552 0 0 
-9.154 1.5 1.1643735898e-22 -9.154 1.3125 -9.4488497027e-09 -9.154 1.125 -5.2009337809e-11 
-9.154 0.9375 -1.5069247933e-11 -9.154 0.75 3.9905021929e-27 -9.154 0.5625 -1.1932566046e-11 
-9.154 0.375 -6.0961055648e-11 -9.154 0.1875 -4.5202117605e-09 -9.154 0 0 
-8.9528 1.5 2.3455815975e-22 -8.9528 1.3125 -9.5352516993e-09 -8.9528 1.125 -1.0514674548e-10 
-8.9528 0.9375 -4.1365820491e-11 -8.9528 0.75 6.2361673229e-27 -8.9528 0.5625 9.8953067962e-12 
-8.9528 0.375 -7.1075133626e-12 -8.9528 0.1875 -4.8315458301e-09 -8.9528 0 0 
-8.7516 1.5 2.3878534349e-22 -8.7516 1.3125 -9.756015551e-09 -8.7516 1.125 -1.0096450065e-10 
-8.7516 0.9375 7.1668226909e-12 -8.7516 0.75 -1.2601559923e-27 -8.7516 0.5625 9.2651060435e-12 
-8.7516 0.375 -5.8583478346e-11 -8.7516 0.1875 -5.2060569189e-09 -8.7516 0 -3.2389177264e-23 
-8.5504 1.5 1.225150968e-22 -8.5504 1.3125 -9.9733270531e-09 -8.5504 1.125 -8.6068839555e-11 
-8.5504 0.9375 1.2551071293e-12 -8.5504 0.75 -1.2601559923e-27 -8.5504 0.5625 5.171804391e-12 
-8.5504 0.375 -5.0691645326e-11 -8.5504 0.1875 -5.6198770082e-09 -8.5504 0 -3.5103161701e-23 
-8.3492 1.5 -2.5300331806e-22 -8.3492 1.3125 -1.0290611918e-08 -8.3492 1.125 -8.74223402e-11 
-8.3492 0.9375 8.0035977845e-13 -8.3492 0.75 -9.8470055532e-27 -8.3492 0.5625 2.4868637965e-12 
-8.3492 0.375 -4.0343457741e-11 -8.3492 0.1875 -6.184698087e-09 -8.3492 0 0 
-8.148 1.5 1.3131095901e-22 -8.148 1.3125 -1.0700744291e-08 -8.148 1.125 -1.0285510638e-10 
-8.148 0.9375 3.4451663744e-11 -8.148 0.75 3.7885538011e-27 -8.148 0.5625 1.4054960537e-12 
[...]
CELL_DATA 608
FIELD FieldData 7
B_Stress_n_p_m2 1 608 float
0.365476 0.362814 0.354499 0.351677 0.258438 0.14937 0.128612 0.130693 0.41654 
0.370502 0.312072 0.274038 0.179614 0.141963 0.126006 0.12374 0.513665 0.473852 
0.419375 0.370525 0.315977 0.290337 0.27028 0.271515 0.508167 0.524818 0.519904 
0.486815 0.44403 0.396815 0.352378 0.338979 0.499661 0.509634 0.517671 0.512269 
0.483654 0.452078 0.413002 0.391393 0.488363 0.497793 0.498415 0.489441 0.471008 
0.450538 0.427141 0.412869 0.478496 0.488006 0.488931 0.483262 0.471543 0.457923 
0.441626 0.42876 0.471597 0.481108 0.482322 0.478483 0.470771 0.461517 0.449855 
0.438173 0.466811 0.476337 0.478202 0.475924 0.470858 0.464408 0.455536 0.444565 
0.463586 0.473064 0.47543 0.47422 0.470866 0.46625 0.459192 0.448752 0.461476 
0.47085 0.473547 0.473054 0.470832 0.467447 0.461617 0.451606 0.460148 0.469359 
0.472215 0.472172 0.470698 0.468162 0.463217 0.453586 0.459369 0.46836 0.471236 
0.471454 0.470476 0.468546 0.464281 0.455013 0.458976 0.467694 0.47048 0.470826 
0.470179 0.468698 0.464989 0.45609 0.458859 0.467249 0.469862 0.470248 0.46982 
0.468685 0.46546 0.456952 0.458944 0.46695 0.469329 0.469694 0.469412 0.468554 
0.465772 0.457689 0.459183 0.466744 0.468842 0.469149 0.468965 0.468335 0.465973 
0.458362 0.459546 0.466595 0.468377 0.468604 0.468485 0.468049 0.466094 0.459014 
0.460017 0.466472 0.467917 0.468055 0.467979 0.467708 0.466152 0.459677 0.460586 
0.466353 0.467451 0.467499 0.467452 0.46732 0.466153 0.460374 0.461249 0.466218 
0.466972 0.46694 0.466912 0.466894 0.466097 0.461122 0.462001 0.466047 0.466479 
0.466386 0.46637 0.466435 0.465979 0.46193 0.462839 0.465816 0.465966 0.465841 
0.465833 0.465944 0.465782 0.462804 0.463728 0.4655 0.465447 0.465335 0.465332 
0.465439 0.465487 0.463715 0.464453 0.465184 0.465083 0.465021 0.46502 0.465081 
0.465181 0.46445 0.406892 0.411349 0.388193 0.316077 0.000800861 0.000533082 0.000450424 
0.000412277 0.141055 0.140145 0.134928 0.126622 0.116563 0.106401 0.0976168 0.091638 
0.142134 0.141042 0.135561 0.126874 0.116419 0.105876 0.0968236 0.0906616 0.14285 
0.141651 0.135985 0.127046 0.116324 0.105534 0.0963033 0.0900351 0.143736 0.142413 
0.136513 0.127259 0.1162 0.105099 0.0956391 0.0892488 0.144638 0.143191 0.13705 
0.127474 0.116073 0.104662 0.0949752 0.0884677 0.145593 0.144016 0.137618 0.1277 
0.115935 0.104197 0.0942734 0.0876464 0.146589 0.144877 0.13821 0.127934 0.115789 
0.103715 0.0935493 0.0868027 0.147629 0.145776 0.138826 0.128175 0.115633 0.103212 
0.0928003 0.0859341 0.148712 0.146713 0.139467 0.128423 0.115468 0.10269 0.0920286 
0.0850436 0.149838 0.147688 0.140133 0.128677 0.115292 0.102147 0.0912346 0.0841321 
0.151008 0.148702 0.140824 0.128938 0.115104 0.101583 0.0904186 0.0832014 0.152224 
0.149756 0.141542 0.129204 0.114904 0.100997 0.0895813 0.0822527 0.153486 0.150853 
0.142287 0.129474 0.114688 0.100387 0.088723 0.081288 0.154794 0.151993 0.14306 
0.129749 0.114455 0.0997534 0.0878445 0.0803092 0.156148 0.153178 0.143863 0.130027 
0.114203 0.0990937 0.0869469 0.0793191 0.157548 0.15441 0.144696 0.130307 0.11393 
0.0984069 0.0860318 0.0783208 0.158992 0.15569 0.145561 0.130588 0.113631 0.0976918 
0.0851015 0.0773185 0.160475 0.157019 0.146458 0.130867 0.113305 0.0969475 0.0841597 
0.0763174 0.16199 0.158397 0.147386 0.131141 0.112947 0.0961738 0.0832114 0.0753241 
0.163526 0.159823 0.148345 0.131408 0.112552 0.095371 0.0822644 0.0743469 0.165066 
0.161295 0.149332 0.131661 0.112118 0.0945413 0.0813296 0.0733968 0.166583 0.162807 
0.150341 0.131894 0.111639 0.0936887 0.0804231 0.0724883 0.168038 0.164349 0.15136 
0.132098 0.111112 0.0928209 0.0795686 0.0716405 0.169373 0.165904 0.15237 0.13226 
0.110536 0.0919503 0.0787999 0.0708802 0.170502 0.167441 0.153342 0.13236 0.10991 
0.0910963 0.0781664 0.0702448 0.171315 0.168922 0.154232 0.132375 0.109239 0.0902908 
0.0777391 0.0697906 0.17163 0.170257 0.154956 0.132265 0.108538 0.0895811 0.0776214 
0.0696044 0.171162 0.17126 0.155333 0.131908 0.107766 0.0890124 0.0779443 0.069827 
0.170011 0.172081 0.155484 0.131432 0.107104 0.0887383 0.0789012 0.0706863 0.167863 
0.172462 0.155377 0.131007 0.106834 0.0891507 0.0810032 0.0727858 0.159058 0.165932 
0.149047 0.125926 0.10386 0.0886565 0.0838914 0.0768303 0.157064 0.164745 0.14723 
0.124743 0.103892 0.0902153 0.0875193 0.0824421 0.220785 0.23424 0.217842 0.182898 
0.145914 0.119753 0.10872 0.101567 0.464371 0.502279 0.510955 0.43796 0.326357 
0.2308 0.180883 0.160699 0.961368 0.955917 0.927961 0.825831 0.663249 0.457251 
0.314342 0.268563 1.32031 1.20158 1.06242 0.954347 0.861253 0.703861 0.482023 
0.390603 1.24343 1.12077 0.986551 0.884987 0.835177 0.802962 0.612191 0.489741 
1.08426 0.997424 0.904014 0.815328 0.756244 0.747421 0.651739 0.536342 0.956588 
0.916223 0.848089 0.774553 0.709108 0.659701 0.599446 0.495948 0.833305 0.82804 
0.766601 0.696385 0.632591 0.593075 0.512768 0.41413 0.797066 0.754387 0.68272 
0.599241 0.525977 0.490835 0.435272 0.345276 0.761058 0.701332 0.615361 0.510033 
0.431354 0.380192 0.339786 0.273812 0.682221 0.633147 0.541972 0.435304 0.337328 
0.274006 0.237229 0.195888 0.617694 0.570562 0.473554 0.361855 0.257903 0.188755 
0.144002 0.127071 0.572282 0.526704 0.429881 0.307543 0.194331 0.129296 0.0934058 
0.0833294 0.534477 0.490741 0.399732 0.274285 0.147434 0.0860564 0.069676 0.0660388 
0.49626 0.455895 0.374312 0.238784 0.102537 0.0599823 0.0538341 0.0590842 0.470173 
0.435521 0.363853 0.217925 0.0622739 0.0480103 0.053127 0.0632069 0.45371 0.424516 
0.362819 0.212943 0.0288869 0.0391688 0.0452461 0.0514827 0.437559 0.426924 0.373552 
0.252571 0.0698298 0.111022 0.134379 0.135413 
Froude 1 608 float
0.123261 0.118341 0.113933 0.111135 0.0954601 0.0745232 0.0729184 0.0784397 0.13676 
0.123471 0.1086 0.100857 0.0820615 0.0747415 0.0739512 0.076624 0.161957 0.148247 
0.133299 0.123329 0.113801 0.112259 0.112849 0.116978 0.161668 0.163986 0.160287 
0.152453 0.145847 0.138273 0.132057 0.131865 0.160714 0.162312 0.16358 0.162746 
0.158107 0.152822 0.146033 0.142137 0.159033 0.16056 0.160654 0.159191 0.156144 
0.152695 0.148656 0.146148 0.157402 0.158958 0.159102 0.158168 0.156225 0.153941 
0.151164 0.148944 0.15625 0.157818 0.158012 0.157376 0.156094 0.154544 0.152571 
0.150576 0.155445 0.157023 0.157326 0.156947 0.156104 0.155026 0.153533 0.151672 
0.154899 0.156474 0.156862 0.15666 0.156101 0.155331 0.154147 0.152385 0.154539 
0.1561 0.156545 0.156462 0.156091 0.155527 0.154552 0.152867 0.15431 0.155847 
0.156319 0.156311 0.156065 0.155642 0.154817 0.153199 0.154174 0.155675 0.156152 
0.156187 0.156024 0.155702 0.154991 0.153436 0.154102 0.155559 0.156021 0.156078 
0.15597 0.155723 0.155105 0.153614 0.154078 0.15548 0.155914 0.155977 0.155906 
0.155717 0.15518 0.153755 0.154087 0.155425 0.15582 0.155881 0.155833 0.155691 
0.155228 0.153875 0.154122 0.155386 0.155735 0.155785 0.155755 0.15565 0.155257 
0.153983 0.154178 0.155356 0.155653 0.15569 0.15567 0.155598 0.155272 0.154089 
0.154253 0.155331 0.155572 0.155594 0.155582 0.155536 0.155277 0.154195 0.154343 
0.155307 0.155489 0.155497 0.155489 0.155467 0.155273 0.154308 0.15445 0.155279 
0.155405 0.1554 0.155395 0.155392 0.155259 0.154428 0.154571 0.155246 0.155318 
0.155303 0.1553 0.155311 0.155235 0.154559 0.154706 0.155203 0.155228 0.155208 
0.155206 0.155225 0.155197 0.154701 0.15485 0.155146 0.155137 0.155119 0.155118 
0.155136 0.155143 0.154848 0.154965 0.155089 0.155073 0.155062 0.155062 0.155072 
0.155088 0.154965 0.127595 0.124613 0.116666 0.105161 0.00533046 0.00463557 0.00455824 
0.0045592 0.0702646 0.0700375 0.0687214 0.0665726 0.0638735 0.0610257 0.0584523 0.0566339 
0.0705324 0.0702609 0.0688821 0.0666385 0.063834 0.0608748 0.0582143 0.0563314 0.0707098 
0.0704122 0.0689896 0.0666835 0.0638078 0.0607763 0.0580575 0.0561363 0.0709285 0.0706014 
0.0691234 0.0667392 0.0637736 0.0606508 0.0578569 0.0558905 0.0711504 0.0707936 0.069259 
0.0667955 0.0637385 0.0605244 0.0576556 0.0556453 0.0713848 0.0709972 0.0694023 0.0668546 
0.0637005 0.0603898 0.0574421 0.0553863 0.0716285 0.071209 0.0695511 0.0669156 0.0636602 
0.0602497 0.0572209 0.0551189 0.071882 0.0714294 0.069706 0.0669785 0.0636173 0.0601034 
0.0569913 0.0548424 0.0721449 0.0716584 0.0698665 0.0670432 0.0635717 0.059951 0.0567537 
0.0545574 0.0724175 0.0718959 0.070033 0.0671094 0.0635232 0.0597922 0.0565082 0.0542641 
0.0726996 0.0721421 0.0702053 0.0671771 0.0634713 0.0596268 0.0562549 0.053963 0.0729915 
0.0723973 0.0703839 0.0672462 0.0634158 0.0594544 0.0559937 0.0536544 0.0732933 0.0726618 
0.0705687 0.0673165 0.0633561 0.0592746 0.0557247 0.0533387 0.0736048 0.0729357 0.0707601 
0.0673878 0.0632917 0.0590871 0.0554481 0.0530165 0.073926 0.0732194 0.0709582 0.0674598 
0.0632219 0.0588913 0.055164 0.0526886 0.0742566 0.0735131 0.0711633 0.0675323 0.0631461 
0.0586868 0.0548728 0.052356 0.0745959 0.073817 0.0713755 0.0676049 0.0630632 0.0584731 
0.0545753 0.0520198 0.0749428 0.0741313 0.0715949 0.067677 0.0629725 0.0582499 0.0542724 
0.0516819 0.0752956 0.0744558 0.0718214 0.0677478 0.0628727 0.0580169 0.0539657 0.0513444 
0.0756517 0.0747902 0.0720547 0.0678165 0.0627628 0.0577742 0.0536577 0.0510102 0.0760069 
0.0751337 0.0722938 0.0678818 0.0626415 0.0575223 0.0533519 0.0506832 0.0763552 0.0754849 
0.0725374 0.0679418 0.0625075 0.0572623 0.0530537 0.0503685 0.0766877 0.0758413 0.0727826 
0.0679943 0.0623599 0.0569964 0.0527711 0.0500731 0.0769913 0.0761988 0.073025 0.0680357 
0.062198 0.0567285 0.0525157 0.0498067 0.0772473 0.0765508 0.0732573 0.0680612 0.0620214 
0.0564645 0.0523042 0.0495831 0.0774308 0.0768881 0.0734692 0.068065 0.061832 0.0562144 
0.0521612 0.0494227 0.077501 0.0771906 0.073641 0.0680364 0.0616332 0.0559931 0.0521219 
0.049357 0.0773942 0.0774165 0.0737298 0.067944 0.0614135 0.0558153 0.0522305 0.0494362 
0.0771325 0.0776007 0.0737651 0.067821 0.0612245 0.0557296 0.0525506 0.0497401 0.0766418 
0.0776845 0.0737385 0.0677107 0.0611475 0.0558596 0.0532469 0.0504745 0.0745974 0.0761908 
0.072214 0.0663797 0.0602878 0.055704 0.0541885 0.0518597 0.0741344 0.0759216 0.0717761 
0.0660702 0.0602991 0.0561935 0.0553487 0.053722 0.0905502 0.0936362 0.0903887 0.0827544 
0.0734509 0.0659164 0.062116 0.0595528 0.142746 0.150948 0.153585 0.141629 0.119991 
0.098023 0.0837062 0.076275 0.229289 0.230637 0.230485 0.218529 0.192731 0.152799 
0.119057 0.103457 0.294454 0.275282 0.25502 0.243538 0.234589 0.207684 0.159537 
0.132139 0.290685 0.265901 0.242867 0.231201 0.23196 0.233256 0.191794 0.15539 
0.264097 0.244235 0.227133 0.216354 0.216181 0.227658 0.204985 0.169908 0.241717 
0.228452 0.216432 0.208375 0.206053 0.210188 0.201156 0.167456 0.21716 0.213227 
0.202058 0.194103 0.192632 0.198021 0.185593 0.153707 0.207675 0.198065 0.185777 
0.175761 0.170596 0.178232 0.171598 0.140459 0.201119 0.187079 0.172091 0.156795 
0.150447 0.153076 0.15056 0.125939 0.185903 0.173729 0.157407 0.140717 0.128924 
0.126307 0.123883 0.106141 0.172456 0.160806 0.142528 0.12456 0.109138 0.101054 
0.0928858 0.0846364 0.162005 0.150546 0.131959 0.111 0.092097 0.0818015 0.0714926 
0.0671963 0.153284 0.142248 0.124267 0.102651 0.0782846 0.0648859 0.0613618 0.0586725 
0.144615 0.13376 0.117677 0.0939971 0.064502 0.0534987 0.0531709 0.0555003 0.138123 
0.128493 0.114171 0.0879022 0.0492231 0.047149 0.0523406 0.0572207 0.134409 0.125302 
0.113036 0.0868071 0.0331832 0.0418776 0.0479795 0.0526336 0.131442 0.125621 0.114242 
0.0940535 0.0519447 0.070425 0.0825174 0.0834924 
Vel_Mag_m_p_s 1 608 float
0.271426 0.275496 0.275934 0.277717 0.237835 0.178431 0.161236 0.157341 0.284238 
0.273987 0.256859 0.241782 0.195256 0.171502 0.157667 0.152799 0.305654 0.300718 
0.289373 0.274158 0.253273 0.239324 0.226221 0.222953 0.303468 0.308691 0.310036 
0.302604 0.288755 0.272579 0.255151 0.248019 0.300538 0.303521 0.305911 0.30429 
0.295696 0.285915 0.273312 0.266088 0.296984 0.299839 0.300032 0.297328 0.291694 
0.285303 0.277816 0.273138 0.293984 0.296892 0.297179 0.295459 0.291867 0.287632 
0.282479 0.278336 0.291869 0.294798 0.295174 0.294002 0.291632 0.288758 0.285094 
0.281369 0.290394 0.293342 0.293919 0.293222 0.291662 0.289662 0.286887 0.283412 
0.289396 0.29234 0.293073 0.292702 0.291669 0.290239 0.288036 0.284744 0.288744 
0.291662 0.292498 0.292347 0.291662 0.290614 0.288798 0.285649 0.288334 0.291206 
0.292092 0.292079 0.291625 0.290839 0.289301 0.286277 0.288095 0.290901 0.291794 
0.291862 0.29156 0.290962 0.289636 0.286731 0.287977 0.290699 0.291564 0.291672 
0.291472 0.291013 0.28986 0.287073 0.287945 0.290566 0.291377 0.291497 0.291365 
0.291013 0.290011 0.287348 0.287976 0.290477 0.291216 0.29133 0.291243 0.290977 
0.290112 0.287584 0.288056 0.290418 0.29107 0.291165 0.291108 0.290913 0.290179 
0.287799 0.288174 0.290376 0.29093 0.291001 0.290964 0.290828 0.290221 0.288008 
0.288326 0.290342 0.290791 0.290834 0.290811 0.290727 0.290243 0.28822 0.288509 
0.290309 0.290651 0.290666 0.290651 0.29061 0.290247 0.288443 0.288721 0.290272 
0.290506 0.290497 0.290488 0.290482 0.290234 0.288681 0.28896 0.290223 0.290357 
0.290328 0.290323 0.290344 0.290202 0.288938 0.289227 0.290155 0.290202 0.290163 
0.29016 0.290195 0.290145 0.289216 0.289509 0.290061 0.290044 0.290009 0.290008 
0.290042 0.290057 0.289505 0.28974 0.289967 0.289935 0.289915 0.289915 0.289934 
0.289966 0.289739 0.289143 0.294982 0.291899 0.263534 0.0132192 0.0104463 0.00928405 
0.00868696 0.176033 0.175464 0.172167 0.166784 0.160022 0.152888 0.146441 0.141885 
0.176705 0.176025 0.172571 0.16695 0.159923 0.15251 0.145845 0.141127 0.17715 
0.176404 0.17284 0.167063 0.159858 0.152264 0.145452 0.140639 0.177698 0.176879 
0.173176 0.167203 0.159773 0.15195 0.14495 0.140024 0.178255 0.177361 0.173516 
0.167345 0.159686 0.151634 0.144446 0.13941 0.178843 0.177872 0.173876 0.167493 
0.159591 0.151297 0.143912 0.138761 0.179454 0.178403 0.174249 0.167647 0.159491 
0.150946 0.143358 0.138092 0.180089 0.178956 0.174638 0.167805 0.159384 0.15058 
0.142783 0.1374 0.180749 0.17953 0.175041 0.167967 0.15927 0.150199 0.142188 
0.136686 0.181432 0.180126 0.175458 0.168134 0.159149 0.149801 0.141574 0.135952 
0.182139 0.180743 0.175891 0.168304 0.159019 0.149387 0.140939 0.135198 0.182871 
0.181383 0.176338 0.168477 0.158881 0.148956 0.140285 0.134425 0.183628 0.182046 
0.176802 0.168654 0.158731 0.148506 0.139612 0.133634 0.184409 0.182733 0.177282 
0.168833 0.15857 0.148036 0.138919 0.132827 0.185214 0.183444 0.177779 0.169014 
0.158396 0.147546 0.138208 0.132006 0.186043 0.18418 0.178293 0.169196 0.158206 
0.147034 0.137479 0.131173 0.186893 0.184942 0.178825 0.169378 0.157999 0.146499 
0.136733 0.130331 0.187763 0.18573 0.179375 0.169559 0.157772 0.14594 0.135975 
0.129485 0.188647 0.186543 0.179943 0.169737 0.157523 0.145357 0.135207 0.128639 
0.18954 0.187382 0.180528 0.169909 0.157247 0.144749 0.134435 0.127802 0.19043 
0.188243 0.181127 0.170073 0.156944 0.144118 0.133669 0.126983 0.191304 0.189123 
0.181738 0.170224 0.156608 0.143467 0.132922 0.126195 0.192138 0.190017 0.182353 
0.170356 0.156239 0.142801 0.132214 0.125454 0.192899 0.190914 0.182961 0.17046 
0.155833 0.142129 0.131574 0.124787 0.193542 0.191797 0.183544 0.170524 0.155391 
0.141468 0.131044 0.124226 0.194004 0.192644 0.184076 0.170534 0.154916 0.140841 
0.130685 0.123824 0.194182 0.193404 0.184508 0.170464 0.154418 0.140286 0.130586 
0.123658 0.193919 0.193974 0.184733 0.170234 0.153868 0.13984 0.130857 0.123855 
0.193268 0.19444 0.184824 0.169927 0.153395 0.139624 0.131657 0.124614 0.192045 
0.194658 0.184762 0.169653 0.153201 0.139947 0.133398 0.12645 0.186949 0.190948 
0.180968 0.166336 0.151057 0.139559 0.135754 0.129913 0.185766 0.190259 0.179857 
0.16555 0.151077 0.140779 0.138658 0.134572 0.216996 0.223071 0.215015 0.197097 
0.176601 0.160745 0.154011 0.149462 0.301847 0.311326 0.312632 0.290014 0.252706 
0.215617 0.194352 0.186311 0.411051 0.408104 0.399251 0.375694 0.339392 0.288387 
0.246658 0.235139 0.460169 0.443451 0.420102 0.396658 0.374209 0.341849 0.293624 
0.275554 0.442766 0.428251 0.407217 0.384705 0.367746 0.356062 0.320382 0.301081 
0.419169 0.409427 0.394377 0.37397 0.353596 0.341549 0.324799 0.308244 0.39885 
0.397213 0.385115 0.366679 0.345116 0.323688 0.30794 0.292784 0.379431 0.381099 
0.369495 0.350784 0.327641 0.307891 0.285155 0.266947 0.375274 0.368732 0.353269 
0.329352 0.303152 0.281598 0.262262 0.243652 0.368347 0.359212 0.339538 0.308996 
0.278197 0.250881 0.232525 0.216236 0.352956 0.345233 0.322768 0.289628 0.249915 
0.216036 0.19579 0.183225 0.340142 0.331891 0.306547 0.267998 0.222087 0.182628 
0.155497 0.148312 0.331408 0.323043 0.296286 0.251298 0.195525 0.152837 0.128106 
0.121296 0.323681 0.315163 0.289113 0.239823 0.172397 0.126454 0.11099 0.109032 
0.315206 0.307542 0.282813 0.225874 0.144641 0.106234 0.0982598 0.103128 0.309727 
0.303205 0.281083 0.218097 0.113911 0.0957601 0.0980589 0.106836 0.305695 0.301204 
0.28189 0.215695 0.0779804 0.0872236 0.0907983 0.0955069 0.300835 0.302101 0.286595 
0.235515 0.120831 0.14693 0.156638 0.156618 
Water_Depth_m 1 608 float
0.494443 0.552622 0.598101 0.63675 0.632953 0.58455 0.498553 0.410274 0.440465 
0.502098 0.570421 0.586003 0.57729 0.536884 0.463504 0.405484 0.36318 0.419576 
0.480537 0.50389 0.505072 0.463436 0.409767 0.370413 0.359288 0.361325 0.381496 
0.401738 0.399693 0.39625 0.380659 0.360722 0.356581 0.356563 0.356612 0.356466 
0.356657 0.356918 0.357173 0.357354 0.355596 0.355604 0.355643 0.355714 0.355851 
0.35598 0.356132 0.356156 0.355705 0.355711 0.355753 0.355812 0.355902 0.355984 
0.356074 0.356086 0.355792 0.355797 0.355829 0.355869 0.355928 0.355981 0.356037 
0.356044 0.355862 0.355866 0.355889 0.355918 0.355957 0.355991 0.356026 0.356031 
0.35592 0.355923 0.35594 0.355959 0.355985 0.356007 0.35603 0.356033 0.35597 
0.355972 0.355983 0.355997 0.356014 0.356028 0.356043 0.356045 0.356014 0.356015 
0.356023 0.356032 0.356043 0.356053 0.356062 0.356064 0.356054 0.356055 0.35606 
0.356066 0.356074 0.35608 0.356086 0.356087 0.356091 0.356092 0.356095 0.356099 
0.356104 0.356108 0.356113 0.356113 0.356126 0.356127 0.356129 0.356132 0.356135 
0.356138 0.356141 0.356141 0.35616 0.356161 0.356163 0.356164 0.356167 0.356168 
0.35617 0.35617 0.356194 0.356194 0.356195 0.356197 0.356198 0.356199 0.356201 
0.3562 0.356227 0.356227 0.356228 0.356229 0.35623 0.35623 0.356232 0.356231 
0.356259 0.35626 0.35626 0.356261 0.356261 0.356262 0.356263 0.356262 0.356291 
0.356292 0.356292 0.356292 0.356293 0.356293 0.356294 0.356293 0.356324 0.356324 
0.356324 0.356324 0.356324 0.356325 0.356326 0.356325 0.356356 0.356357 0.356356 
0.356356 0.356356 0.356356 0.356357 0.356357 0.356388 0.356389 0.356387 0.356387 
0.356387 0.356388 0.356389 0.356389 0.356422 0.356421 0.356419 0.356418 0.356418 
0.356419 0.356421 0.356423 0.35646 0.356451 0.356447 0.356445 0.356445 0.356447 
0.356451 0.356461 0.523624 0.57138 0.638324 0.640363 0.62711 0.517828 0.423004 
0.370188 0.639995 0.639996 0.639998 0.640001 0.640003 0.640006 0.640008 0.640009 
0.640005 0.640006 0.640006 0.640007 0.640007 0.640007 0.640007 0.640008 0.640008 
0.64001 0.64001 0.640011 0.640011 0.640012 0.640012 0.640013 0.640013 0.640015 
0.640014 0.640015 0.640015 0.640016 0.640016 0.640017 0.640018 0.640019 0.640019 
0.640019 0.640019 0.64002 0.64002 0.640021 0.640022 0.640023 0.640023 0.640024 
0.640023 0.640024 0.640024 0.640025 0.640026 0.640027 0.640027 0.640028 0.640027 
0.640028 0.640027 0.640029 0.64003 0.640031 0.640031 0.640031 0.640031 0.640032 
0.640031 0.640033 0.640034 0.640035 0.640034 0.640035 0.640035 0.640036 0.640035 
0.640036 0.640037 0.640039 0.640038 0.640039 0.640039 0.640039 0.640039 0.64004 
0.640041 0.640043 0.640042 0.640043 0.640042 0.640043 0.640042 0.640044 0.640044 
0.640046 0.640045 0.640046 0.640046 0.640046 0.640045 0.640047 0.640048 0.64005 
0.640049 0.640049 0.640049 0.64005 0.640049 0.64005 0.640051 0.640053 0.640052 
0.640053 0.640052 0.640053 0.640052 0.640053 0.640054 0.640056 0.640055 0.640056 