# vtk DataFile Version 5.1
vtk output
ASCII
DATASET UNSTRUCTURED_GRID
POINTS 9424 double
0.1016 1.5 0.1439999938 0.1016 1.45 0.16599999368 0.1016 1.4 0.15700000525 
0.1016 1.35 0.13199999928 0.1016 1.3 0.10700000077 0.1016 1.25 0.090000003576 
0.1016 1.2 0.075999997556 0.1016 1.15 0.059999998659 0.1016 1.1 0.0270000007 
0.1016 1.05 0 0.1016 1 -1.4520933349e-19 0.1016 0.95 -1.9172115972e-20 
0.1016 0.9 -1.9935036607e-21 0.1016 0.85 1.2043517074e-19 0.1016 0.8 2.5499320644e-20 
0.1016 0.75 -2.7692611041e-19 0.1016 0.7 0.0017266095383 0.1016 0.65 0.006275348831 
0.1016 0.6 0.015275382437 0.1016 0.55 0.034349132329 0.1016 0.5 0.057032302022 
0.1016 0.45 0.069950312376 0.1016 0.4 0.088548511267 0.1016 0.35 0.1118433848 
0.1016 0.3 0.13683372736 0.1016 0.25 0.16178821027 0.1016 0.2 0.18516084552 
0.1016 0.15 0.20709982514 0.1016 0.1 0.23110230267 0.1016 0.05 0.2536047399 
0.1016 0 0.2658187151 5.08 1.5 0.28700000048 5.08 1.45 0.28700000048 
5.08 1.4 0.28700000048 5.08 1.35 0.28700000048 5.08 1.3 0.28700000048 
5.08 1.25 0.28700000048 5.08 1.2 0.28700000048 5.08 1.15 0.28700000048 
5.08 1.1 0.28700000048 5.08 1.05 0.28700000048 5.08 1 0.28700000048 
5.08 0.95 0.28700000048 5.08 0.9 0.28700000048 5.08 0.85 0.28700000048 
5.08 0.8 0.28700000048 5.08 0.75 0.28700000048 5.08 0.7 0.28700000048 
5.08 0.65 0.28700000048 5.08 0.6 0.28700000048 5.08 0.55 0.28700000048 
5.08 0.5 0.28700000048 5.08 0.45 0.28700000048 5.08 0.4 0.28700000048 
5.08 0.35 0.28700000048 5.08 0.3 0.28700000048 5.08 0.25 0.28700000048 
5.08 0.2 0.28700000048 5.08 0.15 0.28700000048 5.08 0.1 0.28700000048 
5.08 0.05 0.28700000048 5.08 0 0.28700000048 0.151384 1.5 0.1567479223 
0.151384 1.45 0.17286509275 0.151384 1.4 0.17073737085 0.151384 1.35 0.14572574198 
0.151384 1.3 0.11582919955 0.151384 1.25 0.092948384583 0.151384 1.2 0.07700818032 
0.151384 1.15 0.068851865828 0.151384 1.1 0.049543965608 0.151384 1.05 0.021516673267 
0.151384 1 -3.315127833e-05 0.151384 0.95 7.8876604448e-07 0.151384 0.9 1.059683018e-05 
0.151384 0.85 9.8040231933e-07 0.151384 0.8 -2.1849093628e-06 0.151384 0.75 -3.5226723867e-06 
0.151384 0.7 1.8499395082e-05 0.151384 0.65 7.9339341028e-05 0.151384 0.6 0.00023758161115 
0.151384 0.55 0.014358749613 0.151384 0.5 0.042242851108 0.151384 0.45 0.043471399695 
0.151384 0.4 0.067320547998 0.151384 0.35 0.092297673225 0.151384 0.3 0.11927485466 
0.151384 0.25 0.14625304937 0.151384 0.2 0.17221662402 0.151384 0.15 0.19618578255 
0.151384 0.1 0.22608478367 0.151384 0.05 0.25985249877 0.151384 0 0.27087309957 
0.201168 1.5 0.16561856866 0.201168 1.45 0.17871999741 0.201168 1.4 0.17676354945 
0.201168 1.35 0.15559522808 0.201168 1.3 0.11983888596 0.201168 1.25 0.094892024994 
0.201168 1.2 0.078920572996 0.201168 1.15 0.070950694382 0.201168 1.1 0.057784538716 
0.201168 1.05 0.041227802634 0.201168 1 0.013341243379 0.201168 0.95 0.00081337126903 
0.201168 0.9 -9.6729381767e-05 0.201168 0.85 4.3826066758e-06 0.201168 0.8 2.196150308e-05 
0.201168 0.75 1.559098564e-05 0.201168 0.7 8.7562120825e-06 0.201168 0.65 -2.372284689e-05 
0.201168 0.6 0.00089719501557 0.201168 0.55 0.010063622147 0.201168 0.5 0.024555742741 
0.201168 0.45 0.041900422424 0.201168 0.4 0.064939498901 0.201168 0.35 0.092852219939 
0.201168 0.3 0.11602818966 0.201168 0.25 0.14302745461 0.201168 0.2 0.16709972918 
0.201168 0.15 0.19493468106 0.201168 0.1 0.22787478566 0.201168 0.05 0.26000612974 
0.201168 0 0.28352585435 0.250952 1.5 0.18197776377 0.250952 1.45 0.19118845463 
0.250952 1.4 0.18549700081 0.250952 1.35 0.16912814975 0.250952 1.3 0.13124585152 
0.250952 1.25 0.10149205476 0.250952 1.2 0.082699075341 0.250952 1.15 0.071913905442 
0.250952 1.1 0.063713997602 0.250952 1.05 0.053379669785 0.250952 1 0.037508849055 
0.250952 0.95 0.021492445841 0.250952 0.9 0.01854711771 0.250952 0.85 -0.00016757083358 
0.250952 0.8 -0.00013697004761 0.250952 0.75 -9.2888512881e-05 0.250952 0.7 -9.8218530184e-05 
0.250952 0.65 -9.6964897239e-05 0.250952 0.6 0.00091851141769 0.250952 0.55 0.013585589826 
0.250952 0.5 0.031274244189 0.250952 0.45 0.049358397722 0.250952 0.4 0.068670272827 
0.250952 0.35 0.094783261418 0.250952 0.3 0.11963667721 0.250952 0.25 0.14563524723 
0.250952 0.2 0.17340396345 0.250952 0.15 0.20428460836 0.250952 0.1 0.23357948661 
0.250952 0.05 0.26278209686 0.250952 0 0.28313687444 0.300736 1.5 0.19399508834 
0.300736 1.45 0.20023547113 0.300736 1.4 0.18880701065 0.300736 1.35 0.17733044922 
0.300736 1.3 0.14392086864 0.300736 1.25 0.11291036755 0.300736 1.2 0.093017399311 
0.300736 1.15 0.074714794755 0.300736 1.1 0.063125863671 0.300736 1.05 0.056883025914 
0.300736 1 0.049352236092 0.300736 0.95 0.048999961466 0.300736 0.9 0.037454549223 
0.300736 0.85 0.024520553648 0.300736 0.8 0.014218471944 0.300736 0.75 0.013365014456 
0.300736 0.7 0.013428580947 0.300736 0.65 0.012509510852 0.300736 0.6 0.016264114529 
0.300736 0.55 0.030294796452 0.300736 0.5 0.046519454569 0.300736 0.45 0.068144336343 
0.300736 0.4 0.084360465407 0.300736 0.35 0.10757743567 0.300736 0.3 0.13541725278 
0.300736 0.25 0.16240039468 0.300736 0.2 0.19048757851 0.300736 0.15 0.2160332799 
0.300736 0.1 0.24226686358 0.300736 0.05 0.26937404275 0.300736 0 0.28301364183 
0.35052 1.5 0.21993134916 0.35052 1.45 0.21074354649 0.35052 1.4 0.20069882274 
0.35052 1.35 0.18513572216 0.35052 1.3 0.16299076378 0.35052 1.25 0.1328061223 
0.35052 1.2 0.10550812632 0.35052 1.15 0.082031287253 0.35052 1.1 0.065586566925 
0.35052 1.05 0.056990623474 0.35052 1 0.056517597288 0.35052 0.95 0.054931458086 
0.35052 0.9 0.054607693106 0.35052 0.85 0.05337350443 0.35052 0.8 0.050241623074 
0.35052 0.75 0.045401591808 0.35052 0.7 0.041764829308 0.35052 0.65 0.038181420416 
0.35052 0.6 0.049359682947 0.35052 0.55 0.053449429572 0.35052 0.5 0.075672745705 
0.35052 0.45 0.094206869602 0.35052 0.4 0.11205533147 0.35052 0.35 0.13232547045 
0.35052 0.3 0.15671758354 0.35052 0.25 0.18109157681 0.35052 0.2 0.20635579526 
0.35052 0.15 0.22770810127 0.35052 0.1 0.2528437674 0.35052 0.05 0.2771576643 
0.35052 0 0.27940580249 0.400304 1.5 0.25204959512 0.400304 1.45 0.22509554029 
0.400304 1.4 0.20716628432 0.400304 1.35 0.1947825104 0.400304 1.3 0.17563907802 
0.400304 1.25 0.15354906023 0.400304 1.2 0.12714186311 0.400304 1.15 0.096911147237 
0.400304 1.1 0.071960628033 0.400304 1.05 0.060326248407 0.400304 1 0.054314594716 
0.400304 0.95 0.055935770273 0.400304 0.9 0.058099273592 0.400304 0.85 0.061934642494 
0.400304 0.8 0.06638301909 0.400304 0.75 0.073563411832 0.400304 0.7 0.06918977201 
0.400304 0.65 0.065876871347 0.400304 0.6 0.074191533029 0.400304 0.55 0.084406323731 
0.400304 0.5 0.10563553125 0.400304 0.45 0.11836013198 0.400304 0.4 0.13537698984 
0.400304 0.35 0.15452240407 0.400304 0.3 0.17936818302 0.400304 0.25 0.20155282319 
0.400304 0.2 0.225516662 0.400304 0.15 0.24568809569 0.400304 0.1 0.26810437441 
0.400304 0.05 0.28067526221 0.400304 0 0.28164991736 0.450088 1.5 0.27532985806 
0.450088 1.45 0.24766290188 0.450088 1.4 0.22488152981 0.450088 1.35 0.20526823401 
0.450088 1.3 0.19068862498 0.450088 1.25 0.17153072357 0.450088 1.2 0.14720769227 
0.450088 1.15 0.11596622318 0.450088 1.1 0.088109925389 0.450088 1.05 0.073329091072 
0.450088 1 0.061301834881 0.450088 0.95 0.058133840561 0.450088 0.9 0.056976977736 
0.450088 0.85 0.058463647962 0.450088 0.8 0.059413637966 0.450088 0.75 0.069595433772 
0.450088 0.7 0.078614637256 0.450088 0.65 0.086750224233 0.450088 0.6 0.097102992237 
0.450088 0.55 0.10639892519 0.450088 0.5 0.12029942125 0.450088 0.45 0.13905635476 
0.450088 0.4 0.15688975155 0.450088 0.35 0.17588445544 0.450088 0.3 0.19478820264 
0.450088 0.25 0.2194506973 0.450088 0.2 0.24432092905 0.450088 0.15 0.26188328862 
0.450088 0.1 0.27877542377 0.450088 0.05 0.2811152637 0.450088 0 0.28121048212 
0.499872 1.5 0.28093001246 0.499872 1.45 0.26895985007 0.499872 1.4 0.24557968974 
0.499872 1.35 0.22204914689 0.499872 1.3 0.20475672185 0.499872 1.25 0.18913467228 
0.499872 1.2 0.16759927571 0.499872 1.15 0.14318850636 0.499872 1.1 0.11431179196 
0.499872 1.05 0.10151998699 0.499872 1 0.078661836684 0.499872 0.95 0.07907731086 
0.499872 0.9 0.066150352359 0.499872 0.85 0.064533278346 0.499872 0.8 0.06694290787 
0.499872 0.75 0.067907102406 0.499872 0.7 0.081052526832 0.499872 0.65 0.09312158078 
0.499872 0.6 0.10833848268 0.499872 0.55 0.12406221777 0.499872 0.5 0.14032669365 
0.499872 0.45 0.16283677518 0.499872 0.4 0.17921827734 0.499872 0.35 0.19811299443 
0.499872 0.3 0.22109375894 0.499872 0.25 0.24196755886 0.499872 0.2 0.26218613982 
0.499872 0.15 0.27862411737 0.499872 0.1 0.28106892109 0.499872 0.05 0.28105315566 
0.499872 0 0.28098458052 0.549656 1.5 0.28194096684 0.549656 1.45 0.27982598543 
0.549656 1.4 0.26969575882 0.549656 1.35 0.24034294486 0.549656 1.3 0.2213806957 
0.549656 1.25 0.2057915777 0.549656 1.2 0.18980820477 0.549656 1.15 0.1675965488 
0.549656 1.1 0.14790244401 0.549656 1.05 0.1315792501 0.549656 1 0.10592649877 
0.549656 0.95 0.11231791973 0.549656 0.9 0.10229380429 0.549656 0.85 0.093455515802 
0.549656 0.8 0.098017551005 0.549656 0.75 0.092814289033 0.549656 0.7 0.098240911961 
0.549656 0.65 0.11210730672 0.549656 0.6 0.13140699267 0.549656 0.55 0.14442101121 
0.549656 0.5 0.16404305398 0.549656 0.45 0.18717969954 0.549656 0.4 0.20648564398 
0.549656 0.35 0.22647382319 0.549656 0.3 0.24663420022 0.549656 0.25 0.26602104306 
0.549656 0.2 0.27693924308 0.549656 0.15 0.27970176935 0.549656 0.1 0.28026017547 
0.549656 0.05 0.28016328812 0.549656 0 0.28018698096 0.59944 1.5 0.28204590082 
0.59944 1.45 0.28057417274 0.59944 1.4 0.27947312593 0.59944 1.35 0.26847994328 
0.59944 1.3 0.24638035893 0.59944 1.25 0.22713595629 0.59944 1.2 0.21167001128 
0.59944 1.15 0.19623626769 0.59944 1.1 0.17745691538 0.59944 1.05 0.1536591202 
0.59944 1 0.13844637573 0.59944 0.95 0.14289885759 0.59944 0.9 0.13580177724 
0.59944 0.85 0.13281977177 0.59944 0.8 0.1312892884 0.59944 0.75 0.13088361919 
0.59944 0.7 0.13225881755 0.59944 0.65 0.14174735546 0.59944 0.6 0.16041781008 
[...]
CELL_DATA 9090
FIELD FieldData 7
B_Stress_n_p_m2 1 9090 float
0.406323 0.418566 0.423387 0.42334 0.424743 0.428725 0.434964 0.438878 0.436112 
0.427521 0.419574 0.408202 0.389498 0.360931 0.315097 0.233285 0.166082 0.123293 
0.0979492 0.0810383 0.0682581 0.0590614 0.0526174 0.047817 0.0441611 0.0413411 0.0395883 
0.0391019 0.039664 0.0395865 0.394348 0.405556 0.411357 0.407629 0.404581 0.405254 
0.409059 0.414123 0.41509 0.406608 0.392462 0.379697 0.359948 0.332729 0.291447 
0.231792 0.17875 0.140067 0.113343 0.0941839 0.0794405 0.0676054 0.0594026 0.0525602 
0.0470114 0.0426353 0.0397218 0.0381713 0.0376358 0.0375057 0.383894 0.394114 0.398968 
0.393889 0.386235 0.383803 0.384379 0.386625 0.386939 0.382553 0.37019 0.352919 
0.329953 0.302019 0.266513 0.223319 0.182767 0.150093 0.125744 0.10716 0.0923097 
0.0809927 0.0723211 0.0653329 0.0596537 0.0556823 0.0531596 0.052149 0.0520083 0.0520102 
0.374312 0.385437 0.38844 0.384764 0.374887 0.368113 0.363977 0.36129 0.359366 
0.356092 0.348575 0.332439 0.310969 0.282091 0.251644 0.217502 0.184662 0.157414 
0.135764 0.119357 0.105878 0.0948972 0.086272 0.0796672 0.0745703 0.0710924 0.0691139 
0.0687874 0.0691195 0.0692744 0.371314 0.381944 0.382378 0.379763 0.370445 0.359479 
0.350033 0.341395 0.335106 0.330298 0.323326 0.31304 0.295377 0.273682 0.247467 
0.218714 0.191066 0.167761 0.148937 0.134695 0.122122 0.111997 0.103657 0.0975314 
0.0930736 0.0901158 0.0886752 0.0888084 0.0893696 0.0896957 0.388945 0.387216 0.383512 
0.378425 0.37083 0.358059 0.342667 0.328528 0.317891 0.308956 0.300903 0.290345 
0.277698 0.262376 0.243938 0.221512 0.199333 0.179981 0.164843 0.151459 0.140757 
0.131249 0.123815 0.118303 0.114764 0.11296 0.112532 0.113018 0.112835 0.113276 
0.425873 0.40726 0.391801 0.383229 0.373816 0.360679 0.343542 0.325602 0.311382 
0.298328 0.286364 0.273621 0.26081 0.247382 0.233324 0.219418 0.204292 0.190476 
0.178556 0.168185 0.159875 0.15171 0.145747 0.141656 0.139985 0.140029 0.140862 
0.140327 0.138322 0.137003 0.462001 0.43892 0.413477 0.395224 0.383098 0.369381 
0.352463 0.334266 0.318231 0.30174 0.287509 0.271534 0.256494 0.243215 0.22946 
0.218422 0.209213 0.201331 0.193615 0.187089 0.181823 0.177406 0.173873 0.172147 
0.171669 0.172246 0.171767 0.167966 0.163124 0.15971 0.47976 0.471469 0.447702 
0.420563 0.40067 0.385627 0.36922 0.352617 0.3344 0.317849 0.302182 0.287299 
0.270332 0.256348 0.243432 0.231818 0.224946 0.22062 0.217147 0.215184 0.213722 
0.2135 0.211908 0.211331 0.210576 0.207012 0.200806 0.193514 0.185342 0.181016 
0.483036 0.486767 0.483853 0.460598 0.433403 0.410764 0.393276 0.375281 0.356645 
0.339889 0.325247 0.313125 0.298347 0.283259 0.271353 0.260089 0.253124 0.250674 
0.251384 0.251911 0.251858 0.252435 0.252051 0.250447 0.245391 0.236487 0.225299 
0.214385 0.206 0.201466 0.482579 0.48774 0.495348 0.495955 0.47718 0.449884 
0.425514 0.404633 0.384989 0.366457 0.353611 0.343491 0.331354 0.318906 0.306232 
0.296596 0.288895 0.283751 0.282583 0.282771 0.281384 0.276714 0.275199 0.270972 
0.265404 0.255709 0.243862 0.23377 0.226153 0.221642 0.48433 0.489112 0.495482 
0.503713 0.507655 0.49547 0.472122 0.446802 0.423597 0.404546 0.389282 0.378282 
0.368851 0.3603 0.34983 0.340196 0.33006 0.319492 0.309867 0.302523 0.297658 
0.289967 0.283938 0.279587 0.275169 0.269239 0.260715 0.252302 0.245382 0.240777 
0.486787 0.492509 0.498022 0.504347 0.512507 0.518044 0.51462 0.498767 0.477134 
0.455756 0.44192 0.427147 0.417044 0.410445 0.403561 0.39337 0.379605 0.364513 
0.347744 0.330258 0.31817 0.311609 0.304699 0.298763 0.292407 0.285343 0.278177 
0.269778 0.262822 0.257934 0.487395 0.494087 0.499997 0.505571 0.511591 0.519128 
0.526094 0.529131 0.523223 0.511065 0.497556 0.488318 0.47607 0.465871 0.45787 
0.446966 0.433442 0.415768 0.397935 0.379404 0.359514 0.347451 0.339744 0.329946 
0.318371 0.307244 0.295994 0.286674 0.279632 0.274659 0.489937 0.496237 0.502754 
0.508932 0.514883 0.521065 0.527309 0.53453 0.540355 0.541925 0.536322 0.530199 
0.521556 0.510525 0.498164 0.48527 0.471811 0.457503 0.442621 0.426683 0.408978 
0.391399 0.375271 0.361156 0.34434 0.329231 0.31617 0.306417 0.299031 0.294348 
0.49789 0.503676 0.510252 0.516776 0.522922 0.528711 0.533977 0.538862 0.543892 
0.547861 0.548463 0.544251 0.537984 0.528857 0.516959 0.504143 0.491026 0.478446 
0.465026 0.450906 0.436896 0.420545 0.402144 0.384085 0.366916 0.35164 0.339171 
0.329251 0.321566 0.317079 0.503888 0.509229 0.51545 0.52153 0.527127 0.532128 
0.536556 0.540138 0.542801 0.544349 0.544267 0.540986 0.535167 0.527215 0.517486 
0.506527 0.49485 0.482731 0.470046 0.457019 0.44372 0.429528 0.414113 0.397704 
0.382873 0.369533 0.35808 0.348478 0.340914 0.336623 0.502558 0.507892 0.513705 
0.519146 0.523993 0.528185 0.531667 0.5343 0.535919 0.536249 0.534935 0.53155 
0.526277 0.5193 0.510874 0.501355 0.491062 0.480187 0.468756 0.456863 0.444554 
0.431732 0.41847 0.405066 0.392359 0.380671 0.370334 0.361464 0.354275 0.349826 
0.498743 0.504476 0.509979 0.514932 0.519214 0.522776 0.525559 0.527465 0.528369 
0.528083 0.52639 0.523117 0.518331 0.512151 0.504758 0.496391 0.48727 0.477551 
0.46731 0.456631 0.445575 0.434167 0.422537 0.410952 0.399836 0.389482 0.380142 
0.371957 0.365118 0.360281 0.495129 0.501086 0.506378 0.510974 0.51483 0.517914 
0.520181 0.521566 0.521984 0.521323 0.519467 0.516334 0.511958 0.506428 0.499876 
0.492466 0.484357 0.475677 0.466516 0.456958 0.44708 0.436952 0.426699 0.416525 
0.406699 0.397446 0.388955 0.381357 0.374807 0.369737 0.491658 0.497649 0.50279 
0.50713 0.51067 0.513398 0.515294 0.51632 0.516427 0.515554 0.513645 0.510671 
0.506659 0.501679 0.495832 0.489236 0.482012 0.474264 0.46608 0.457543 0.44873 
0.439725 0.430641 0.421629 0.412872 0.404534 0.39676 0.389658 0.383354 0.378194 
0.488278 0.49424 0.499263 0.503416 0.506725 0.509198 0.510835 0.511623 0.511543 
0.510571 0.508687 0.50589 0.502214 0.497715 0.492474 0.486583 0.480134 0.473217 
0.46591 0.458289 0.450427 0.442404 0.434313 0.426271 0.418405 0.410833 0.403664 
0.396983 0.390894 0.385694 0.48502 0.490938 0.495866 0.499881 0.503024 0.505319 
0.506783 0.507423 0.507245 0.506247 0.504437 0.501833 0.498469 0.494399 0.48969 
0.484415 0.478651 0.472471 0.465945 0.459138 0.452116 0.444948 0.437709 0.430486 
0.423368 0.416442 0.409787 0.403466 0.397565 0.392339 0.481911 0.487785 0.492637 
0.496551 0.499578 0.501754 0.503108 0.503667 0.503451 0.502479 0.500775 0.498368 
0.495298 0.491615 0.487377 0.482647 0.477488 0.471962 0.466128 0.460042 0.453758 
0.447334 0.440828 0.434303 0.427821 0.421443 0.415226 0.409213 0.403474 0.398226 
0.478969 0.484804 0.489596 0.493438 0.496387 0.498487 0.49978 0.500304 0.500093 
0.499181 0.497601 0.495393 0.492599 0.489268 0.485453 0.481207 0.476584 0.471637 
0.466415 0.460964 0.455329 0.449553 0.44368 0.437754 0.431816 0.425906 0.420062 
0.414314 0.408713 0.403446 0.476209 0.482008 0.486754 0.490546 0.493444 0.495502 
0.496769 0.497292 0.497116 0.496284 0.49484 0.492827 0.490292 0.487283 0.483846 
0.480032 0.475886 0.471452 0.466771 0.46188 0.456814 0.451603 0.446279 0.440869 
0.435398 0.42989 0.424367 0.418846 0.413365 0.408079 0.473636 0.479402 0.484114 
0.487872 0.490741 0.49278 0.494045 0.494591 0.494469 0.493731 0.492427 0.490604 
0.488311 0.485595 0.482501 0.479072 0.47535 0.471371 0.467169 0.462772 0.458204 
0.453488 0.448641 0.443678 0.438611 0.43345 0.428204 0.422878 0.417499 0.412196 
0.47125 0.476987 0.481673 0.48541 0.488266 0.490303 0.491583 0.492167 0.492112 
0.491476 0.490311 0.48867 0.486603 0.484155 0.481369 0.478287 0.474942 0.471368 
0.467588 0.463626 0.459497 0.455214 0.450784 0.44621 0.441494 0.436633 0.431626 
0.426469 0.421178 0.41586 0.46905 0.474759 0.479426 0.483151 0.486005 0.488052 
0.489359 0.489991 0.49001 0.489477 0.488449 0.486981 0.485122 0.482919 0.480413 
0.477641 0.474633 0.471418 0.468014 0.464436 0.460693 0.45679 0.452724 0.44849 
0.444079 0.43948 0.434681 0.429672 0.424457 0.419124 0.467027 0.472712 0.477365 
0.481084 0.483944 0.486009 0.487351 0.488036 0.488132 0.487702 0.486806 0.4855 
0.483834 0.481854 0.4796 0.477106 0.474401 0.471504 0.468433 0.465195 0.461793 
0.458224 0.454479 0.450543 0.446399 0.442029 0.437412 0.432531 0.427383 0.422037 
0.465176 0.470838 0.47548 0.479199 0.482069 0.484158 0.485538 0.486279 0.486452 
0.486122 0.48535 0.484195 0.482707 0.480931 0.478905 0.476662 0.474225 0.471614 
0.468838 0.465901 0.462801 0.459527 0.456064 0.45239 0.448482 0.444313 0.439856 
0.435087 0.429997 0.42464 0.463486 0.469128 0.473762 0.477484 0.480366 0.482481 
0.483901 0.484699 0.484946 0.484712 0.484058 0.483042 0.481717 0.480126 0.478306 
0.476288 0.474093 0.471735 0.469223 0.466554 0.463721 0.460708 0.457494 0.454053 
0.450352 0.44636 0.442044 0.437375 0.432336 0.426969 0.461949 0.467572 0.472199 
0.475925 0.478823 0.480964 0.482423 0.483276 0.483596 0.483451 0.482906 0.48202 
0.480843 0.47942 0.477787 0.475971 0.473992 0.471861 0.469583 0.467153 0.464557 
0.461777 0.458784 0.455548 0.452032 0.448197 0.444006 0.439425 0.434431 0.429056 
0.460554 0.46616 0.470782 0.474513 0.477425 0.479592 0.48109 0.481995 0.482382 
0.482321 0.481877 0.481109 0.480068 0.478798 0.477332 0.475698 0.473913 0.471986 
0.469917 0.467699 0.465315 0.462741 0.459946 0.456893 0.453541 0.449846 0.445767 
0.441264 0.436311 0.430929 0.459292 0.464881 0.469499 0.473235 0.476161 0.478353 
0.479887 0.480841 0.48129 0.481306 0.480955 0.480295 0.479377 0.478245 0.476931 
0.47546 0.473849 0.472104 0.470223 0.468195 0.466 0.463611 0.460992 0.458103 
0.454897 0.451328 0.447349 0.442917 0.438 0.432612 0.458152 0.463726 0.46834 
0.47208 0.47502 0.477235 0.478802 0.479801 0.480307 0.480394 0.480126 0.479564 
0.478758 0.47775 0.476573 0.47525 0.473795 0.472213 0.470501 0.468643 0.466618 
0.464394 0.461933 0.459191 0.456117 0.452661 0.448772 0.444403 0.43952 0.434127 
0.457125 0.462685 0.467295 0.471039 0.473991 0.476226 0.477823 0.478862 0.47942 
0.47957 0.479379 0.478906 0.478201 0.477305 0.476251 0.475061 0.473746 0.472311 
0.47075 0.469045 0.467172 0.465097 0.462779 0.460169 0.457215 0.45386 0.450053 
0.445743 0.44089 0.435492 0.456203 0.46175 0.466355 0.470102 0.473064 0.475317 
0.47694 0.478015 0.47862 0.478827 0.478704 0.478311 0.477696 0.476902 0.475959 
0.474887 0.473699 0.472397 0.470971 0.469404 0.467668 0.465728 0.463539 0.461049 
0.458202 0.454941 0.451209 0.446951 0.442126 0.436726 0.455376 0.460911 0.465512 
0.469261 0.47223 0.474498 0.476144 0.47725 0.477895 0.478153 0.478092 0.47777 
0.477237 0.476534 0.47569 0.474726 0.473652 0.472468 0.471165 0.469722 0.468111 
0.466293 0.46422 0.461839 0.459092 0.455916 0.452251 0.448042 0.443244 0.437841 
0.454638 0.460161 0.464757 0.468506 0.471481 0.47376 0.475425 0.476558 0.477239 
0.477542 0.477535 0.477277 0.476818 0.476196 0.475442 0.474574 0.473603 0.472526 
0.471334 0.470004 0.468505 0.466797 0.464831 0.46255 0.459893 0.456795 0.453194 
0.44903 0.444256 0.438852 0.45398 0.459492 0.464082 0.46783 0.470809 0.473097 
0.474777 0.475933 0.476644 0.476986 0.477027 0.476826 0.476431 0.475883 0.47521 
0.474429 0.47355 0.47257 0.471478 0.47025 0.468854 0.467247 0.465379 0.463189 
0.460615 0.45759 0.454047 0.449926 0.445174 0.43977 0.453396 0.458897 0.463481 
0.467226 0.470206 0.4725 0.474192 0.475366 0.476103 0.476479 0.476562 0.476411 
0.476075 0.475592 0.47499 0.474288 0.473493 0.472601 0.471599 0.470464 0.469161 
0.467647 0.465868 0.463763 0.461266 0.458308 0.45482 0.450739 0.446009 0.440605 
0.452879 0.45837 0.462947 0.466688 0.469667 0.471964 0.473664 0.474853 0.475611 
0.476015 0.476135 0.476028 0.475743 0.475319 0.474782 0.47415 0.47343 0.472618 
0.471698 0.470648 0.469431 0.468002 0.466305 0.464279 0.461854 0.458959 0.455523 
0.451478 0.44677 0.441367 0.452424 0.457904 0.462475 0.46621 0.469186 0.471483 
0.473188 0.474387 0.475162 0.475591 0.475741 0.475673 0.475434 0.475061 0.474583 
0.474014 0.473362 0.472622 0.471778 0.470805 0.469666 0.468315 0.466696 0.464743 
0.462385 0.459549 0.456161 0.452153 0.447465 0.442063 0.452026 0.457496 0.462058 
0.465786 0.468757 0.471051 0.472758 0.473963 0.474752 0.4752 0.475377 0.475342 
0.475143 0.474817 0.474391 0.473879 0.473289 0.472613 0.471838 0.470936 0.46987 
0.468592 0.467043 0.465159 0.462864 0.460084 0.456743 0.452769 0.448101 0.442701 
0.451678 0.457139 0.461692 0.465412 0.468375 0.470665 0.47237 0.473579 0.474376 
0.47484 0.475039 0.475033 0.474869 0.474584 0.474204 0.473744 0.473209 0.472593 
0.471881 0.471044 0.470044 0.468834 0.467352 0.465532 0.463298 0.460571 0.457274 
0.453333 0.448685 0.443288 0.451378 0.456829 0.461373 0.465082 0.468036 0.470318 
0.472019 0.473228 0.474031 0.474507 0.474724 0.474743 0.474609 0.474361 0.474022 
0.473608 0.473124 0.472562 0.471907 0.47113 0.470193 0.469045 0.467627 0.465867 
0.46369 0.461015 0.45776 0.453851 0.449222 0.443828 0.45112 0.456562 0.461095 
0.464794 0.467736 0.470008 0.471702 0.472908 0.473714 0.474198 0.47443 0.474469 
0.474362 0.474145 0.473844 0.473472 0.473033 0.472521 0.471918 0.471197 0.470317 
0.469229 0.467869 0.466168 0.464045 0.461419 0.458206 0.454328 0.449718 0.444328 
0.450902 0.456334 0.460857 0.464542 0.467471 0.469731 0.471415 0.472616 0.473421 
0.47391 0.474153 0.474209 0.474125 0.473937 0.473669 0.473334 0.472937 0.472469 
0.471915 0.471245 0.47042 0.469387 0.468084 0.466437 0.464367 0.461788 0.458616 
0.454769 0.450177 0.444792 0.45072 0.456143 0.460653 0.464324 0.467238 0.469484 
0.471156 0.472348 0.47315 0.473641 0.473892 0.473962 0.473898 0.473734 0.473495 
0.473194 0.472835 0.472409 0.4719 0.471278 0.470502 0.469522 0.468272 0.466678 
0.464659 0.462127 0.458994 0.455177 0.450604 0.445223 0.45057 0.455984 0.460482 
0.464137 0.467034 0.469263 0.470921 0.472103 0.472898 0.473389 0.473645 0.473727 
0.473679 0.473537 0.473324 0.473053 0.472728 0.47234 0.471872 0.471294 0.470567 
0.469636 0.468437 0.466894 0.464924 0.462437 0.459343 0.455556 0.451002 0.445627 
0.450451 0.455855 0.460339 0.463978 0.466857 0.469067 0.470708 0.471877 0.472664 
0.473151 0.473411 0.4735 0.473466 0.473343 0.473153 0.47291 0.472616 0.472263 
0.471833 0.471297 0.470614 0.46973 0.46858 0.467087 0.465165 0.462722 0.459667 
0.45591 0.451375 0.446005 0.450359 0.455754 0.460224 0.463845 0.466703 0.468893 
0.470515 0.471668 0.472445 0.472927 0.473187 0.473283 0.47326 0.473153 0.472984 
0.472765 0.472499 0.472178 0.471784 0.471287 0.470646 0.469807 0.468705 0.467259 
0.465384 0.462985 0.459968 0.456241 0.451725 0.446361 0.450293 0.455678 0.460133 
0.463735 0.46657 0.468738 0.47034 0.471475 0.472239 0.472714 0.472973 0.473072 
0.473059 0.472965 0.472815 0.472618 0.472378 0.472086 0.471725 0.471264 0.470664 
0.469868 0.468811 0.467413 0.465584 0.463228 0.460249 0.456552 0.452056 0.446699 
0.45025 0.455626 0.460065 0.463646 0.466458 0.468601 0.47018 0.471296 0.472045 
0.472512 0.472766 0.472868 0.472862 0.47278 0.472646 0.472469 0.472252 0.471988 
0.471657 0.471231 0.470669 0.469915 0.468902 0.467549 0.465766 0.463454 0.460512 
0.456846 0.452369 0.447019 0.450229 0.455594 0.460017 0.463576 0.466363 0.46848 
0.470034 0.47113 0.471862 0.472318 0.472567 0.472669 0.472669 0.472597 0.472477 
0.472318 0.472123 0.471883 0.471581 0.471188 0.470662 0.469948 0.468978 0.467671 
0.465932 0.463663 0.46076 0.457124 0.452668 0.447325 0.450228 0.455583 0.459988 
0.463524 0.466284 0.468373 0.469901 0.470974 0.471689 0.472131 0.472374 0.472475 
0.472478 0.472415 0.472307 0.472165 0.471989 0.471773 0.471498 0.471135 0.470644 
0.469969 0.469041 0.467778 0.466084 0.463858 0.460993 0.457388 0.452953 0.447619 
0.450246 0.45559 0.459977 0.463488 0.466219 0.468279 0.469779 0.470828 0.471523 
0.471952 0.472187 0.472285 0.472291 0.472235 0.472138 0.47201 0.471852 0.471657 
0.471407 0.471074 0.470616 0.469978 0.469091 0.467872 0.466223 0.46404 0.461215 
0.457641 0.453228 0.447901 0.450281 0.455615 0.459982 0.463467 0.466168 0.468197 
0.469668 0.47069 0.471364 0.471778 0.472004 0.472098 0.472105 0.472055 0.471967 
0.471853 0.471711 0.471536 0.47131 0.471004 0.470578 0.469977 0.469131 0.467955 
0.466351 0.464211 0.461425 0.457884 0.453493 0.448175 0.450332 0.455655 0.460002 
0.46346 0.466129 0.468125 0.469564 0.470559 0.471211 0.471609 0.471824 0.471914 
0.471922 0.471876 0.471797 0.471694 0.471567 0.471411 0.471207 0.470927 0.470532 
0.469966 0.46916 0.468027 0.466467 0.464372 0.461626 0.458118 0.453749 0.448441 
0.450399 0.45571 0.460036 0.463465 0.466101 0.468063 0.469469 0.470435 0.471064 
0.471444 0.471648 0.471733 0.471739 0.471697 0.471625 0.471533 0.47142 0.471281 
0.471098 0.470843 0.470477 0.469946 0.469179 0.468089 0.466575 0.464524 0.461819 
0.458345 0.454 0.448701 0.45048 0.45578 0.460083 0.463482 0.466083 0.468008 
0.46938 0.470316 0.47092 0.471282 0.471474 0.471553 0.471558 0.471519 0.471453 
0.47137 0.47127 0.471147 0.470983 0.470752 0.470415 0.469918 0.469189 0.468142 
0.466673 0.464668 0.462005 0.458566 0.454244 0.448957 0.450575 0.455862 0.460143 
0.463509 0.466074 0.467961 0.469297 0.470202 0.47078 0.471124 0.471303 0.471374 
0.471377 0.47134 0.47128 0.471205 0.471117 0.471009 0.470863 0.470655 0.470346 
0.469882 0.469191 0.468187 0.466764 0.464805 0.462184 0.458781 0.454485 0.449208 
0.450683 0.455957 0.460213 0.463546 0.466073 0.467921 0.46922 0.470091 0.470644 
0.470967 0.471133 0.471197 0.471197 0.471161 0.471106 0.471039 0.470962 0.470867 
0.470739 0.470553 0.47027 0.469838 0.469185 0.468224 0.466847 0.464935 0.462359 
0.458992 0.454722 0.449458 0.450803 0.456064 0.460295 0.463593 0.466079 0.467886 
0.469146 0.469984 0.470509 0.470812 0.470964 0.47102 0.471017 0.470982 0.470931 
0.470871 0.470803 0.470721 0.47061 0.470444 0.470188 0.469787 0.469172 0.468254 
0.466924 0.465059 0.462528 0.459201 0.454957 0.449705 0.450936 0.456183 0.460386 
0.463648 0.466092 0.467856 0.469076 0.469879 0.470376 0.470658 0.470797 0.470844 
0.470838 0.470803 0.470755 0.470702 0.470643 0.470573 0.470477 0.470331 0.470099 
0.46973 0.469152 0.468277 0.466994 0.465179 0.462694 0.459406 0.455191 0.449952 
0.45108 0.456313 0.460488 0.463711 0.466111 0.46783 0.469009 0.469776 0.470244 
0.470505 0.470629 0.470668 0.470658 0.470624 0.470579 0.470531 0.47048 0.470421 
0.470339 0.470213 0.470005 0.469666 0.469125 0.468294 0.467059 0.465293 0.462857 
0.45961 0.455425 0.450199 0.451236 0.456453 0.460598 0.463781 0.466135 0.467808 
0.468943 0.469674 0.470113 0.470353 0.470462 0.470492 0.470478 0.470443 0.470401 
0.470358 0.470315 0.470266 0.470198 0.470089 0.469905 0.469596 0.469092 0.468304 
0.467118 0.465404 0.463017 0.459813 0.455659 0.450448 0.451403 0.456604 0.460718 
0.463858 0.466164 0.467789 0.46888 0.469573 0.469983 0.4702 0.470295 0.470316 
0.470298 0.470263 0.470223 0.470185 0.470148 0.470109 0.470054 0.469962 0.4698 
0.46952 0.469053 0.468308 0.467172 0.465511 0.463175 0.460016 0.455894 0.450698 
0.451581 0.456765 0.460846 0.463941 0.466198 0.467772 0.468818 0.469472 0.469852 
0.470047 0.470127 0.47014 0.470118 0.470082 0.470044 0.47001 0.469979 0.469949 
0.469905 0.46983 0.46969 0.469439 0.469008 0.468307 0.467221 0.465614 0.463332 
0.460219 0.456131 0.450952 0.45177 0.456936 0.460982 0.464031 0.466235 0.467757 
0.468756 0.469371 0.46972 0.469894 0.469959 0.469963 0.469937 0.4699 0.469864 
0.469833 0.469809 0.469786 0.469754 0.469694 0.469575 0.469352 0.468957 0.4683 
0.467266 0.465714 0.463487 0.460423 0.456371 0.451209 0.45197 0.457118 0.461126 
0.464126 0.466275 0.467743 0.468694 0.469269 0.469587 0.469739 0.46979 0.469786 
0.469756 0.469718 0.469683 0.469656 0.469637 0.469621 0.4696 0.469554 0.469455 
0.469259 0.4689 0.468288 0.467306 0.465811 0.463641 0.460628 0.456613 0.45147 
0.452182 0.457309 0.461279 0.464226 0.466318 0.46773 0.468631 0.469166 0.469454 
0.469584 0.469621 0.469608 0.469574 0.469535 0.469502 0.469478 0.469463 0.469454 
0.469442 0.46941 0.469331 0.469161 0.468837 0.46827 0.467341 0.465905 0.463794 
0.460835 0.45686 0.451736 0.452404 0.457511 0.461439 0.464331 0.466363 0.467718 
0.468567 0.469061 0.469318 0.469427 0.46945 0.46943 0.469392 0.469352 0.46932 