# vtk DataFile Version 5.1
vtk output
ASCII
DATASET UNSTRUCTURED_GRID
POINTS 9610 double
0.1016 1.5 0.1439999938 0.1016 1.45 0.16599999368 0.1016 1.4 0.15700000525 
0.1016 1.35 0.13199999928 0.1016 1.3 0.10700000077 0.1016 1.25 0.090000003576 
0.1016 1.2 0.075999997556 0.1016 1.15 0.059999998659 0.1016 1.1 0.0270000007 
0.1016 1.05 0 0.1016 1 -1.4520933349e-19 0.1016 0.95 -1.9172115972e-20 
0.1016 0.9 -1.9935036607e-21 0.1016 0.85 1.2043517074e-19 0.1016 0.8 2.5499320644e-20 
0.1016 0.75 -2.7692611041e-19 0.1016 0.7 0.0017266095383 0.1016 0.65 0.006275348831 
0.1016 0.6 0.015275382437 0.1016 0.55 0.034349132329 0.1016 0.5 0.057032302022 
0.1016 0.45 0.069950312376 0.1016 0.4 0.088548511267 0.1016 0.35 0.1118433848 
0.1016 0.3 0.13683372736 0.1016 0.25 0.16178821027 0.1016 0.2 0.18516084552 
0.1016 0.15 0.20709982514 0.1016 0.1 0.23110230267 0.1016 0.05 0.2536047399 
0.1016 0 0.2658187151 5.08 1.5 0.28700000048 5.08 1.45 0.28700000048 
5.08 1.4 0.28700000048 5.08 1.35 0.28700000048 5.08 1.3 0.28700000048 
5.08 1.25 0.28700000048 5.08 1.2 0.28700000048 5.08 1.15 0.28700000048 
5.08 1.1 0.28700000048 5.08 1.05 0.28700000048 5.08 1 0.28700000048 
5.08 0.95 0.28700000048 5.08 0.9 0.28700000048 5.08 0.85 0.28700000048 
5.08 0.8 0.28700000048 5.08 0.75 0.28700000048 5.08 0.7 0.28700000048 
5.08 0.65 0.28700000048 5.08 0.6 0.28700000048 5.08 0.55 0.28700000048 
5.08 0.5 0.28700000048 5.08 0.45 0.28700000048 5.08 0.4 0.28700000048 
5.08 0.35 0.28700000048 5.08 0.3 0.28700000048 5.08 0.25 0.28700000048 
5.08 0.2 0.28700000048 5.08 0.15 0.28700000048 5.08 0.1 0.28700000048 
5.08 0.05 0.28700000048 5.08 0 0.28700000048 0.151384 1.5 0.1567479223 
0.151384 1.45 0.17286509275 0.151384 1.4 0.17073737085 0.151384 1.35 0.14572574198 
0.151384 1.3 0.11582919955 0.151384 1.25 0.092948384583 0.151384 1.2 0.07700818032 
0.151384 1.15 0.068851865828 0.151384 1.1 0.049543965608 0.151384 1.05 0.021516673267 
0.151384 1 -3.315127833e-05 0.151384 0.95 7.8876604448e-07 0.151384 0.9 1.059683018e-05 
0.151384 0.85 9.8040231933e-07 0.151384 0.8 -2.1849093628e-06 0.151384 0.75 -3.5226723867e-06 
0.151384 0.7 1.8499395082e-05 0.151384 0.65 7.9339341028e-05 0.151384 0.6 0.00023758161115 
0.151384 0.55 0.014358749613 0.151384 0.5 0.042242851108 0.151384 0.45 0.043471399695 
0.151384 0.4 0.067320547998 0.151384 0.35 0.092297673225 0.151384 0.3 0.11927485466 
0.151384 0.25 0.14625304937 0.151384 0.2 0.17221662402 0.151384 0.15 0.19618578255 
0.151384 0.1 0.22608478367 0.151384 0.05 0.25985249877 0.151384 0 0.27087309957 
0.201168 1.5 0.16561856866 0.201168 1.45 0.17871999741 0.201168 1.4 0.17676354945 
0.201168 1.35 0.15559522808 0.201168 1.3 0.11983888596 0.201168 1.25 0.094892024994 
0.201168 1.2 0.078920572996 0.201168 1.15 0.070950694382 0.201168 1.1 0.057784538716 
0.201168 1.05 0.041227802634 0.201168 1 0.013341243379 0.201168 0.95 0.00081337126903 
0.201168 0.9 -9.6729381767e-05 0.201168 0.85 4.3826066758e-06 0.201168 0.8 2.196150308e-05 
0.201168 0.75 1.559098564e-05 0.201168 0.7 8.7562120825e-06 0.201168 0.65 -2.372284689e-05 
0.201168 0.6 0.00089719501557 0.201168 0.55 0.010063622147 0.201168 0.5 0.024555742741 
0.201168 0.45 0.041900422424 0.201168 0.4 0.064939498901 0.201168 0.35 0.092852219939 
0.201168 0.3 0.11602818966 0.201168 0.25 0.14302745461 0.201168 0.2 0.16709972918 
0.201168 0.15 0.19493468106 0.201168 0.1 0.22787478566 0.201168 0.05 0.26000612974 
0.201168 0 0.28352585435 0.250952 1.5 0.18197776377 0.250952 1.45 0.19118845463 
0.250952 1.4 0.18549700081 0.250952 1.35 0.16912814975 0.250952 1.3 0.13124585152 
0.250952 1.25 0.10149205476 0.250952 1.2 0.082699075341 0.250952 1.15 0.071913905442 
0.250952 1.1 0.063713997602 0.250952 1.05 0.053379669785 0.250952 1 0.037508849055 
0.250952 0.95 0.021492445841 0.250952 0.9 0.01854711771 0.250952 0.85 -0.00016757083358 
0.250952 0.8 -0.00013697004761 0.250952 0.75 -9.2888512881e-05 0.250952 0.7 -9.8218530184e-05 
0.250952 0.65 -9.6964897239e-05 0.250952 0.6 0.00091851141769 0.250952 0.55 0.013585589826 
0.250952 0.5 0.031274244189 0.250952 0.45 0.049358397722 0.250952 0.4 0.068670272827 
0.250952 0.35 0.094783261418 0.250952 0.3 0.11963667721 0.250952 0.25 0.14563524723 
0.250952 0.2 0.17340396345 0.250952 0.15 0.20428460836 0.250952 0.1 0.23357948661 
0.250952 0.05 0.26278209686 0.250952 0 0.28313687444 0.300736 1.5 0.19399508834 
0.300736 1.45 0.20023547113 0.300736 1.4 0.18880701065 0.300736 1.35 0.17733044922 
0.300736 1.3 0.14392086864 0.300736 1.25 0.11291036755 0.300736 1.2 0.093017399311 
0.300736 1.15 0.074714794755 0.300736 1.1 0.063125863671 0.300736 1.05 0.056883025914 
0.300736 1 0.049352236092 0.300736 0.95 0.048999961466 0.300736 0.9 0.037454549223 
0.300736 0.85 0.024520553648 0.300736 0.8 0.014218471944 0.300736 0.75 0.013365014456 
0.300736 0.7 0.013428580947 0.300736 0.65 0.012509510852 0.300736 0.6 0.016264114529 
0.300736 0.55 0.030294796452 0.300736 0.5 0.046519454569 0.300736 0.45 0.068144336343 
0.300736 0.4 0.084360465407 0.300736 0.35 0.10757743567 0.300736 0.3 0.13541725278 
0.300736 0.25 0.16240039468 0.300736 0.2 0.19048757851 0.300736 0.15 0.2160332799 
0.300736 0.1 0.24226686358 0.300736 0.05 0.26937404275 0.300736 0 0.28301364183 
0.35052 1.5 0.21993134916 0.35052 1.45 0.21074354649 0.35052 1.4 0.20069882274 
0.35052 1.35 0.18513572216 0.35052 1.3 0.16299076378 0.35052 1.25 0.1328061223 
0.35052 1.2 0.10550812632 0.35052 1.15 0.082031287253 0.35052 1.1 0.065586566925 
0.35052 1.05 0.056990623474 0.35052 1 0.056517597288 0.35052 0.95 0.054931458086 
0.35052 0.9 0.054607693106 0.35052 0.85 0.05337350443 0.35052 0.8 0.050241623074 
0.35052 0.75 0.045401591808 0.35052 0.7 0.041764829308 0.35052 0.65 0.038181420416 
0.35052 0.6 0.049359682947 0.35052 0.55 0.053449429572 0.35052 0.5 0.075672745705 
0.35052 0.45 0.094206869602 0.35052 0.4 0.11205533147 0.35052 0.35 0.13232547045 
0.35052 0.3 0.15671758354 0.35052 0.25 0.18109157681 0.35052 0.2 0.20635579526 
0.35052 0.15 0.22770810127 0.35052 0.1 0.2528437674 0.35052 0.05 0.2771576643 
0.35052 0 0.27940580249 0.400304 1.5 0.25204959512 0.400304 1.45 0.22509554029 
0.400304 1.4 0.20716628432 0.400304 1.35 0.1947825104 0.400304 1.3 0.17563907802 
0.400304 1.25 0.15354906023 0.400304 1.2 0.12714186311 0.400304 1.15 0.096911147237 
0.400304 1.1 0.071960628033 0.400304 1.05 0.060326248407 0.400304 1 0.054314594716 
0.400304 0.95 0.055935770273 0.400304 0.9 0.058099273592 0.400304 0.85 0.061934642494 
0.400304 0.8 0.06638301909 0.400304 0.75 0.073563411832 0.400304 0.7 0.06918977201 
0.400304 0.65 0.065876871347 0.400304 0.6 0.074191533029 0.400304 0.55 0.084406323731 
0.400304 0.5 0.10563553125 0.400304 0.45 0.11836013198 0.400304 0.4 0.13537698984 
0.400304 0.35 0.15452240407 0.400304 0.3 0.17936818302 0.400304 0.25 0.20155282319 
0.400304 0.2 0.225516662 0.400304 0.15 0.24568809569 0.400304 0.1 0.26810437441 
0.400304 0.05 0.28067526221 0.400304 0 0.28164991736 0.450088 1.5 0.27532985806 
0.450088 1.45 0.24766290188 0.450088 1.4 0.22488152981 0.450088 1.35 0.20526823401 
0.450088 1.3 0.19068862498 0.450088 1.25 0.17153072357 0.450088 1.2 0.14720769227 
0.450088 1.15 0.11596622318 0.450088 1.1 0.088109925389 0.450088 1.05 0.073329091072 
0.450088 1 0.061301834881 0.450088 0.95 0.058133840561 0.450088 0.9 0.056976977736 
0.450088 0.85 0.058463647962 0.450088 0.8 0.059413637966 0.450088 0.75 0.069595433772 
0.450088 0.7 0.078614637256 0.450088 0.65 0.086750224233 0.450088 0.6 0.097102992237 
0.450088 0.55 0.10639892519 0.450088 0.5 0.12029942125 0.450088 0.45 0.13905635476 
0.450088 0.4 0.15688975155 0.450088 0.35 0.17588445544 0.450088 0.3 0.19478820264 
0.450088 0.25 0.2194506973 0.450088 0.2 0.24432092905 0.450088 0.15 0.26188328862 
0.450088 0.1 0.27877542377 0.450088 0.05 0.2811152637 0.450088 0 0.28121048212 
0.499872 1.5 0.28093001246 0.499872 1.45 0.26895985007 0.499872 1.4 0.24557968974 
0.499872 1.35 0.22204914689 0.499872 1.3 0.20475672185 0.499872 1.25 0.18913467228 
0.499872 1.2 0.16759927571 0.499872 1.15 0.14318850636 0.499872 1.1 0.11431179196 
0.499872 1.05 0.10151998699 0.499872 1 0.078661836684 0.499872 0.95 0.07907731086 
0.499872 0.9 0.066150352359 0.499872 0.85 0.064533278346 0.499872 0.8 0.06694290787 
0.499872 0.75 0.067907102406 0.499872 0.7 0.081052526832 0.499872 0.65 0.09312158078 
0.499872 0.6 0.10833848268 0.499872 0.55 0.12406221777 0.499872 0.5 0.14032669365 
0.499872 0.45 0.16283677518 0.499872 0.4 0.17921827734 0.499872 0.35 0.19811299443 
0.499872 0.3 0.22109375894 0.499872 0.25 0.24196755886 0.499872 0.2 0.26218613982 
0.499872 0.15 0.27862411737 0.499872 0.1 0.28106892109 0.499872 0.05 0.28105315566 
0.499872 0 0.28098458052 0.549656 1.5 0.28194096684 0.549656 1.45 0.27982598543 
0.549656 1.4 0.26969575882 0.549656 1.35 0.24034294486 0.549656 1.3 0.2213806957 
0.549656 1.25 0.2057915777 0.549656 1.2 0.18980820477 0.549656 1.15 0.1675965488 
0.549656 1.1 0.14790244401 0.549656 1.05 0.1315792501 0.549656 1 0.10592649877 
0.549656 0.95 0.11231791973 0.549656 0.9 0.10229380429 0.549656 0.85 0.093455515802 
0.549656 0.8 0.098017551005 0.549656 0.75 0.092814289033 0.549656 0.7 0.098240911961 
0.549656 0.65 0.11210730672 0.549656 0.6 0.13140699267 0.549656 0.55 0.14442101121 
0.549656 0.5 0.16404305398 0.549656 0.45 0.18717969954 0.549656 0.4 0.20648564398 
0.549656 0.35 0.22647382319 0.549656 0.3 0.24663420022 0.549656 0.25 0.26602104306 
0.549656 0.2 0.27693924308 0.549656 0.15 0.27970176935 0.549656 0.1 0.28026017547 
0.549656 0.05 0.28016328812 0.549656 0 0.28018698096 0.59944 1.5 0.28204590082 
0.59944 1.45 0.28057417274 0.59944 1.4 0.27947312593 0.59944 1.35 0.26847994328 
0.59944 1.3 0.24638035893 0.59944 1.25 0.22713595629 0.59944 1.2 0.21167001128 
0.59944 1.15 0.19623626769 0.59944 1.1 0.17745691538 0.59944 1.05 0.1536591202 
0.59944 1 0.13844637573 0.59944 0.95 0.14289885759 0.59944 0.9 0.13580177724 
0.59944 0.85 0.13281977177 0.59944 0.8 0.1312892884 0.59944 0.75 0.13088361919 
0.59944 0.7 0.13225881755 0.59944 0.65 0.14174735546 0.59944 0.6 0.16041781008 
[...]
CELL_DATA 9270
FIELD FieldData 7
B_Stress_n_p_m2 1 9270 float
0.258183 0.339269 0.354738 0.350191 0.346161 0.345612 0.348428 0.350332 0.345747 
0.340164 0.344119 0.350317 0.355787 0.364017 0.365727 0.28607 0.193315 0.14475 
0.114495 0.0926776 0.0754498 0.0627126 0.0534769 0.0464493 0.0414436 0.0380309 0.03599 
0.0338163 0.0302398 0.0236147 0.248534 0.328438 0.345902 0.339102 0.331309 0.327769 
0.327153 0.328101 0.325948 0.318364 0.30961 0.305552 0.298081 0.287408 0.26095 
0.204271 0.158321 0.124871 0.101072 0.083404 0.0696326 0.0584961 0.0507257 0.044055 
0.0384744 0.0336185 0.0290459 0.0226508 0.0143744 0.0021487 0.241101 0.321611 0.338674 
0.331787 0.32002 0.314093 0.311092 0.309785 0.307252 0.302333 0.29335 0.281974 
0.268686 0.252618 0.228688 0.193087 0.159564 0.132855 0.112882 0.0974014 0.0849819 
0.0759102 0.0687263 0.0628804 0.0573325 0.0519802 0.0453332 0.0358273 0.0234577 0.00694133 
0.233702 0.31665 0.332625 0.327945 0.314548 0.304783 0.298243 0.293312 0.289621 
0.285573 0.279356 0.267625 0.252798 0.232317 0.209646 0.182683 0.157143 0.136229 
0.119443 0.107135 0.0970746 0.0891461 0.0827636 0.0776639 0.0727248 0.06689 0.0585541 
0.0462848 0.0293304 0.00875727 0.230995 0.31499 0.330206 0.326919 0.314746 0.301415 
0.290347 0.280699 0.273901 0.268939 0.263173 0.255772 0.24323 0.228139 0.208492 
0.186193 0.165032 0.147353 0.133398 0.123071 0.114145 0.107383 0.101684 0.0971636 
0.0926078 0.0864702 0.0769398 0.0623971 0.0414275 0.0163037 0.241864 0.320399 0.333228 
0.328686 0.318482 0.303926 0.287668 0.273327 0.262987 0.254707 0.248163 0.240107 
0.231337 0.220589 0.207444 0.190901 0.174256 0.159694 0.148855 0.139122 0.132199 
0.125828 0.121158 0.117155 0.113384 0.107834 0.0981018 0.0817502 0.0563504 0.0259341 
0.265185 0.338722 0.342178 0.335132 0.323977 0.309398 0.291831 0.274108 0.260608 
0.248698 0.238705 0.228589 0.219176 0.209593 0.199392 0.190098 0.179554 0.169876 
0.16147 0.15452 0.149441 0.144292 0.140832 0.138245 0.136094 0.132186 0.12323 
0.104474 0.0749239 0.0383358 0.289343 0.367041 0.363285 0.346992 0.334143 0.31966 
0.302348 0.284749 0.269312 0.254419 0.242207 0.229203 0.217311 0.207658 0.197367 
0.189646 0.184118 0.179499 0.174626 0.171061 0.168483 0.16691 0.165483 0.165157 
0.164187 0.160752 0.150211 0.12833 0.0947025 0.0521705 0.304674 0.395268 0.395882 
0.370876 0.350684 0.335414 0.319158 0.303036 0.285495 0.270657 0.256785 0.244882 
0.231129 0.220287 0.21088 0.202126 0.198191 0.196524 0.195514 0.195848 0.196677 
0.198902 0.199079 0.199687 0.198473 0.191025 0.1755 0.151152 0.114071 0.0667401 
0.311741 0.408773 0.428102 0.408552 0.381027 0.358231 0.341395 0.324197 0.30663 
0.291018 0.278322 0.268446 0.256727 0.244625 0.235664 0.227413 0.22288 0.222648 
0.225591 0.227994 0.229923 0.232133 0.233904 0.233133 0.227713 0.215781 0.196842 
0.170368 0.133256 0.0817267 0.315693 0.411303 0.43715 0.439505 0.42135 0.39424 
0.37043 0.35077 0.332415 0.315183 0.303772 0.295369 0.285856 0.276218 0.265937 
0.259134 0.253787 0.250605 0.251153 0.253264 0.254018 0.250768 0.251079 0.248016 
0.242669 0.231127 0.212994 0.188932 0.152537 0.0972053 0.319978 0.414602 0.438225 
0.445348 0.44738 0.435275 0.412923 0.388884 0.367028 0.349346 0.33577 0.325776 
0.31861 0.312346 0.304308 0.297013 0.2892 0.281126 0.273601 0.268188 0.265543 
0.260454 0.255774 0.252985 0.248848 0.241603 0.228146 0.206868 0.171388 0.112553 
0.323842 0.419042 0.441384 0.446625 0.450871 0.453765 0.449663 0.435048 0.41481 
0.394845 0.382509 0.369375 0.36087 0.355924 0.351318 0.343397 0.332381 0.320141 
0.306338 0.291742 0.281673 0.277868 0.272952 0.268446 0.262693 0.254942 0.24374 
0.223895 0.18897 0.127046 0.325985 0.421419 0.443374 0.447956 0.450478 0.454494 
0.458372 0.46007 0.454209 0.443325 0.430505 0.422972 0.412462 0.403851 0.397705 
0.389184 0.378599 0.364101 0.349599 0.334713 0.317562 0.307791 0.302197 0.29439 
0.284096 0.273379 0.259277 0.24023 0.205996 0.141411 0.329547 0.424277 0.446185 
0.451093 0.45371 0.456688 0.459977 0.46443 0.468286 0.468981 0.463792 0.457924 
0.45099 0.441842 0.431511 0.421125 0.410172 0.398934 0.386905 0.373932 0.359849 
0.345084 0.331321 0.319766 0.30533 0.291513 0.277147 0.259006 0.225102 0.157748 
0.336792 0.431641 0.453153 0.458155 0.4608 0.463382 0.466039 0.468586 0.471559 
0.473809 0.473928 0.469674 0.464345 0.456713 0.446909 0.436482 0.425732 0.415607 
0.404595 0.392964 0.381747 0.368397 0.353275 0.337979 0.323915 0.310551 0.297574 
0.2803 0.246734 0.176074 0.342109 0.436809 0.457593 0.462048 0.464096 0.465878 
0.467713 0.469275 0.47039 0.470733 0.470034 0.466757 0.461627 0.454818 0.446704 
0.437688 0.428128 0.418229 0.407835 0.397178 0.386268 0.374617 0.362141 0.348634 
0.336729 0.325519 0.314027 0.298091 0.265491 0.192269 0.342251 0.435942 0.455973 
0.459782 0.461129 0.462196 0.463146 0.463823 0.46404 0.463454 0.461727 0.458386 
0.453695 0.447678 0.440545 0.432608 0.424105 0.415204 0.405855 0.396149 0.386143 
0.375686 0.364948 0.354207 0.344178 0.334723 0.3248 0.310539 0.279357 0.204564 
0.340725 0.433468 0.452836 0.456148 0.456963 0.457458 0.457772 0.457784 0.457313 
0.456143 0.454053 0.450804 0.44646 0.441069 0.434771 0.427752 0.420174 0.412165 
0.403769 0.395071 0.386132 0.376972 0.367739 0.358675 0.350173 0.342191 0.333676 
0.320934 0.291157 0.215124 0.338977 0.430896 0.449733 0.452647 0.453039 0.453086 
0.452917 0.452446 0.451521 0.44999 0.447702 0.444534 0.44049 0.435606 0.429974 
0.423715 0.416949 0.409778 0.402274 0.394519 0.386592 0.378573 0.370606 0.362897 
0.355664 0.348901 0.341603 0.330212 0.301733 0.224662 0.337046 0.428208 0.446605 
0.449208 0.449276 0.448983 0.448461 0.44765 0.446425 0.444682 0.442314 0.439249 
0.435478 0.431025 0.425953 0.420346 0.414296 0.407888 0.4012 0.394314 0.387315 
0.380303 0.373407 0.366799 0.360621 0.354873 0.348616 0.338407 0.311126 0.233221 
0.335057 0.4255 0.443526 0.445885 0.445711 0.445168 0.444394 0.443352 0.44194 
0.440084 0.437708 0.434768 0.431251 0.427178 0.422591 0.417554 0.412138 0.406417 
0.400467 0.394366 0.388199 0.382067 0.376084 0.370395 0.3651 0.360203 0.354832 
0.345652 0.319474 0.240916 0.333086 0.422833 0.440536 0.442705 0.442354 0.441634 
0.440688 0.439497 0.437977 0.436078 0.433742 0.430942 0.427668 0.423935 0.419777 
0.415243 0.410391 0.405287 0.399997 0.394598 0.389169 0.383804 0.378603 0.37369 
0.36914 0.364959 0.36034 0.352056 0.326893 0.247841 0.331187 0.42025 0.437666 
0.439688 0.439211 0.43837 0.437314 0.436035 0.434466 0.432571 0.430307 0.427657 
0.424615 0.421194 0.41742 0.413334 0.408985 0.40443 0.39973 0.394953 0.390174 
0.385477 0.380949 0.376696 0.372778 0.369202 0.365222 0.357718 0.33349 0.254084 
0.329399 0.417783 0.434936 0.436843 0.43628 0.435363 0.434242 0.432922 0.431345 
0.429488 0.427317 0.424824 0.422003 0.418868 0.415441 0.411756 0.407856 0.403791 
0.399614 0.395389 0.39118 0.387064 0.383116 0.379428 0.376048 0.372986 0.369551 
0.362728 0.339364 0.259724 0.327747 0.41545 0.432359 0.434174 0.433558 0.432597 
0.431448 0.430119 0.428564 0.426767 0.424703 0.422368 0.419758 0.416887 0.413775 
0.410451 0.406952 0.403322 0.39961 0.395871 0.392162 0.388553 0.385106 0.381903 
0.378984 0.376359 0.373389 0.367163 0.344599 0.264833 0.326247 0.413264 0.429941 
0.431683 0.431035 0.430057 0.428904 0.427592 0.42608 0.424358 0.422409 0.42023 
0.417821 0.415194 0.412368 0.409369 0.406229 0.402987 0.399686 0.396375 0.393105 
0.389937 0.386924 0.38414 0.381616 0.379363 0.376792 0.371092 0.349272 0.269474 
0.324907 0.41123 0.427682 0.429365 0.428704 0.427727 0.426589 0.42531 0.423855 
0.422219 0.420387 0.418361 0.416141 0.413741 0.411175 0.408469 0.40565 0.402753 
0.399816 0.396883 0.393998 0.391215 0.388579 0.386156 0.383972 0.382038 0.37981 
0.374574 0.35345 0.273703 0.323731 0.409349 0.42558 0.427215 0.426552 0.425589 
0.42448 0.423247 0.421858 0.420313 0.418599 0.416721 0.414679 0.412487 0.410159 
0.407717 0.405185 0.402596 0.399982 0.397381 0.394834 0.392387 0.39008 0.38797 
0.386079 0.384419 0.382486 0.377663 0.357191 0.277569 0.322719 0.407619 0.423631 
0.425223 0.424569 0.423631 0.422559 0.421379 0.420062 0.41861 0.417013 0.415275 
0.413401 0.411401 0.409289 0.407085 0.404811 0.402496 0.400168 0.397861 0.395611 
0.393458 0.391436 0.389598 0.387961 0.386537 0.38486 0.380404 0.360548 0.281116 
0.321867 0.406035 0.421829 0.423383 0.422744 0.421836 0.420808 0.419686 0.418444 
0.417084 0.4156 0.413997 0.412278 0.410454 0.408539 0.406551 0.404508 0.402437 
0.400362 0.398316 0.396326 0.394431 0.392659 0.391056 0.389639 0.38842 0.386965 
0.382838 0.363564 0.284381 0.32117 0.40459 0.420165 0.421685 0.421065 0.420191 
0.419211 0.418149 0.416982 0.415713 0.414338 0.412861 0.411287 0.409626 0.40789 
0.406095 0.40426 0.402407 0.400558 0.39874 0.396981 0.395311 0.393758 0.392361 
0.391135 0.390092 0.388831 0.385001 0.36628 0.2874 0.320621 0.403277 0.418632 
0.420119 0.419521 0.418684 0.417754 0.416752 0.415659 0.414479 0.413207 0.411848 
0.410408 0.408896 0.407323 0.405704 0.404055 0.402396 0.400747 0.399133 0.397575 
0.396105 0.394742 0.393525 0.392466 0.391577 0.390484 0.386923 0.36873 0.2902 
0.320213 0.402089 0.417221 0.418677 0.418101 0.417303 0.416422 0.41548 0.41446 
0.413364 0.412189 0.410941 0.409625 0.408249 0.406824 0.405363 0.403881 0.402396 
0.400926 0.399491 0.398113 0.396817 0.395622 0.394563 0.393649 0.392893 0.391949 
0.388631 0.370945 0.292808 0.319939 0.401018 0.415923 0.417349 0.416797 0.416037 
0.415205 0.414321 0.41337 0.412354 0.411271 0.410126 0.408923 0.407672 0.406382 
0.405064 0.403732 0.402402 0.40109 0.399816 0.398596 0.397454 0.396407 0.395485 
0.394698 0.394059 0.393245 0.39015 0.372951 0.295247 0.319788 0.400055 0.414732 
0.416126 0.415598 0.414875 0.414091 0.413263 0.412378 0.411437 0.41044 0.40939 
0.408292 0.407155 0.405986 0.404798 0.403601 0.40241 0.401239 0.400107 0.399027 
0.398021 0.397104 0.396303 0.395628 0.39509 0.394391 0.3915 0.374771 0.297538 
0.319754 0.399193 0.413639 0.415 0.414495 0.413808 0.41307 0.412296 0.411473 
0.410603 0.409685 0.408723 0.407721 0.406688 0.40563 0.404558 0.403482 0.402416 
0.401371 0.400365 0.399409 0.398523 0.397721 0.397026 0.396449 0.396001 0.395403 
0.392701 0.376427 0.299697 0.319823 0.39843 0.412636 0.413963 0.41348 0.412828 
0.412133 0.41141 0.410645 0.409841 0.408997 0.408116 0.407202 0.406263 0.405306 
0.404339 0.403372 0.402417 0.401486 0.400591 0.399745 0.398966 0.398265 0.397665 
0.397174 0.396803 0.396296 0.393767 0.377935 0.30174 0.319984 0.397761 0.411716 
0.413008 0.412546 0.411926 0.411273 0.410597 0.409887 0.409144 0.408368 0.407561 
0.406728 0.405875 0.405009 0.404137 0.403268 0.402413 0.401582 0.400787 0.40004 
0.399355 0.398743 0.398226 0.397811 0.397509 0.397082 0.394715 0.379313 0.303682 
0.32023 0.397179 0.410871 0.412128 0.411685 0.411096 0.410481 0.409849 0.40919 
0.408504 0.407791 0.407052 0.406293 0.405518 0.404734 0.403948 0.403167 0.402402 
0.401661 0.400955 0.400295 0.399694 0.399161 0.398717 0.398369 0.398128 0.397773 
0.395557 0.380575 0.305535 0.320555 0.396678 0.410096 0.411316 0.410891 0.410331 
0.409752 0.409161 0.408549 0.407915 0.407259 0.406584 0.405892 0.405188 0.404478 
0.403769 0.403068 0.402383 0.401723 0.401097 0.400514 0.399987 0.399525 0.399146 
0.398857 0.39867 0.398379 0.396303 0.381732 0.307309 0.320953 0.396249 0.409384 
0.410567 0.410158 0.409625 0.409079 0.408527 0.407958 0.407372 0.406769 0.40615 
0.405519 0.40488 0.404238 0.403599 0.402969 0.402356 0.401768 0.401213 0.400699 
0.400239 0.399839 0.399518 0.399281 0.399142 0.398908 0.396964 0.382796 0.309014 
0.321419 0.395885 0.408732 0.409874 0.40948 0.408972 0.408457 0.40794 0.407411 
0.406869 0.406315 0.405748 0.405173 0.404592 0.404011 0.403435 0.402869 0.402321 
0.401797 0.401306 0.400854 0.400453 0.400109 0.399838 0.399648 0.399551 0.399368 
0.397549 0.383776 0.310659 0.321948 0.395579 0.408134 0.409234 0.408852 0.408367 
0.407881 0.407396 0.406904 0.406403 0.405892 0.405373 0.404849 0.404321 0.403795 
0.403276 0.402768 0.402278 0.401812 0.401378 0.400981 0.400632 0.400337 0.400113 
0.399964 0.399904 0.399768 0.398066 0.384681 0.312251 0.322535 0.395326 0.407585 
0.40864 0.40827 0.407806 0.407346 0.406891 0.406433 0.405969 0.405499 0.405023 
0.404544 0.404064 0.403589 0.40312 0.402665 0.402227 0.401813 0.401429 0.401082 
0.40078 0.40053 0.400345 0.400233 0.400206 0.400112 0.398522 0.385519 0.313797 
0.323177 0.395121 0.40708 0.408089 0.407729 0.407285 0.406849 0.406421 0.405994 
0.405563 0.40513 0.404693 0.404256 0.40382 0.40339 0.402968 0.402559 0.402168 
0.401801 0.401463 0.401159 0.400899 0.400688 0.40054 0.40046 0.400463 0.400407 
0.398922 0.386297 0.315304 0.323869 0.394959 0.406616 0.407576 0.407225 0.406799 
0.406386 0.405983 0.405584 0.405184 0.404784 0.404383 0.403984 0.403587 0.403197 
0.402817 0.402451 0.402102 0.401777 0.401479 0.401215 0.400993 0.400817 0.400701 
0.40065 0.400679 0.400657 0.399273 0.38702 0.316776 0.324608 0.394836 0.406187 
0.407099 0.406756 0.406346 0.405953 0.405573 0.405199 0.404828 0.404458 0.40409 
0.403725 0.403364 0.403011 0.402668 0.40234 0.40203 0.401741 0.401481 0.401252 
0.401063 0.400919 0.400831 0.400806 0.400859 0.400868 0.399579 0.387694 0.318219 
0.325391 0.394747 0.405792 0.406654 0.406317 0.405922 0.405547 0.405188 0.404838 
0.404492 0.40415 0.403811 0.403477 0.403149 0.402829 0.40252 0.402226 0.40195 
0.401695 0.401468 0.401271 0.401112 0.400996 0.400934 0.400932 0.401005 0.401043 
0.399845 0.388323 0.319636 0.326216 0.39469 0.405426 0.406238 0.405906 0.405525 
0.405167 0.404827 0.404498 0.404175 0.403858 0.403546 0.40324 0.402941 0.402651 
0.402373 0.40211 0.401865 0.40164 0.401442 0.401274 0.401142 0.40105 0.401011 
0.40103 0.401123 0.401186 0.400075 0.388913 0.321032 0.327078 0.394661 0.405086 
0.405848 0.405521 0.405151 0.404809 0.404486 0.404177 0.403875 0.403581 0.403293 
0.403012 0.40274 0.402477 0.402227 0.401991 0.401773 0.401576 0.401405 0.401262 
0.401154 0.401085 0.401066 0.401104 0.401213 0.4013 0.400273 0.389466 0.32241 
0.327977 0.394657 0.40477 0.405482 0.405158 0.4048 0.404471 0.404164 0.403872 
0.40359 0.403316 0.40305 0.402793 0.402544 0.402306 0.40208 0.40187 0.401677 
0.401504 0.401357 0.401236 0.40115 0.401101 0.401101 0.401155 0.401279 0.401388 
0.400441 0.389986 0.323774 0.328909 0.394674 0.404476 0.405137 0.404816 0.404468 
0.404152 0.403859 0.403583 0.403318 0.403063 0.402817 0.40258 0.402353 0.402137 
0.401934 0.401746 0.401576 0.401425 0.401299 0.401199 0.401133 0.401102 0.401118 
0.401187 0.401324 0.401452 0.400582 0.390476 0.325126 0.329874 0.394712 0.4042 
0.404811 0.404492 0.404153 0.403849 0.403569 0.403308 0.403058 0.402821 0.402592 
0.402374 0.402167 0.401971 0.401788 0.40162 0.40147 0.401339 0.401233 0.401151 
0.401102 0.401087 0.401118 0.4012 0.40135 0.401496 0.400699 0.390938 0.326468 
0.330869 0.394766 0.403942 0.404503 0.404185 0.403855 0.403561 0.403293 0.403045 
0.402809 0.402587 0.402375 0.402174 0.401984 0.401806 0.401642 0.401492 0.40136 
0.401248 0.401158 0.401093 0.40106 0.401059 0.401104 0.401197 0.401358 0.40152 
0.400794 0.391375 0.327804 0.331893 0.394836 0.403699 0.404211 0.403894 0.403571 
0.403287 0.403029 0.402793 0.402571 0.402362 0.402165 0.401979 0.401805 0.401643 
0.401495 0.401363 0.401247 0.40115 0.401076 0.401026 0.401007 0.401019 0.401076 
0.40118 0.40135 0.401528 0.400869 0.39179 0.329135 0.332943 0.394919 0.403469 
0.403933 0.403617 0.4033 0.403025 0.402777 0.402551 0.40234 0.402145 0.40196 
0.401789 0.401629 0.401482 0.401349 0.401231 0.40113 0.401048 0.400988 0.400951 
0.400944 0.400969 0.401036 0.401149 0.401328 0.40152 0.400926 0.392183 0.330463 
0.33402 0.395014 0.403252 0.403667 0.403351 0.403041 0.402774 0.402534 0.402318 
0.402118 0.401934 0.401762 0.401603 0.401456 0.401322 0.401202 0.401098 0.40101 
0.400941 0.400893 0.400869 0.400873 0.400908 0.400985 0.401107 0.401294 0.401498 
0.400967 0.392557 0.331789 0.335122 0.395118 0.403045 0.403413 0.403098 0.402793 
0.402532 0.402301 0.402094 0.401903 0.401729 0.401568 0.40142 0.401285 0.401163 
0.401055 0.400963 0.400887 0.40083 0.400793 0.40078 0.400795 0.400839 0.400924 
0.401054 0.401248 0.401464 0.400993 0.392913 0.333116 0.336248 0.395231 0.402848 
0.40317 0.402854 0.402554 0.4023 0.402076 0.401877 0.401695 0.40153 0.401378 
0.401241 0.401116 0.401005 0.400908 0.400827 0.400762 0.400715 0.400689 0.400685 
0.400709 0.400762 0.400855 0.400991 0.401192 0.401418 0.401006 0.393252 0.334445 
0.337397 0.395351 0.40266 0.402936 0.40262 0.402324 0.402076 0.401858 0.401666 
0.401492 0.401336 0.401193 0.401065 0.400949 0.400848 0.400761 0.400689 0.400634 
0.400597 0.40058 0.400585 0.400617 0.400677 0.400777 0.40092 0.401126 0.401362 
0.401005 0.393575 0.335777 0.338568 0.395476 0.402478 0.40271 0.402393 0.402102 
0.401859 0.401647 0.401462 0.401295 0.401146 0.401011 0.400891 0.400785 0.400692 
0.400614 0.400551 0.400505 0.400476 0.400467 0.40048 0.400519 0.400587 0.400693 
0.400841 0.401052 0.401297 0.400994 0.393884 0.337113 0.339761 0.395606 0.402304 
0.402492 0.402175 0.401887 0.401649 0.401442 0.401263 0.401102 0.40096 0.400832 
0.40072 0.400621 0.400537 0.400467 0.400412 0.400373 0.400352 0.400351 0.40037 
0.400417 0.40049 0.400602 0.400755 0.400971 0.401224 0.400972 0.394179 0.338454 
0.340974 0.39574 0.402134 0.402281 0.401963 0.401679 0.401445 0.401243 0.401069 
0.400914 0.400778 0.400657 0.400551 0.400459 0.400382 0.400319 0.400271 0.40024 
0.400225 0.400231 0.400257 0.400309 0.400388 0.400505 0.400663 0.400883 0.401144 
0.400941 0.394461 0.339801 0.342208 0.395876 0.40197 0.402076 0.401757 0.401476 
0.401246 0.401048 0.400879 0.400729 0.400599 0.400484 0.400384 0.400299 0.400228 
0.400171 0.40013 0.400105 0.400097 0.400108 0.40014 0.400198 0.400282 0.400403 
0.400565 0.400788 0.401056 0.400901 0.394731 0.341156 0.343462 0.396014 0.40181 
0.401877 0.401557 0.401279 0.401052 0.400858 0.400693 0.400548 0.400423 0.400313 
0.400219 0.400139 0.400074 0.400024 0.399988 0.399969 0.399966 0.399983 0.40002 
0.400083 0.400171 0.400297 0.400462 0.400689 0.400963 0.400852 0.394989 0.342519 
0.344736 0.396153 0.401654 0.401683 0.401362 0.401086 0.400863 0.400672 0.400511 
0.40037 0.40025 0.400145 0.400056 0.399981 0.399921 0.399876 0.399846 0.399831 
0.399834 0.399856 0.399897 0.399964 0.400057 0.400186 0.400354 0.400584 0.400864 
0.400797 0.395236 0.34389 0.346028 0.396291 0.401501 0.401493 0.401172 0.400898 
0.400677 0.40049 0.400333 0.400196 0.400079 0.399978 0.399894 0.399824 0.399769 
0.399728 0.399703 0.399693 0.3997 0.399726 0.399772 0.399843 0.399939 0.400072 
0.400243 0.400475 0.40076 0.400734 0.395472 0.345271 0.34734 0.396429 0.401351 
0.401307 0.400985 0.400713 0.400496 0.400311 0.400157 0.400023 0.399911 0.399814 
0.399733 0.399668 0.399617 0.39958 0.399559 0.399554 0.399565 0.399595 0.399644 
0.399719 0.399818 0.399954 0.400127 0.400362 0.400652 0.400665 0.395698 0.346663 
0.34867 0.396566 0.401203 0.401125 0.400802 0.400532 0.400317 0.400135 0.399984 
0.399853 0.399744 0.399651 0.399574 0.399512 0.399465 0.399433 0.399415 0.399414 
0.399428 0.399462 0.399515 0.399592 0.399695 0.399833 0.400008 0.400246 0.40054 
0.40059 0.395913 0.348065 0.350019 0.3967 0.401056 0.400946 0.400623 0.400354 
0.400142 0.399962 0.399813 0.399686 0.399579 0.39949 0.399416 0.399358 0.399314 
0.399285 0.399271 0.399273 0.399291 0.399328 0.399384 0.399464 0.399569 0.399709 
0.399887 0.400126 0.400424 0.40051 0.396118 0.349478 0.351386 0.396832 0.400912 
0.400771 0.400446 0.400179 0.399969 0.399791 0.399645 0.39952 0.399417 0.39933 
0.399259 0.399204 0.399163 0.399137 0.399127 0.399131 0.399152 0.399192 0.399251 
0.399333 0.39944 0.399583 0.399762 0.400003 0.400304 0.400425 0.396314 0.350904 
0.352772 0.396961 0.400768 0.400597 0.400273 0.400007 0.399798 0.399623 0.399479 
0.399356 0.399255 0.399171 0.399103 0.399051 0.399013 0.39899 0.398982 0.398989 
0.399013 0.399055 0.399116 0.399201 0.39931 0.399455 0.399636 0.399878 0.400182 
0.400335 0.3965 0.352342 0.354175 0.397086 0.400625 0.400426 0.400101 0.399837 
0.39963 0.399456 0.399315 0.399194 0.399096 0.399014 0.398949 0.398899 0.398863 