# vtk DataFile Version 5.1
vtk output
ASCII
DATASET UNSTRUCTURED_GRID
POINTS 9486 double
0.1016 1.5 0.1439999938 0.1016 1.45 0.16599999368 0.1016 1.4 0.15700000525 
0.1016 1.35 0.13199999928 0.1016 1.3 0.10700000077 0.1016 1.25 0.090000003576 
0.1016 1.2 0.075999997556 0.1016 1.15 0.059999998659 0.1016 1.1 0.0270000007 
0.1016 1.05 0 0.1016 1 -1.4520933349e-19 0.1016 0.95 -1.9172115972e-20 
0.1016 0.9 -1.9935036607e-21 0.1016 0.85 1.2043517074e-19 0.1016 0.8 2.5499320644e-20 
0.1016 0.75 -2.7692611041e-19 0.1016 0.7 0.0017266095383 0.1016 0.65 0.006275348831 
0.1016 0.6 0.015275382437 0.1016 0.55 0.034349132329 0.1016 0.5 0.057032302022 
0.1016 0.45 0.069950312376 0.1016 0.4 0.088548511267 0.1016 0.35 0.1118433848 
0.1016 0.3 0.13683372736 0.1016 0.25 0.16178821027 0.1016 0.2 0.18516084552 
0.1016 0.15 0.20709982514 0.1016 0.1 0.23110230267 0.1016 0.05 0.2536047399 
0.1016 0 0.2658187151 5.08 1.5 0.28700000048 5.08 1.45 0.28700000048 
5.08 1.4 0.28700000048 5.08 1.35 0.28700000048 5.08 1.3 0.28700000048 
5.08 1.25 0.28700000048 5.08 1.2 0.28700000048 5.08 1.15 0.28700000048 
5.08 1.1 0.28700000048 5.08 1.05 0.28700000048 5.08 1 0.28700000048 
5.08 0.95 0.28700000048 5.08 0.9 0.28700000048 5.08 0.85 0.28700000048 
5.08 0.8 0.28700000048 5.08 0.75 0.28700000048 5.08 0.7 0.28700000048 
5.08 0.65 0.28700000048 5.08 0.6 0.28700000048 5.08 0.55 0.28700000048 
5.08 0.5 0.28700000048 5.08 0.45 0.28700000048 5.08 0.4 0.28700000048 
5.08 0.35 0.28700000048 5.08 0.3 0.28700000048 5.08 0.25 0.28700000048 
5.08 0.2 0.28700000048 5.08 0.15 0.28700000048 5.08 0.1 0.28700000048 
5.08 0.05 0.28700000048 5.08 0 0.28700000048 0.151384 1.5 0.1567479223 
0.151384 1.45 0.17286509275 0.151384 1.4 0.17073737085 0.151384 1.35 0.14572574198 
0.151384 1.3 0.11582919955 0.151384 1.25 0.092948384583 0.151384 1.2 0.07700818032 
0.151384 1.15 0.068851865828 0.151384 1.1 0.049543965608 0.151384 1.05 0.021516673267 
0.151384 1 -3.315127833e-05 0.151384 0.95 7.8876604448e-07 0.151384 0.9 1.059683018e-05 
0.151384 0.85 9.8040231933e-07 0.151384 0.8 -2.1849093628e-06 0.151384 0.75 -3.5226723867e-06 
0.151384 0.7 1.8499395082e-05 0.151384 0.65 7.9339341028e-05 0.151384 0.6 0.00023758161115 
0.151384 0.55 0.014358749613 0.151384 0.5 0.042242851108 0.151384 0.45 0.043471399695 
0.151384 0.4 0.067320547998 0.151384 0.35 0.092297673225 0.151384 0.3 0.11927485466 
0.151384 0.25 0.14625304937 0.151384 0.2 0.17221662402 0.151384 0.15 0.19618578255 
0.151384 0.1 0.22608478367 0.151384 0.05 0.25985249877 0.151384 0 0.27087309957 
0.201168 1.5 0.16561856866 0.201168 1.45 0.17871999741 0.201168 1.4 0.17676354945 
0.201168 1.35 0.15559522808 0.201168 1.3 0.11983888596 0.201168 1.25 0.094892024994 
0.201168 1.2 0.078920572996 0.201168 1.15 0.070950694382 0.201168 1.1 0.057784538716 
0.201168 1.05 0.041227802634 0.201168 1 0.013341243379 0.201168 0.95 0.00081337126903 
0.201168 0.9 -9.6729381767e-05 0.201168 0.85 4.3826066758e-06 0.201168 0.8 2.196150308e-05 
0.201168 0.75 1.559098564e-05 0.201168 0.7 8.7562120825e-06 0.201168 0.65 -2.372284689e-05 
0.201168 0.6 0.00089719501557 0.201168 0.55 0.010063622147 0.201168 0.5 0.024555742741 
0.201168 0.45 0.041900422424 0.201168 0.4 0.064939498901 0.201168 0.35 0.092852219939 
0.201168 0.3 0.11602818966 0.201168 0.25 0.14302745461 0.201168 0.2 0.16709972918 
0.201168 0.15 0.19493468106 0.201168 0.1 0.22787478566 0.201168 0.05 0.26000612974 
0.201168 0 0.28352585435 0.250952 1.5 0.18197776377 0.250952 1.45 0.19118845463 
0.250952 1.4 0.18549700081 0.250952 1.35 0.16912814975 0.250952 1.3 0.13124585152 
0.250952 1.25 0.10149205476 0.250952 1.2 0.082699075341 0.250952 1.15 0.071913905442 
0.250952 1.1 0.063713997602 0.250952 1.05 0.053379669785 0.250952 1 0.037508849055 
0.250952 0.95 0.021492445841 0.250952 0.9 0.01854711771 0.250952 0.85 -0.00016757083358 
0.250952 0.8 -0.00013697004761 0.250952 0.75 -9.2888512881e-05 0.250952 0.7 -9.8218530184e-05 
0.250952 0.65 -9.6964897239e-05 0.250952 0.6 0.00091851141769 0.250952 0.55 0.013585589826 
0.250952 0.5 0.031274244189 0.250952 0.45 0.049358397722 0.250952 0.4 0.068670272827 
0.250952 0.35 0.094783261418 0.250952 0.3 0.11963667721 0.250952 0.25 0.14563524723 
0.250952 0.2 0.17340396345 0.250952 0.15 0.20428460836 0.250952 0.1 0.23357948661 
0.250952 0.05 0.26278209686 0.250952 0 0.28313687444 0.300736 1.5 0.19399508834 
0.300736 1.45 0.20023547113 0.300736 1.4 0.18880701065 0.300736 1.35 0.17733044922 
0.300736 1.3 0.14392086864 0.300736 1.25 0.11291036755 0.300736 1.2 0.093017399311 
0.300736 1.15 0.074714794755 0.300736 1.1 0.063125863671 0.300736 1.05 0.056883025914 
0.300736 1 0.049352236092 0.300736 0.95 0.048999961466 0.300736 0.9 0.037454549223 
0.300736 0.85 0.024520553648 0.300736 0.8 0.014218471944 0.300736 0.75 0.013365014456 
0.300736 0.7 0.013428580947 0.300736 0.65 0.012509510852 0.300736 0.6 0.016264114529 
0.300736 0.55 0.030294796452 0.300736 0.5 0.046519454569 0.300736 0.45 0.068144336343 
0.300736 0.4 0.084360465407 0.300736 0.35 0.10757743567 0.300736 0.3 0.13541725278 
0.300736 0.25 0.16240039468 0.300736 0.2 0.19048757851 0.300736 0.15 0.2160332799 
0.300736 0.1 0.24226686358 0.300736 0.05 0.26937404275 0.300736 0 0.28301364183 
0.35052 1.5 0.21993134916 0.35052 1.45 0.21074354649 0.35052 1.4 0.20069882274 
0.35052 1.35 0.18513572216 0.35052 1.3 0.16299076378 0.35052 1.25 0.1328061223 
0.35052 1.2 0.10550812632 0.35052 1.15 0.082031287253 0.35052 1.1 0.065586566925 
0.35052 1.05 0.056990623474 0.35052 1 0.056517597288 0.35052 0.95 0.054931458086 
0.35052 0.9 0.054607693106 0.35052 0.85 0.05337350443 0.35052 0.8 0.050241623074 
0.35052 0.75 0.045401591808 0.35052 0.7 0.041764829308 0.35052 0.65 0.038181420416 
0.35052 0.6 0.049359682947 0.35052 0.55 0.053449429572 0.35052 0.5 0.075672745705 
0.35052 0.45 0.094206869602 0.35052 0.4 0.11205533147 0.35052 0.35 0.13232547045 
0.35052 0.3 0.15671758354 0.35052 0.25 0.18109157681 0.35052 0.2 0.20635579526 
0.35052 0.15 0.22770810127 0.35052 0.1 0.2528437674 0.35052 0.05 0.2771576643 
0.35052 0 0.27940580249 0.400304 1.5 0.25204959512 0.400304 1.45 0.22509554029 
0.400304 1.4 0.20716628432 0.400304 1.35 0.1947825104 0.400304 1.3 0.17563907802 
0.400304 1.25 0.15354906023 0.400304 1.2 0.12714186311 0.400304 1.15 0.096911147237 
0.400304 1.1 0.071960628033 0.400304 1.05 0.060326248407 0.400304 1 0.054314594716 
0.400304 0.95 0.055935770273 0.400304 0.9 0.058099273592 0.400304 0.85 0.061934642494 
0.400304 0.8 0.06638301909 0.400304 0.75 0.073563411832 0.400304 0.7 0.06918977201 
0.400304 0.65 0.065876871347 0.400304 0.6 0.074191533029 0.400304 0.55 0.084406323731 
0.400304 0.5 0.10563553125 0.400304 0.45 0.11836013198 0.400304 0.4 0.13537698984 
0.400304 0.35 0.15452240407 0.400304 0.3 0.17936818302 0.400304 0.25 0.20155282319 
0.400304 0.2 0.225516662 0.400304 0.15 0.24568809569 0.400304 0.1 0.26810437441 
0.400304 0.05 0.28067526221 0.400304 0 0.28164991736 0.450088 1.5 0.27532985806 
0.450088 1.45 0.24766290188 0.450088 1.4 0.22488152981 0.450088 1.35 0.20526823401 
0.450088 1.3 0.19068862498 0.450088 1.25 0.17153072357 0.450088 1.2 0.14720769227 
0.450088 1.15 0.11596622318 0.450088 1.1 0.088109925389 0.450088 1.05 0.073329091072 
0.450088 1 0.061301834881 0.450088 0.95 0.058133840561 0.450088 0.9 0.056976977736 
0.450088 0.85 0.058463647962 0.450088 0.8 0.059413637966 0.450088 0.75 0.069595433772 
0.450088 0.7 0.078614637256 0.450088 0.65 0.086750224233 0.450088 0.6 0.097102992237 
0.450088 0.55 0.10639892519 0.450088 0.5 0.12029942125 0.450088 0.45 0.13905635476 
0.450088 0.4 0.15688975155 0.450088 0.35 0.17588445544 0.450088 0.3 0.19478820264 
0.450088 0.25 0.2194506973 0.450088 0.2 0.24432092905 0.450088 0.15 0.26188328862 
0.450088 0.1 0.27877542377 0.450088 0.05 0.2811152637 0.450088 0 0.28121048212 
0.499872 1.5 0.28093001246 0.499872 1.45 0.26895985007 0.499872 1.4 0.24557968974 
0.499872 1.35 0.22204914689 0.499872 1.3 0.20475672185 0.499872 1.25 0.18913467228 
0.499872 1.2 0.16759927571 0.499872 1.15 0.14318850636 0.499872 1.1 0.11431179196 
0.499872 1.05 0.10151998699 0.499872 1 0.078661836684 0.499872 0.95 0.07907731086 
0.499872 0.9 0.066150352359 0.499872 0.85 0.064533278346 0.499872 0.8 0.06694290787 
0.499872 0.75 0.067907102406 0.499872 0.7 0.081052526832 0.499872 0.65 0.09312158078 
0.499872 0.6 0.10833848268 0.499872 0.55 0.12406221777 0.499872 0.5 0.14032669365 
0.499872 0.45 0.16283677518 0.499872 0.4 0.17921827734 0.499872 0.35 0.19811299443 
0.499872 0.3 0.22109375894 0.499872 0.25 0.24196755886 0.499872 0.2 0.26218613982 
0.499872 0.15 0.27862411737 0.499872 0.1 0.28106892109 0.499872 0.05 0.28105315566 
0.499872 0 0.28098458052 0.549656 1.5 0.28194096684 0.549656 1.45 0.27982598543 
0.549656 1.4 0.26969575882 0.549656 1.35 0.24034294486 0.549656 1.3 0.2213806957 
0.549656 1.25 0.2057915777 0.549656 1.2 0.18980820477 0.549656 1.15 0.1675965488 
0.549656 1.1 0.14790244401 0.549656 1.05 0.1315792501 0.549656 1 0.10592649877 
0.549656 0.95 0.11231791973 0.549656 0.9 0.10229380429 0.549656 0.85 0.093455515802 
0.549656 0.8 0.098017551005 0.549656 0.75 0.092814289033 0.549656 0.7 0.098240911961 
0.549656 0.65 0.11210730672 0.549656 0.6 0.13140699267 0.549656 0.55 0.14442101121 
0.549656 0.5 0.16404305398 0.549656 0.45 0.18717969954 0.549656 0.4 0.20648564398 
0.549656 0.35 0.22647382319 0.549656 0.3 0.24663420022 0.549656 0.25 0.26602104306 
0.549656 0.2 0.27693924308 0.549656 0.15 0.27970176935 0.549656 0.1 0.28026017547 
0.549656 0.05 0.28016328812 0.549656 0 0.28018698096 0.59944 1.5 0.28204590082 
0.59944 1.45 0.28057417274 0.59944 1.4 0.27947312593 0.59944 1.35 0.26847994328 
0.59944 1.3 0.24638035893 0.59944 1.25 0.22713595629 0.59944 1.2 0.21167001128 
0.59944 1.15 0.19623626769 0.59944 1.1 0.17745691538 0.59944 1.05 0.1536591202 
0.59944 1 0.13844637573 0.59944 0.95 0.14289885759 0.59944 0.9 0.13580177724 
0.59944 0.85 0.13281977177 0.59944 0.8 0.1312892884 0.59944 0.75 0.13088361919 
0.59944 0.7 0.13225881755 0.59944 0.65 0.14174735546 0.59944 0.6 0.16041781008 
[...]
CELL_DATA 9150
FIELD FieldData 7
B_Stress_n_p_m2 1 9150 float
0.398774 0.411588 0.415964 0.415299 0.416461 0.420938 0.428266 0.433261 0.429729 
0.421069 0.416111 0.408142 0.392804 0.367729 0.324562 0.235929 0.165243 0.122396 
0.0977429 0.0813686 0.0687603 0.0595864 0.0531322 0.0483391 0.0447409 0.0420443 0.0404299 
0.0401274 0.0408227 0.0405139 0.387132 0.398223 0.40375 0.39976 0.396676 0.397568 
0.401777 0.407284 0.408212 0.400158 0.387776 0.377414 0.360339 0.335793 0.295851 
0.233434 0.17856 0.139546 0.113061 0.0942068 0.0796854 0.0679649 0.0598075 0.052961 
0.0473777 0.0429437 0.0399387 0.0382658 0.0375706 0.0373058 0.377295 0.387337 0.392 
0.38684 0.379265 0.376994 0.377826 0.380376 0.381009 0.377319 0.366312 0.350839 
0.32987 0.303804 0.269239 0.225215 0.183804 0.150766 0.126362 0.107824 0.0930139 
0.0817005 0.0729987 0.0659544 0.0601995 0.0561402 0.0535124 0.0523805 0.0521033 0.0520214 
0.368513 0.37948 0.382386 0.378674 0.368906 0.362316 0.358458 0.356137 0.354673 
0.352107 0.345663 0.330893 0.310868 0.283228 0.253421 0.219124 0.18593 0.158458 
0.136708 0.120266 0.106759 0.095736 0.0870496 0.080372 0.075192 0.0716235 0.0695474 
0.0691207 0.0693564 0.0694735 0.366203 0.376707 0.377128 0.374523 0.365315 0.354558 
0.345416 0.337192 0.331403 0.327253 0.321149 0.311893 0.295317 0.27452 0.248789 
0.220074 0.192295 0.168874 0.149972 0.135682 0.12306 0.112884 0.104478 0.0982799 
0.0937443 0.0907039 0.0891793 0.0892328 0.0897266 0.0900363 0.384281 0.382564 0.378916 
0.373914 0.366437 0.353889 0.338828 0.325098 0.31493 0.306569 0.299199 0.289428 
0.277577 0.262932 0.244934 0.222664 0.200479 0.181077 0.165896 0.152466 0.14172 
0.13216 0.124668 0.119093 0.115489 0.113618 0.113125 0.11355 0.113318 0.113752 
0.421512 0.40304 0.387743 0.379309 0.370071 0.357171 0.340351 0.322789 0.308982 
0.296413 0.284992 0.272835 0.260609 0.24768 0.233985 0.220304 0.205275 0.191483 
0.179556 0.169164 0.160831 0.152627 0.146622 0.142484 0.140767 0.140766 0.141552 
0.140968 0.13892 0.137592 0.457998 0.435059 0.409828 0.391782 0.379868 0.36641 
0.349796 0.331929 0.316259 0.300184 0.286395 0.270876 0.25627 0.243373 0.229903 
0.219072 0.210006 0.202208 0.194534 0.188025 0.182762 0.178338 0.174784 0.173033 
0.172524 0.173069 0.172552 0.1687 0.163815 0.160387 0.476231 0.46798 0.444391 
0.417485 0.397842 0.383069 0.366953 0.350644 0.332768 0.316571 0.301279 0.286771 
0.27015 0.256467 0.243793 0.232354 0.225621 0.221407 0.21801 0.216098 0.214669 
0.214473 0.212882 0.212295 0.211518 0.207916 0.201659 0.194315 0.186098 0.181756 
0.479991 0.483704 0.480857 0.45783 0.430876 0.408523 0.391314 0.373609 0.355276 
0.338832 0.324509 0.312706 0.298226 0.283391 0.271696 0.26059 0.253748 0.251408 
0.252219 0.25282 0.252816 0.253433 0.253069 0.251464 0.246383 0.237433 0.226189 
0.21522 0.206798 0.202249 0.479957 0.4851 0.492747 0.493483 0.474932 0.447898 
0.423801 0.403197 0.383831 0.365571 0.35299 0.343153 0.331284 0.319061 0.306575 
0.297086 0.289496 0.284442 0.283364 0.283636 0.282305 0.277664 0.276175 0.271954 
0.266376 0.256647 0.244755 0.234622 0.226978 0.222454 0.48206 0.486831 0.493251 
0.501584 0.505688 0.493712 0.470617 0.445556 0.422604 0.403791 0.388757 0.378001 
0.368814 0.360478 0.350183 0.340687 0.330658 0.320166 0.3106 0.303313 0.298505 
0.290841 0.284827 0.280489 0.276077 0.270142 0.261597 0.253159 0.246219 0.241603 
0.484816 0.490527 0.49609 0.502515 0.510821 0.516521 0.5133 0.497679 0.476275 
0.455109 0.441479 0.426924 0.41703 0.410634 0.40393 0.393884 0.380226 0.365208 
0.348487 0.331027 0.318969 0.312444 0.305553 0.29963 0.293281 0.286216 0.279044 
0.270628 0.263657 0.258759 0.485689 0.492368 0.498323 0.503986 0.510135 0.517821 
0.524961 0.528191 0.522483 0.510513 0.497193 0.488149 0.476093 0.466077 0.458249 
0.447497 0.434094 0.416502 0.398724 0.380222 0.36034 0.348294 0.340609 0.33082 
0.319242 0.308108 0.296845 0.287512 0.280458 0.275475 0.488454 0.494746 0.501301 
0.507554 0.513613 0.519928 0.526327 0.533716 0.539715 0.541455 0.536022 0.530078 
0.521612 0.510749 0.498547 0.485796 0.472459 0.458243 0.443429 0.427537 0.409851 
0.392276 0.37615 0.362038 0.345212 0.33009 0.317014 0.307249 0.299852 0.295161 
0.496588 0.502369 0.508978 0.515566 0.521804 0.527709 0.53311 0.538144 0.543331 
0.547457 0.548214 0.544164 0.538057 0.529083 0.51733 0.504642 0.491638 0.479149 
0.4658 0.451733 0.437757 0.421421 0.40302 0.384957 0.367779 0.352492 0.340013 
0.330082 0.322388 0.317893 0.50275 0.508087 0.514337 0.520473 0.526151 0.531253 
0.535797 0.539509 0.54231 0.544 0.54406 0.540922 0.535245 0.52743 0.517829 
0.506985 0.495409 0.483376 0.470758 0.457784 0.444522 0.430354 0.41495 0.398543 
0.383711 0.370366 0.358906 0.349296 0.341725 0.337427 0.501576 0.506907 0.512746 
0.518236 0.523152 0.527431 0.531015 0.53376 0.535499 0.535953 0.534765 0.531506 
0.526357 0.5195 0.511187 0.50177 0.491568 0.480771 0.469404 0.457562 0.445292 
0.432497 0.419253 0.405858 0.393156 0.381468 0.371129 0.362254 0.355058 0.350603 
0.497901 0.503631 0.509157 0.514152 0.518494 0.522132 0.525002 0.527005 0.528013 
0.527835 0.526253 0.523091 0.518414 0.512339 0.505045 0.49677 0.487731 0.478083 
0.467903 0.457272 0.446255 0.434878 0.423268 0.411698 0.400589 0.39024 0.3809 
0.372713 0.365869 0.361024 0.494409 0.500363 0.505675 0.510309 0.514217 0.517365 
0.519708 0.521178 0.521686 0.52112 0.519361 0.516325 0.512045 0.506608 0.500144 
0.492815 0.48478 0.476165 0.46706 0.457551 0.447711 0.437614 0.427384 0.417226 
0.407412 0.398165 0.389677 0.382077 0.375524 0.370447 0.491045 0.497033 0.502192 
0.506564 0.510149 0.512934 0.514896 0.515995 0.516181 0.515391 0.513568 0.510678 
0.506751 0.501854 0.496085 0.489562 0.482404 0.474715 0.466584 0.458092 0.449317 
0.440342 0.431282 0.422288 0.413544 0.405215 0.397445 0.390343 0.384036 0.37887 
0.487758 0.493718 0.498756 0.502937 0.506285 0.508808 0.510502 0.511354 0.511344 
0.510444 0.508635 0.505914 0.502312 0.497886 0.492715 0.486888 0.4805 0.473638 
0.466379 0.4588 0.450974 0.442981 0.434915 0.426892 0.419039 0.411476 0.404313 
0.397634 0.391543 0.386336 0.484581 0.490498 0.495439 0.499479 0.502656 0.504994 
0.506508 0.507205 0.507087 0.506153 0.504409 0.501871 0.498573 0.494568 0.489921 
0.484704 0.478995 0.472865 0.466383 0.459616 0.452628 0.445489 0.438274 0.43107 
0.423967 0.417051 0.410402 0.404083 0.39818 0.392947 0.481543 0.487417 0.49228 
0.496217 0.499274 0.501487 0.502885 0.503493 0.50333 0.502414 0.500768 0.498419 
0.495408 0.491783 0.487601 0.482923 0.477814 0.472333 0.46654 0.46049 0.454239 
0.447843 0.44136 0.434853 0.428386 0.422018 0.415807 0.409797 0.404056 0.398803 
0.478665 0.484499 0.489302 0.493163 0.496138 0.498271 0.499603 0.50017 0.500006 
0.499143 0.497614 0.495458 0.492716 0.489436 0.48567 0.481471 0.476893 0.471988 
0.466803 0.461387 0.455782 0.450032 0.444181 0.438273 0.432349 0.426449 0.420612 
0.414866 0.409265 0.403992 0.47596 0.481758 0.486514 0.490323 0.493245 0.495331 
0.496632 0.497193 0.497058 0.49627 0.494871 0.492904 0.490415 0.487451 0.484059 
0.480287 0.476181 0.471785 0.467139 0.462279 0.457241 0.452055 0.446752 0.441359 
0.435902 0.430404 0.424888 0.419369 0.413887 0.408596 0.473435 0.479201 0.483922 
0.487695 0.490585 0.492649 0.493944 0.494523 0.494438 0.493739 0.492474 0.490693 
0.488441 0.485765 0.48271 0.47932 0.475634 0.47169 0.467519 0.46315 0.458609 
0.453916 0.449088 0.444142 0.439088 0.433937 0.428696 0.423374 0.417994 0.412685 
0.471092 0.476829 0.481523 0.485274 0.488148 0.490208 0.491515 0.492128 0.492105 
0.491503 0.490373 0.488769 0.486738 0.484326 0.481576 0.478528 0.475217 0.471673 
0.467922 0.463987 0.459882 0.45562 0.451208 0.446649 0.441945 0.437094 0.432093 
0.426939 0.421647 0.416324 0.468929 0.474639 0.479313 0.483051 0.485921 0.487989 
0.489319 0.489977 0.490024 0.489522 0.488525 0.487089 0.485263 0.483092 0.480618 
0.477876 0.474899 0.471711 0.468334 0.46478 0.46106 0.457176 0.453127 0.448907 
0.444508 0.439918 0.435125 0.430118 0.424902 0.419564 0.466941 0.472626 0.477285 
0.481016 0.48389 0.485974 0.487336 0.488045 0.488166 0.487762 0.486894 0.485616 
0.483979 0.482029 0.479804 0.477338 0.474659 0.471788 0.46874 0.465525 0.462143 
0.458592 0.454862 0.45094 0.446807 0.442445 0.437834 0.432955 0.427805 0.422455 
0.465119 0.470782 0.47543 0.47916 0.482042 0.484147 0.485545 0.486307 0.486502 
0.486196 0.48545 0.48432 0.482858 0.481107 0.479107 0.476889 0.474477 0.471888 
0.469134 0.466218 0.463136 0.459879 0.45643 0.452769 0.448871 0.444709 0.440257 
0.43549 0.430399 0.425038 0.463456 0.469099 0.473738 0.477469 0.480363 0.482492 
0.483928 0.484745 0.485012 0.484799 0.484167 0.483175 0.481872 0.480305 0.478508 
0.476512 0.474339 0.472002 0.469509 0.466859 0.464043 0.461045 0.457845 0.454414 
0.450723 0.446738 0.442427 0.437759 0.432719 0.427348 0.461942 0.467567 0.472199 
0.475933 0.478841 0.480995 0.482469 0.483338 0.483675 0.483549 0.483024 0.482159 
0.481003 0.479601 0.477988 0.476192 0.474233 0.472121 0.469861 0.467447 0.464867 
0.4621 0.45912 0.455895 0.452387 0.448558 0.444372 0.439792 0.434797 0.429418 
0.460568 0.466175 0.470802 0.47454 0.477462 0.479641 0.481152 0.482072 0.482474 
0.48243 0.482004 0.481254 0.480232 0.47898 0.477533 0.475917 0.47415 0.47224 
0.470187 0.467985 0.465615 0.463053 0.460269 0.457226 0.453881 0.450192 0.446117 
0.441615 0.436661 0.431275 0.459324 0.464915 0.469538 0.47328 0.476216 0.478418 
0.479964 0.480931 0.481394 0.481425 0.481089 0.480445 0.479544 0.478429 0.477131 
0.475677 0.474082 0.472353 0.470486 0.468472 0.46629 0.463912 0.461304 0.458423 
0.455224 0.45166 0.447685 0.443253 0.438335 0.432943 0.458201 0.463777 0.468395 
0.472142 0.47509 0.477314 0.478891 0.479902 0.480421 0.48052 0.480267 0.47972 
0.478929 0.477936 0.476773 0.475465 0.474025 0.472457 0.470758 0.468912 0.466899 
0.464686 0.462234 0.459499 0.456432 0.45298 0.449095 0.444727 0.439842 0.434445 
0.457189 0.462751 0.467365 0.471115 0.474074 0.476317 0.477924 0.478974 0.479543 
0.479705 0.479526 0.479066 0.478374 0.477492 0.476452 0.475274 0.473973 0.472551 
0.471001 0.469308 0.467445 0.46538 0.46307 0.460467 0.457518 0.454169 0.450364 
0.446054 0.4412 0.435799 0.45628 0.461829 0.466439 0.470191 0.473159 0.475419 
0.477051 0.478136 0.47875 0.478968 0.478857 0.478475 0.477873 0.47709 0.476159 
0.4751 0.473924 0.472632 0.471217 0.46966 0.467935 0.466003 0.463821 0.461338 
0.458496 0.455239 0.451508 0.447251 0.442425 0.437021 0.455465 0.461002 0.465607 
0.46936 0.472336 0.47461 0.476264 0.477379 0.478033 0.478301 0.47825 0.477938 
0.477416 0.476724 0.475891 0.474938 0.473874 0.472701 0.471407 0.469974 0.468371 
0.466561 0.464495 0.46212 0.459377 0.456204 0.452541 0.448333 0.443532 0.438126 
0.454737 0.460262 0.464862 0.468616 0.471596 0.473882 0.475554 0.476694 0.477383 
0.477695 0.477697 0.477449 0.476999 0.476387 0.475642 0.474785 0.473823 0.472755 
0.471572 0.47025 0.468759 0.467059 0.465099 0.462823 0.46017 0.457075 0.453475 
0.449311 0.444536 0.439128 0.454089 0.459603 0.464197 0.467949 0.470933 0.473226 
0.474913 0.476075 0.476794 0.477144 0.477193 0.477 0.476615 0.476075 0.47541 
0.474638 0.473768 0.472797 0.471712 0.470492 0.469103 0.467502 0.465639 0.463455 
0.460884 0.457862 0.45432 0.450199 0.445446 0.440038 0.453513 0.459016 0.463604 
0.467353 0.470338 0.472637 0.474335 0.475515 0.476258 0.476641 0.476732 0.476588 
0.47626 0.475785 0.475191 0.474497 0.473709 0.472825 0.47183 0.470702 0.469406 
0.467897 0.466123 0.464023 0.461529 0.458573 0.455086 0.451004 0.446273 0.440866 
0.453004 0.458497 0.463078 0.466823 0.469806 0.472108 0.473813 0.475007 0.475771 
0.476182 0.476308 0.476208 0.47593 0.475513 0.474983 0.474358 0.473645 0.472839 
0.471927 0.470882 0.469671 0.468247 0.466555 0.464533 0.462111 0.459217 0.455782 
0.451737 0.447028 0.441621 0.452556 0.458039 0.462612 0.466351 0.469331 0.471632 
0.473342 0.474546 0.475326 0.475761 0.475917 0.475855 0.475622 0.475256 0.474784 
0.474222 0.473576 0.472841 0.472003 0.471036 0.469902 0.468556 0.466941 0.464991 
0.462636 0.459802 0.456415 0.452406 0.447716 0.442311 0.452164 0.457636 0.462201 
0.465933 0.468907 0.471206 0.472917 0.474127 0.47492 0.475373 0.475556 0.475526 
0.475333 0.475012 0.474592 0.474086 0.473501 0.472831 0.472061 0.471164 0.470103 
0.468829 0.467284 0.465402 0.463111 0.460332 0.456991 0.453016 0.448347 0.442944 
0.451822 0.457285 0.461841 0.465564 0.46853 0.470824 0.472533 0.473746 0.474548 
0.475016 0.47522 0.475219 0.47506 0.47478 0.474405 0.47395 0.473421 0.47281 
0.472102 0.471269 0.470274 0.469067 0.467589 0.465772 0.46354 0.460814 0.457518 
0.453576 0.448925 0.443525 0.451526 0.45698 0.461526 0.465239 0.468196 0.470481 
0.472186 0.473399 0.474206 0.474685 0.474907 0.47493 0.474801 0.474557 0.474223 
0.473814 0.473334 0.472777 0.472126 0.471353 0.47042 0.469276 0.46786 0.466103 
0.463928 0.461253 0.457999 0.454089 0.449458 0.444061 0.451273 0.456717 0.461253 
0.464955 0.4679 0.470175 0.471872 0.473082 0.473891 0.474379 0.474615 0.474658 
0.474555 0.474343 0.474045 0.473677 0.473243 0.472734 0.472136 0.471418 0.470542 
0.469456 0.4681 0.4664 0.464279 0.461654 0.458441 0.454562 0.44995 0.444557 
0.451059 0.456494 0.461019 0.464707 0.467639 0.469902 0.471589 0.472793 0.473601 
0.474093 0.47434 0.4744 0.474319 0.474135 0.47387 0.473539 0.473145 0.472682 
0.472131 0.471465 0.470642 0.469612 0.468311 0.466667 0.464598 0.46202 0.458847 
0.454999 0.450406 0.445017 0.45088 0.456306 0.460819 0.464493 0.467409 0.469657 
0.471332 0.472527 0.473332 0.473826 0.474081 0.474154 0.474093 0.473932 0.473697 
0.473399 0.473043 0.47262 0.472114 0.471495 0.470723 0.469745 0.468497 0.466905 
0.464887 0.462355 0.459222 0.455404 0.450829 0.445445 0.450734 0.45615 0.46065 
0.464309 0.467208 0.46944 0.4711 0.472284 0.473082 0.473576 0.473835 0.473919 
0.473874 0.473735 0.473525 0.473258 0.472935 0.47255 0.472085 0.47151 0.470785 
0.469856 0.468659 0.467118 0.465149 0.462662 0.459568 0.45578 0.451224 0.445845 
0.450617 0.456024 0.460511 0.464153 0.467033 0.469246 0.470889 0.47206 0.47285 
0.47334 0.473602 0.473694 0.473663 0.473542 0.473355 0.473114 0.472823 0.472472 
0.472045 0.471512 0.470831 0.469949 0.468801 0.467309 0.465388 0.462945 0.459889 
0.456131 0.451594 0.446221 0.450528 0.455926 0.460398 0.464022 0.466882 0.469074 
0.470698 0.471854 0.472632 0.473117 0.473379 0.473477 0.473457 0.473352 0.473185 
0.472969 0.472706 0.472387 0.471995 0.4715 0.470861 0.470024 0.468923 0.467479 
0.465605 0.463206 0.460188 0.45646 0.451942 0.446575 0.450464 0.455852 0.46031 
0.463914 0.466751 0.468921 0.470525 0.471662 0.472428 0.472905 0.473166 0.473267 
0.473256 0.473165 0.473016 0.472822 0.472584 0.472294 0.471935 0.471477 0.470878 
0.470084 0.469028 0.467631 0.465802 0.463447 0.460467 0.456769 0.452271 0.44691 
0.450424 0.455802 0.460243 0.463826 0.466641 0.468786 0.470367 0.471485 0.472236 
0.472704 0.47296 0.473064 0.47306 0.47298 0.472847 0.472673 0.472458 0.472195 
0.471867 0.471442 0.470881 0.470129 0.469117 0.467766 0.465983 0.46367 0.460728 
0.45706 0.452582 0.447229 0.450405 0.455773 0.460198 0.463758 0.466547 0.468666 
0.470223 0.47132 0.472054 0.472511 0.472762 0.472866 0.472867 0.472797 0.472678 
0.472521 0.472328 0.47209 0.47179 0.471398 0.470873 0.470161 0.469192 0.467885 
0.466147 0.463878 0.460974 0.457337 0.452879 0.447533 0.450405 0.455763 0.460171 
0.463708 0.46647 0.468561 0.470091 0.471165 0.471881 0.472325 0.47257 0.472672 
0.472677 0.472615 0.472509 0.472368 0.472194 0.471979 0.471706 0.471345 0.470854 
0.47018 0.469254 0.467991 0.466298 0.464071 0.461206 0.4576 0.453163 0.447825 
0.450425 0.455772 0.460161 0.463674 0.466407 0.468469 0.46997 0.47102 0.471716 
0.472147 0.472383 0.472483 0.47249 0.472435 0.472339 0.472213 0.472057 0.471863 
0.471615 0.471282 0.470825 0.470189 0.469303 0.468084 0.466435 0.464252 0.461426 
0.457851 0.453436 0.448106 0.450461 0.455798 0.460167 0.463654 0.466357 0.468388 
0.469859 0.470883 0.471558 0.471973 0.4722 0.472296 0.472304 0.472255 0.472169 
0.472055 0.471916 0.471742 0.471517 0.471212 0.470787 0.470187 0.469341 0.468165 
0.466562 0.464422 0.461635 0.458093 0.453699 0.448379 0.450514 0.455839 0.460189 
0.463648 0.466319 0.468317 0.469757 0.470753 0.471406 0.471805 0.472021 0.472112 
0.472121 0.472076 0.471998 0.471896 0.471771 0.471616 0.471413 0.471134 0.47074 
0.470175 0.469369 0.468237 0.466677 0.464582 0.461835 0.458326 0.453955 0.448644 
0.450582 0.455895 0.460224 0.463654 0.466292 0.468255 0.469663 0.470629 0.471259 
0.47164 0.471846 0.471931 0.471939 0.471898 0.471827 0.471735 0.471624 0.471485 
0.471303 0.47105 0.470685 0.470154 0.469388 0.468298 0.466784 0.464733 0.462027 
0.458552 0.454204 0.448903 0.450664 0.455966 0.460272 0.463672 0.466275 0.468202 
0.469575 0.470511 0.471116 0.471479 0.471672 0.471751 0.471757 0.471719 0.471654 
0.471572 0.471474 0.471351 0.471188 0.470958 0.470622 0.470125 0.469397 0.46835 
0.466881 0.464876 0.462212 0.458771 0.454448 0.449157 0.45076 0.456049 0.460332 
0.4637 0.466267 0.468155 0.469492 0.470398 0.470977 0.471321 0.471501 0.471573 
0.471577 0.471541 0.471481 0.471408 0.47132 0.471212 0.471068 0.470861 0.470552 
0.470088 0.469398 0.468394 0.466971 0.465012 0.462391 0.458986 0.454688 0.449408 
0.450868 0.456145 0.460403 0.463738 0.466266 0.468115 0.469415 0.470288 0.470841 
0.471165 0.471332 0.471396 0.471397 0.471362 0.471307 0.471241 0.471165 0.47107 
0.470943 0.470758 0.470476 0.470044 0.469392 0.468431 0.467054 0.465141 0.462564 
0.459196 0.454924 0.449657 0.45099 0.456253 0.460486 0.463786 0.466273 0.468081 
0.469342 0.470181 0.470707 0.47101 0.471163 0.471219 0.471217 0.471183 0.471132 
0.471073 0.471006 0.470925 0.470814 0.470649 0.470393 0.469993 0.469378 0.46846 
0.46713 0.465265 0.462733 0.459404 0.455159 0.449904 0.451123 0.456372 0.460578 
0.463841 0.466287 0.468052 0.469272 0.470076 0.470574 0.470857 0.470996 0.471043 
0.471038 0.471004 0.470957 0.470904 0.470845 0.470776 0.47068 0.470535 0.470304 
0.469935 0.469358 0.468483 0.4672 0.465384 0.462898 0.459609 0.455392 0.45015 
0.451268 0.456503 0.46068 0.463905 0.466306 0.468026 0.469206 0.469974 0.470443 
0.470704 0.470828 0.470868 0.470858 0.470824 0.47078 0.470733 0.470682 0.470624 
0.470543 0.470416 0.470209 0.469871 0.46933 0.468499 0.467264 0.465498 0.463061 
0.459812 0.455625 0.450397 0.451424 0.456644 0.460791 0.463975 0.466331 0.468005 
0.469141 0.469872 0.470312 0.470552 0.470661 0.470692 0.470679 0.470644 0.470602 
0.47056 0.470517 0.470469 0.470401 0.470293 0.470109 0.4698 0.469297 0.468509 
0.467323 0.465608 0.46322 0.460015 0.455859 0.450645 0.451591 0.456795 0.460911 
0.464053 0.466361 0.467986 0.469078 0.469771 0.470181 0.470399 0.470494 0.470516 
0.470499 0.470464 0.470424 0.470386 0.47035 0.470311 0.470256 0.470165 0.470004 
0.469724 0.469257 0.468513 0.467376 0.465714 0.463378 0.460217 0.456093 0.450895 
0.45177 0.456957 0.46104 0.464137 0.466395 0.46797 0.469016 0.469671 0.470051 
0.470247 0.470327 0.47034 0.470318 0.470282 0.470245 0.470211 0.470181 0.470151 
0.470108 0.470033 0.469893 0.469642 0.469212 0.468511 0.467425 0.465817 0.463534 
0.46042 0.45633 0.451148 0.45196 0.457129 0.461176 0.464227 0.466432 0.467955 
0.468954 0.46957 0.469919 0.470093 0.470159 0.470163 0.470137 0.470101 0.470065 
0.470035 0.470011 0.469988 0.469956 0.469897 0.469778 0.469555 0.46916 0.468504 
0.467469 0.465917 0.463689 0.460623 0.456569 0.451405 0.45216 0.457311 0.461321 
0.464322 0.466473 0.467942 0.468892 0.469468 0.469787 0.469939 0.46999 0.469986 
0.469956 0.469919 0.469884 0.469857 0.469838 0.469823 0.469802 0.469756 0.469658 
0.469462 0.469103 0.468491 0.467509 0.466013 0.463843 0.460828 0.456812 0.451665 
0.452372 0.457502 0.461474 0.464423 0.466516 0.467929 0.46883 0.469365 0.469653 
0.469783 0.469821 0.469808 0.469774 0.469736 0.469703 0.469679 0.469664 0.469656 
0.469644 0.469613 0.469534 0.469364 0.46904 0.468472 0.467543 0.466107 0.463996 
0.461035 0.457058 0.451932 0.452595 0.457704 0.461634 0.464528 0.466561 0.467916 
0.468766 0.46926 0.469518 0.469627 0.46965 0.46963 0.469592 0.469553 0.469521 