# vtk DataFile Version 5.1
vtk output
ASCII
DATASET UNSTRUCTURED_GRID
POINTS 4712 double
0.1016 1.5 0 0.1016 1.45 0 0.1016 1.4 0 
0.1016 1.35 0 0.1016 1.3 0 0.1016 1.25 0 
0.1016 1.2 0 0.1016 1.15 0 0.1016 1.1 0 
0.1016 1.05 0 0.1016 1 0 0.1016 0.95 0 
0.1016 0.9 0 0.1016 0.85 0 0.1016 0.8 0 
0.1016 0.75 0 0.1016 0.7 0 0.1016 0.65 0 
0.1016 0.6 0 0.1016 0.55 0 0.1016 0.5 0 
0.1016 0.45 0 0.1016 0.4 0 0.1016 0.35 0 
0.1016 0.3 0 0.1016 0.25 0 0.1016 0.2 0 
0.1016 0.15 0 0.1016 0.1 0 0.1016 0.05 0 
0.1016 0 0 5.08 1.5 0 5.08 1.45 0 
5.08 1.4 0 5.08 1.35 0 5.08 1.3 0 
5.08 1.25 0 5.08 1.2 0 5.08 1.15 0 
5.08 1.1 0 5.08 1.05 0 5.08 1 0 
5.08 0.95 0 5.08 0.9 0 5.08 0.85 0 
5.08 0.8 0 5.08 0.75 0 5.08 0.7 0 
5.08 0.65 0 5.08 0.6 0 5.08 0.55 0 
5.08 0.5 0 5.08 0.45 0 5.08 0.4 0 
5.08 0.35 0 5.08 0.3 0 5.08 0.25 0 
5.08 0.2 0 5.08 0.15 0 5.08 0.1 0 
5.08 0.05 0 5.08 0 0 0.12737462728 1.5 0 
0.12737462728 1.45 0 0.12737462728 1.4 0 0.12737462728 1.35 0 
0.12737462728 1.3 0 0.12737462728 1.25 0 0.12737462728 1.2 0 
0.12737462728 1.15 0 0.12737462728 1.1 0 0.12737462728 1.05 0 
0.12737462728 1 0 0.12737462728 0.95 0 0.12737462728 0.9 0 
0.12737462728 0.85 0 0.12737462728 0.8 0 0.12737462728 0.75 0 
0.12737462728 0.7 0 0.12737462728 0.65 0 0.12737462728 0.6 0 
0.12737462728 0.55 0 0.12737462728 0.5 0 0.12737462728 0.45 0 
0.12737462728 0.4 0 0.12737462728 0.35 0 0.12737462728 0.3 0 
0.12737462728 0.25 0 0.12737462728 0.2 0 0.12737462728 0.15 0 
0.12737462728 0.1 0 0.12737462728 0.05 0 0.12737462728 0 0 
0.15441581276 1.5 0 0.15441581276 1.45 0 0.15441581276 1.4 0 
0.15441581276 1.35 0 0.15441581276 1.3 0 0.15441581276 1.25 0 
0.15441581276 1.2 0 0.15441581276 1.15 0 0.15441581276 1.1 0 
0.15441581276 1.05 0 0.15441581276 1 0 0.15441581276 0.95 0 
0.15441581276 0.9 0 0.15441581276 0.85 0 0.15441581276 0.8 0 
0.15441581276 0.75 0 0.15441581276 0.7 0 0.15441581276 0.65 0 
0.15441581276 0.6 0 0.15441581276 0.55 0 0.15441581276 0.5 0 
0.15441581276 0.45 0 0.15441581276 0.4 0 0.15441581276 0.35 0 
0.15441581276 0.3 0 0.15441581276 0.25 0 0.15441581276 0.2 0 
0.15441581276 0.15 0 0.15441581276 0.1 0 0.15441581276 0.05 0 
0.15441581276 0 0 0.18278579477 1.5 0 0.18278579477 1.45 0 
0.18278579477 1.4 0 0.18278579477 1.35 0 0.18278579477 1.3 0 
0.18278579477 1.25 0 0.18278579477 1.2 0 0.18278579477 1.15 0 
0.18278579477 1.1 0 0.18278579477 1.05 0 0.18278579477 1 0 
0.18278579477 0.95 0 0.18278579477 0.9 0 0.18278579477 0.85 0 
0.18278579477 0.8 0 0.18278579477 0.75 0 0.18278579477 0.7 0 
0.18278579477 0.65 0 0.18278579477 0.6 0 0.18278579477 0.55 0 
0.18278579477 0.5 0 0.18278579477 0.45 0 0.18278579477 0.4 0 
0.18278579477 0.35 0 0.18278579477 0.3 0 0.18278579477 0.25 0 
0.18278579477 0.2 0 0.18278579477 0.15 0 0.18278579477 0.1 0 
0.18278579477 0.05 0 0.18278579477 0 0 0.21254987001 1.5 0 
0.21254987001 1.45 0 0.21254987001 1.4 0 0.21254987001 1.35 0 
0.21254987001 1.3 0 0.21254987001 1.25 0 0.21254987001 1.2 0 
0.21254987001 1.15 0 0.21254987001 1.1 0 0.21254987001 1.05 0 
0.21254987001 1 0 0.21254987001 0.95 0 0.21254987001 0.9 0 
0.21254987001 0.85 0 0.21254987001 0.8 0 0.21254987001 0.75 0 
0.21254987001 0.7 0 0.21254987001 0.65 0 0.21254987001 0.6 0 
0.21254987001 0.55 0 0.21254987001 0.5 0 0.21254987001 0.45 0 
0.21254987001 0.4 0 0.21254987001 0.35 0 0.21254987001 0.3 0 
0.21254987001 0.25 0 0.21254987001 0.2 0 0.21254987001 0.15 0 
0.21254987001 0.1 0 0.21254987001 0.05 0 0.21254987001 0 0 
0.24377654385 1.5 0 0.24377654385 1.45 0 0.24377654385 1.4 0 
0.24377654385 1.35 0 0.24377654385 1.3 0 0.24377654385 1.25 0 
0.24377654385 1.2 0 0.24377654385 1.15 0 0.24377654385 1.1 0 
0.24377654385 1.05 0 0.24377654385 1 0 0.24377654385 0.95 0 
0.24377654385 0.9 0 0.24377654385 0.85 0 0.24377654385 0.8 0 
0.24377654385 0.75 0 0.24377654385 0.7 0 0.24377654385 0.65 0 
0.24377654385 0.6 0 0.24377654385 0.55 0 0.24377654385 0.5 0 
0.24377654385 0.45 0 0.24377654385 0.4 0 0.24377654385 0.35 0 
0.24377654385 0.3 0 0.24377654385 0.25 0 0.24377654385 0.2 0 
0.24377654385 0.15 0 0.24377654385 0.1 0 0.24377654385 0.05 0 
0.24377654385 0 0 0.27653768798 1.5 0 0.27653768798 1.45 0 
0.27653768798 1.4 0 0.27653768798 1.35 0 0.27653768798 1.3 0 
0.27653768798 1.25 0 0.27653768798 1.2 0 0.27653768798 1.15 0 
0.27653768798 1.1 0 0.27653768798 1.05 0 0.27653768798 1 0 
0.27653768798 0.95 0 0.27653768798 0.9 0 0.27653768798 0.85 0 
0.27653768798 0.8 0 0.27653768798 0.75 0 0.27653768798 0.7 0 
0.27653768798 0.65 0 0.27653768798 0.6 0 0.27653768798 0.55 0 
0.27653768798 0.5 0 0.27653768798 0.45 0 0.27653768798 0.4 0 
0.27653768798 0.35 0 0.27653768798 0.3 0 0.27653768798 0.25 0 
0.27653768798 0.2 0 0.27653768798 0.15 0 0.27653768798 0.1 0 
0.27653768798 0.05 0 0.27653768798 0 0 0.31090870586 1.5 0 
0.31090870586 1.45 0 0.31090870586 1.4 0 0.31090870586 1.35 0 
0.31090870586 1.3 0 0.31090870586 1.25 0 0.31090870586 1.2 0 
0.31090870586 1.15 0 0.31090870586 1.1 0 0.31090870586 1.05 0 
0.31090870586 1 0 0.31090870586 0.95 0 0.31090870586 0.9 0 
0.31090870586 0.85 0 0.31090870586 0.8 0 0.31090870586 0.75 0 
0.31090870586 0.7 0 0.31090870586 0.65 0 0.31090870586 0.6 0 
0.31090870586 0.55 0 0.31090870586 0.5 0 0.31090870586 0.45 0 
0.31090870586 0.4 0 0.31090870586 0.35 0 0.31090870586 0.3 0 
0.31090870586 0.25 0 0.31090870586 0.2 0 0.31090870586 0.15 0 
0.31090870586 0.1 0 0.31090870586 0.05 0 0.31090870586 0 0 
0.34696870625 1.5 0 0.34696870625 1.45 0 0.34696870625 1.4 0 
0.34696870625 1.35 0 0.34696870625 1.3 0 0.34696870625 1.25 0 
0.34696870625 1.2 0 0.34696870625 1.15 0 0.34696870625 1.1 0 
0.34696870625 1.05 0 0.34696870625 1 0 0.34696870625 0.95 0 
0.34696870625 0.9 0 0.34696870625 0.85 0 0.34696870625 0.8 0 
0.34696870625 0.75 0 0.34696870625 0.7 0 0.34696870625 0.65 0 
0.34696870625 0.6 0 0.34696870625 0.55 0 0.34696870625 0.5 0 
0.34696870625 0.45 0 0.34696870625 0.4 0 0.34696870625 0.35 0 
0.34696870625 0.3 0 0.34696870625 0.25 0 0.34696870625 0.2 0 
0.34696870625 0.15 0 0.34696870625 0.1 0 0.34696870625 0.05 0 
0.34696870625 0 0 0.3848006853 1.5 0 0.3848006853 1.45 0 
0.3848006853 1.4 0 0.3848006853 1.35 0 0.3848006853 1.3 0 
0.3848006853 1.25 0 0.3848006853 1.2 0 0.3848006853 1.15 0 
0.3848006853 1.1 0 0.3848006853 1.05 0 0.3848006853 1 0 
0.3848006853 0.95 0 0.3848006853 0.9 0 0.3848006853 0.85 0 
0.3848006853 0.8 0 0.3848006853 0.75 0 0.3848006853 0.7 0 
0.3848006853 0.65 0 0.3848006853 0.6 0 0.3848006853 0.55 0 
0.3848006853 0.5 0 0.3848006853 0.45 0 0.3848006853 0.4 0 
0.3848006853 0.35 0 0.3848006853 0.3 0 0.3848006853 0.25 0 
0.3848006853 0.2 0 0.3848006853 0.15 0 0.3848006853 0.1 0 
0.3848006853 0.05 0 0.3848006853 0 0 0.42449171754 1.5 0 
0.42449171754 1.45 0 0.42449171754 1.4 0 0.42449171754 1.35 0 
0.42449171754 1.3 0 0.42449171754 1.25 0 0.42449171754 1.2 0 
0.42449171754 1.15 0 0.42449171754 1.1 0 0.42449171754 1.05 0 
0.42449171754 1 0 0.42449171754 0.95 0 0.42449171754 0.9 0 
0.42449171754 0.85 0 0.42449171754 0.8 0 0.42449171754 0.75 0 
0.42449171754 0.7 0 0.42449171754 0.65 0 0.42449171754 0.6 0 
0.42449171754 0.55 0 0.42449171754 0.5 0 0.42449171754 0.45 0 
0.42449171754 0.4 0 0.42449171754 0.35 0 0.42449171754 0.3 0 
0.42449171754 0.25 0 0.42449171754 0.2 0 0.42449171754 0.15 0 
0.42449171754 0.1 0 0.42449171754 0.05 0 0.42449171754 0 0 
0.46613315636 1.5 0 0.46613315636 1.45 0 0.46613315636 1.4 0 
0.46613315636 1.35 0 0.46613315636 1.3 0 0.46613315636 1.25 0 
0.46613315636 1.2 0 0.46613315636 1.15 0 0.46613315636 1.1 0 
0.46613315636 1.05 0 0.46613315636 1 0 0.46613315636 0.95 0 
0.46613315636 0.9 0 0.46613315636 0.85 0 0.46613315636 0.8 0 
0.46613315636 0.75 0 0.46613315636 0.7 0 0.46613315636 0.65 0 
0.46613315636 0.6 0 0.46613315636 0.55 0 0.46613315636 0.5 0 
0.46613315636 0.45 0 0.46613315636 0.4 0 0.46613315636 0.35 0 
0.46613315636 0.3 0 0.46613315636 0.25 0 0.46613315636 0.2 0 
0.46613315636 0.15 0 0.46613315636 0.1 0 0.46613315636 0.05 0 
0.46613315636 0 0 0.5098208442 1.5 0 0.5098208442 1.45 0 
0.5098208442 1.4 0 0.5098208442 1.35 0 0.5098208442 1.3 0 
0.5098208442 1.25 0 0.5098208442 1.2 0 0.5098208442 1.15 0 
0.5098208442 1.1 0 0.5098208442 1.05 0 0.5098208442 1 0 
0.5098208442 0.95 0 0.5098208442 0.9 0 0.5098208442 0.85 0 
0.5098208442 0.8 0 0.5098208442 0.75 0 0.5098208442 0.7 0 
0.5098208442 0.65 0 0.5098208442 0.6 0 0.5098208442 0.55 0 
0.5098208442 0.5 0 0.5098208442 0.45 0 0.5098208442 0.4 0 
0.5098208442 0.35 0 0.5098208442 0.3 0 0.5098208442 0.25 0 
0.5098208442 0.2 0 0.5098208442 0.15 0 0.5098208442 0.1 0 
0.5098208442 0.05 0 0.5098208442 0 0 0.55565533319 1.5 0 
0.55565533319 1.45 0 0.55565533319 1.4 0 0.55565533319 1.35 0 
0.55565533319 1.3 0 0.55565533319 1.25 0 0.55565533319 1.2 0 
0.55565533319 1.15 0 0.55565533319 1.1 0 0.55565533319 1.05 0 
0.55565533319 1 0 0.55565533319 0.95 0 0.55565533319 0.9 0 
0.55565533319 0.85 0 0.55565533319 0.8 0 0.55565533319 0.75 0 
0.55565533319 0.7 0 0.55565533319 0.65 0 0.55565533319 0.6 0 
0.55565533319 0.55 0 0.55565533319 0.5 0 0.55565533319 0.45 0 
0.55565533319 0.4 0 0.55565533319 0.35 0 0.55565533319 0.3 0 
0.55565533319 0.25 0 0.55565533319 0.2 0 0.55565533319 0.15 0 
0.55565533319 0.1 0 0.55565533319 0.05 0 0.55565533319 0 0 
0.60374211656 1.5 0 0.60374211656 1.45 0 0.60374211656 1.4 0 
0.60374211656 1.35 0 0.60374211656 1.3 0 0.60374211656 1.25 0 
0.60374211656 1.2 0 0.60374211656 1.15 0 0.60374211656 1.1 0 
0.60374211656 1.05 0 0.60374211656 1 0 0.60374211656 0.95 0 
0.60374211656 0.9 0 0.60374211656 0.85 0 0.60374211656 0.8 0 
0.60374211656 0.75 0 0.60374211656 0.7 0 0.60374211656 0.65 0 
0.60374211656 0.6 0 0.60374211656 0.55 0 0.60374211656 0.5 0 
0.60374211656 0.45 0 0.60374211656 0.4 0 0.60374211656 0.35 0 
0.60374211656 0.3 0 0.60374211656 0.25 0 0.60374211656 0.2 0 
0.60374211656 0.15 0 0.60374211656 0.1 0 0.60374211656 0.05 0 
0.60374211656 0 0 0.65419187143 1.5 0 0.65419187143 1.45 0 
0.65419187143 1.4 0 0.65419187143 1.35 0 0.65419187143 1.3 0 
0.65419187143 1.25 0 0.65419187143 1.2 0 0.65419187143 1.15 0 
[...]
CELL_DATA 4530
FIELD FieldData 7
B_Stress_n_p_m2 1 4530 float
0.473297 0.438668 0.238218 0.20287 0.270794 0.28463 0.258691 0.252124 0.262074 
0.264711 0.260949 0.259917 0.261409 0.261784 0.261074 0.261074 0.261784 0.261409 
0.259917 0.260949 0.264711 0.262074 0.252124 0.258691 0.28463 0.270794 0.20287 
0.238218 0.438668 0.473297 0.462745 0.346426 0.308649 0.30479 0.31509 0.316339 
0.312238 0.311786 0.313417 0.313524 0.312857 0.312777 0.313017 0.313035 0.312917 
0.312917 0.313035 0.313017 0.312777 0.312857 0.313524 0.313417 0.311786 0.312238 
0.316339 0.31509 0.30479 0.308649 0.346426 0.462745 0.375366 0.296473 0.266149 
0.260822 0.266053 0.266207 0.263331 0.262775 0.263624 0.263601 0.263108 0.262989 
0.263094 0.263081 0.262994 0.262994 0.263081 0.263094 0.262989 0.263108 0.263601 
0.263624 0.262775 0.263331 0.266207 0.266053 0.260822 0.266149 0.296473 0.375366 
0.336797 0.294651 0.270093 0.263192 0.264447 0.263614 0.261312 0.260594 0.26087 
0.260714 0.260303 0.260138 0.260139 0.260094 0.260021 0.260021 0.260094 0.260139 
0.260138 0.260303 0.260714 0.26087 0.260594 0.261312 0.263614 0.264447 0.263192 
0.270093 0.294651 0.336797 0.31355 0.293965 0.277397 0.270823 0.269329 0.267701 
0.265913 0.265145 0.264971 0.264678 0.264333 0.264148 0.264072 0.264001 0.263943 
0.263943 0.264001 0.264072 0.264148 0.264333 0.264678 0.264971 0.265145 0.265913 
0.267701 0.269329 0.270823 0.277397 0.293965 0.31355 0.29663 0.289617 0.279104 
0.273589 0.271164 0.26928 0.267727 0.266893 0.266481 0.266109 0.265778 0.26557 
0.265449 0.265361 0.265308 0.265308 0.265361 0.265449 0.26557 0.265778 0.266109 
0.266481 0.266893 0.267727 0.26928 0.271164 0.273589 0.279104 0.289617 0.29663 
0.28568 0.284712 0.278567 0.27446 0.272084 0.270297 0.268923 0.268075 0.267559 
0.26715 0.26682 0.266593 0.266446 0.266347 0.266294 0.266294 0.266347 0.266446 
0.266593 0.26682 0.26715 0.267559 0.268075 0.268923 0.270297 0.272084 0.27446 
0.278567 0.284712 0.28568 0.278756 0.280283 0.2772 0.274528 0.272634 0.271145 
0.269992 0.269207 0.268675 0.268264 0.267942 0.267711 0.267552 0.267448 0.267395 
0.267395 0.267448 0.267552 0.267711 0.267942 0.268264 0.268675 0.269207 0.269992 
0.271145 0.272634 0.274528 0.2772 0.280283 0.278756 0.274084 0.27654 0.275488 
0.274061 0.272801 0.271713 0.270826 0.270169 0.269685 0.269307 0.26901 0.268788 
0.268631 0.268529 0.268477 0.268477 0.268529 0.268631 0.268788 0.26901 0.269307 
0.269685 0.270169 0.270826 0.271713 0.272801 0.274061 0.275488 0.27654 0.274084 
0.270704 0.273497 0.273747 0.273307 0.272681 0.272026 0.271432 0.270947 0.270559 
0.270243 0.269988 0.269791 0.269647 0.269552 0.269505 0.269505 0.269552 0.269647 
0.269791 0.269988 0.270243 0.270559 0.270947 0.271432 0.272026 0.272681 0.273307 
0.273747 0.273497 0.270704 0.268138 0.271065 0.272141 0.272448 0.272385 0.272148 
0.271852 0.271563 0.271303 0.271073 0.270876 0.270717 0.270596 0.270515 0.270474 
0.270474 0.270515 0.270596 0.270717 0.270876 0.271073 0.271303 0.271563 0.271852 
0.272148 0.272385 0.272448 0.272141 0.271065 0.268138 0.26613 0.269124 0.270728 
0.271587 0.271995 0.272133 0.272123 0.27204 0.271923 0.271795 0.27167 0.271559 
0.27147 0.271408 0.271376 0.271376 0.271408 0.27147 0.271559 0.27167 0.271795 
0.271923 0.27204 0.272123 0.272133 0.271995 0.271587 0.270728 0.269124 0.26613 
0.264533 0.267567 0.269518 0.27078 0.271567 0.27203 0.272282 0.272398 0.272431 
0.272413 0.272368 0.272314 0.272263 0.272225 0.272204 0.272204 0.272225 0.272263 
0.272314 0.272368 0.272413 0.272431 0.272398 0.272282 0.27203 0.271567 0.27078 
0.269518 0.267567 0.264533 0.263255 0.266315 0.268497 0.270055 0.27114 0.271875 
0.272357 0.272661 0.27284 0.272934 0.272973 0.27298 0.272971 0.272959 0.272951 
0.272951 0.272959 0.272971 0.27298 0.272973 0.272934 0.27284 0.272661 0.272357 
0.271875 0.27114 0.270055 0.268497 0.266315 0.263255 0.26223 0.265307 0.267647 
0.269421 0.270738 0.271696 0.272377 0.272848 0.273163 0.273366 0.273489 0.273558 
0.273593 0.273609 0.273615 0.273615 0.273609 0.273593 0.273558 0.273489 0.273366 
0.273163 0.272848 0.272377 0.271696 0.270738 0.269421 0.267647 0.265307 0.26223 
0.261409 0.264497 0.266946 0.268879 0.270376 0.271512 0.272359 0.272976 0.273415 
0.273718 0.273921 0.274051 0.27413 0.274174 0.274194 0.274194 0.274174 0.27413 
0.274051 0.273921 0.273718 0.273415 0.272976 0.272359 0.271512 0.270376 0.268879 
0.266946 0.264497 0.261409 0.260754 0.263848 0.266376 0.268425 0.270059 0.271338 
0.27232 0.273061 0.273608 0.274002 0.274278 0.274465 0.274585 0.274656 0.274689 
0.274689 0.274656 0.274585 0.274465 0.274278 0.274002 0.273608 0.273061 0.27232 
0.271338 0.270059 0.268425 0.266376 0.263848 0.260754 0.260236 0.263334 0.265917 
0.268052 0.269789 0.271179 0.272272 0.273115 0.273753 0.274225 0.274566 0.274804 
0.274963 0.275059 0.275104 0.275104 0.275059 0.274963 0.274804 0.274566 0.274225 
0.273753 0.273115 0.272272 0.271179 0.269789 0.268052 0.265917 0.263334 0.260236 
0.259831 0.26293 0.265553 0.267751 0.269566 0.271041 0.27222 0.273146 0.27386 
0.274398 0.274794 0.275077 0.275268 0.275386 0.275443 0.275443 0.275386 0.275268 
0.275077 0.274794 0.274398 0.27386 0.273146 0.27222 0.271041 0.269566 0.267751 
0.265553 0.26293 0.259831 0.259519 0.262619 0.265269 0.267513 0.269386 0.270926 
0.272171 0.273162 0.273935 0.274527 0.27497 0.275289 0.275509 0.275646 0.275711 
0.275711 0.275646 0.275509 0.275289 0.27497 0.274527 0.273935 0.273162 0.272171 
0.270926 0.269386 0.267513 0.265269 0.262619 0.259519 0.259285 0.262384 0.265054 
0.26733 0.269245 0.270832 0.272127 0.273167 0.273987 0.274621 0.2751 0.275449 
0.275691 0.275843 0.275917 0.275917 0.275843 0.275691 0.275449 0.2751 0.274621 
0.273987 0.273167 0.272127 0.270832 0.269245 0.26733 0.265054 0.262384 0.259285 
0.259115 0.262213 0.264896 0.267194 0.269138 0.270758 0.272089 0.273165 0.274019 
0.274685 0.275191 0.275563 0.275822 0.275986 0.276065 0.276065 0.275986 0.275822 
0.275563 0.275191 0.274685 0.274019 0.273165 0.272089 0.270758 0.269138 0.267194 
0.264896 0.262213 0.259115 0.258999 0.262095 0.264785 0.267098 0.269061 0.270703 
0.272058 0.273158 0.274036 0.274723 0.275248 0.275637 0.275909 0.276081 0.276164 
0.276164 0.276081 0.275909 0.275637 0.275248 0.274723 0.274036 0.273158 0.272058 
0.270703 0.269061 0.267098 0.264785 0.262095 0.258999 0.258926 0.26202 0.264715 
0.267035 0.269009 0.270664 0.272033 0.273148 0.27404 0.274741 0.275278 0.275677 
0.275957 0.276134 0.276221 0.276221 0.276134 0.275957 0.275677 0.275278 0.274741 
0.27404 0.273148 0.272033 0.270664 0.269009 0.267035 0.264715 0.26202 0.258926 
0.258891 0.261982 0.264677 0.267001 0.268978 0.270639 0.272015 0.273136 0.274035 
0.274742 0.275285 0.275688 0.275972 0.276152 0.27624 0.27624 0.276152 0.275972 
0.275688 0.275285 0.274742 0.274035 0.273136 0.272015 0.270639 0.268978 0.267001 
0.264677 0.261982 0.258891 0.258885 0.261974 0.264667 0.266989 0.268966 0.270626 
0.272001 0.273122 0.274021 0.274728 0.275272 0.275675 0.275959 0.27614 0.276228 
0.276228 0.27614 0.275959 0.275675 0.275272 0.274728 0.274021 0.273122 0.272001 
0.270626 0.268966 0.266989 0.264667 0.261974 0.258885 0.258906 0.261991 0.26468 
0.266998 0.268969 0.270623 0.271992 0.273107 0.274 0.274702 0.275241 0.275641 
0.275923 0.276102 0.276189 0.276189 0.276102 0.275923 0.275641 0.275241 0.274702 
0.274 0.273107 0.271992 0.270623 0.268969 0.266998 0.26468 0.261991 0.258906 
0.258948 0.262029 0.264713 0.267023 0.268985 0.270629 0.271986 0.27309 0.273973 
0.274666 0.275196 0.27559 0.275866 0.276042 0.276127 0.276127 0.276042 0.275866 
0.27559 0.275196 0.274666 0.273973 0.27309 0.271986 0.270629 0.268985 0.267023 
0.264713 0.262029 0.258948 0.25901 0.262086 0.264763 0.267063 0.269012 0.270641 
0.271984 0.273072 0.273941 0.27462 0.275139 0.275523 0.275792 0.275962 0.276045 
0.276045 0.275962 0.275792 0.275523 0.275139 0.27462 0.273941 0.273072 0.271984 
0.270641 0.269012 0.267063 0.264763 0.262086 0.25901 0.259088 0.26216 0.264828 
0.267115 0.269048 0.27066 0.271983 0.273053 0.273903 0.274566 0.27507 0.275441 
0.275701 0.275865 0.275945 0.275945 0.275865 0.275701 0.275441 0.27507 0.274566 
0.273903 0.273053 0.271983 0.27066 0.269048 0.267115 0.264828 0.26216 0.259088 
0.259182 0.262249 0.264907 0.267179 0.269094 0.270684 0.271985 0.273032 0.273861 
0.274503 0.27499 0.275347 0.275596 0.275753 0.275828 0.275828 0.275753 0.275596 
0.275347 0.27499 0.274503 0.273861 0.273032 0.271985 0.270684 0.269094 0.267179 
0.264907 0.262249 0.259182 0.259292 0.262354 0.264999 0.267254 0.269147 0.270713 
0.271988 0.273009 0.273813 0.274433 0.2749 0.275241 0.275477 0.275625 0.275696 
0.275696 0.275625 0.275477 0.275241 0.2749 0.274433 0.273813 0.273009 0.271988 
0.270713 0.269147 0.267254 0.264999 0.262354 0.259292 0.259418 0.262473 0.265105 
0.26734 0.269209 0.270747 0.271993 0.272984 0.27376 0.274354 0.274799 0.275122 
0.275344 0.275483 0.275549 0.275549 0.275483 0.275344 0.275122 0.274799 0.274354 
0.27376 0.272984 0.271993 0.270747 0.269209 0.26734 0.265105 0.262473 0.259418 
0.259561 0.262608 0.265225 0.267437 0.269278 0.270785 0.271998 0.272957 0.273701 
0.274267 0.274687 0.27499 0.275197 0.275326 0.275387 0.275387 0.275326 0.275197 
0.27499 0.274687 0.274267 0.273701 0.272957 0.271998 0.270785 0.269278 0.267437 
0.265225 0.262608 0.259561 0.259721 0.262761 0.26536 0.267547 0.269357 0.270828 
0.272004 0.272926 0.273636 0.274171 0.274564 0.274845 0.275035 0.275153 0.275209 
0.275209 0.275153 0.275035 0.274845 0.274564 0.274171 0.273636 0.272926 0.272004 
0.270828 0.269357 0.267547 0.26536 0.262761 0.259721 0.259902 0.262932 0.265512 
0.26767 0.269444 0.270876 0.27201 0.272891 0.273563 0.274064 0.274428 0.274685 
0.274858 0.274964 0.275014 0.275014 0.274964 0.274858 0.274685 0.274428 0.274064 
0.273563 0.272891 0.27201 0.270876 0.269444 0.26767 0.265512 0.262932 0.259902 
0.260107 0.263126 0.265682 0.267807 0.269541 0.270927 0.272015 0.272852 0.273481 
0.273945 0.274278 0.27451 0.274664 0.274757 0.274801 0.274801 0.274757 0.274664 
0.27451 0.274278 0.273945 0.273481 0.272852 0.272015 0.270927 0.269541 0.267807 
0.265682 0.263126 0.260107 0.260337 0.263344 0.265874 0.267961 0.269648 0.270984 
0.27202 0.272806 0.27339 0.273813 0.274112 0.274317 0.274451 0.274531 0.274569 
0.274569 0.274531 0.274451 0.274317 0.274112 0.273813 0.27339 0.272806 0.27202 
0.270984 0.269648 0.267961 0.265874 0.263344 0.260337 0.260599 0.263591 0.26609 
0.268133 0.269767 0.271045 0.272022 0.272753 0.273286 0.273665 0.273929 0.274105 
0.274218 0.274285 0.274316 0.274316 0.274285 0.274218 0.274105 0.273929 0.273665 
0.273286 0.272753 0.272022 0.271045 0.269767 0.268133 0.26609 0.263591 0.260599 
0.260898 0.263873 0.266335 0.268326 0.269898 0.27111 0.272021 0.27269 0.273168 
0.2735 0.273725 0.273872 0.273963 0.274016 0.27404 0.27404 0.274016 0.273963 
0.273872 0.273725 0.2735 0.273168 0.27269 0.272021 0.27111 0.269898 0.268326 
0.266335 0.263873 0.260898 0.261242 0.264196 0.266614 0.268543 0.270043 0.271178 
0.272015 0.272614 0.273031 0.273313 0.273498 0.273614 0.273684 0.273722 0.273739 
0.273739 0.273722 0.273684 0.273614 0.273498 0.273313 0.273031 0.272614 0.272015 
0.271178 0.270043 0.268543 0.266614 0.264196 0.261242 0.261641 0.264568 0.266932 
0.268787 0.270201 0.271248 0.271999 0.272521 0.272873 0.273102 0.273245 0.27333 
0.273378 0.273402 0.273413 0.273413 0.273402 0.273378 0.27333 0.273245 0.273102 
0.272873 0.272521 0.271999 0.271248 0.270201 0.268787 0.266932 0.264568 0.261641 
0.262107 0.265 0.267297 0.269061 0.270372 0.271315 0.271969 0.272407 0.272688 
0.272861 0.272961 0.273016 0.273043 0.273054 0.273059 0.273059 0.273054 0.273043 
0.273016 0.272961 0.272861 0.272688 0.272407 0.271969 0.271315 0.270372 0.269061 
0.267297 0.265 0.262107 0.262658 0.265508 0.267718 0.269368 0.270554 0.271374 
0.271918 0.272263 0.27247 0.272586 0.272645 0.27267 0.272677 0.272677 0.272676 
0.272676 0.272677 0.272677 0.27267 0.272645 0.272586 0.27247 0.272263 0.271918 
0.271374 0.270554 0.269368 0.267718 0.265508 0.262658 0.263321 0.266111 0.268205 
0.269708 0.270739 0.271415 0.271835 0.27208 0.272211 0.272272 0.272291 0.27229 
0.27228 0.272271 0.272265 0.272265 0.272271 0.27228 0.27229 0.272291 0.272272 
0.272211 0.27208 0.271835 0.271415 0.270739 0.269708 0.268205 0.266111 0.263321 
0.264132 0.266833 0.268765 0.270074 0.270912 0.271419 0.271704 0.271846 0.271903 
0.271913 0.271899 0.271877 0.271855 0.271838 0.271829 0.271829 0.271838 0.271855 
0.271877 0.271899 0.271913 0.271903 0.271846 0.271704 0.271419 0.270912 0.270074 
0.268765 0.266833 0.264132 0.265152 0.267712 0.269402 0.270445 0.271045 0.27136 
0.271503 0.271548 0.271541 0.271511 0.271473 0.271438 0.271409 0.271389 0.271379 
0.271379 0.271389 0.271409 0.271438 0.271473 0.271511 0.271541 0.271548 0.271503 
0.27136 0.271045 0.270445 0.269402 0.267712 0.265152 0.266534 0.268813 0.270099 
0.270763 0.271068 0.271177 0.271187 0.271152 0.271101 0.271049 0.271003 0.270966 
0.270939 0.270921 0.270912 0.270912 0.270921 0.270939 0.270966 0.271003 0.271049 
0.271101 0.271152 0.271187 0.271177 0.271068 0.270763 0.270099 0.268813 0.266534 
0.268233 0.269874 0.270571 0.270826 0.270887 0.270867 0.270818 0.270766 0.270718 
0.270679 0.270648 0.270625 0.270609 0.270599 0.270594 0.270594 0.270599 0.270609 
0.270625 0.270648 0.270679 0.270718 0.270766 0.270818 0.270867 0.270887 0.270826 
0.270571 0.269874 0.268233 528.813 2060.29 2206.73 2215.88 2273.62 2298.04 
2282.64 2275.27 2281.57 2284.89 2282.76 2281.66 2282.62 2283.1 2282.72 
2282.72 2283.1 2282.62 2281.66 2282.76 2284.89 2281.57 2275.27 2282.64 
2298.04 2273.62 2215.88 2206.73 2060.29 528.813 0.703481 0.714375 0.723902 
0.732166 0.739272 0.745323 0.75042 0.754663 0.758145 0.760951 0.76316 0.76484 
0.766049 0.76683 0.767213 0.767213 0.76683 0.766049 0.76484 0.76316 0.760951 
0.758145 0.754663 0.75042 0.745323 0.739272 0.732166 0.723902 0.714375 0.703481 
0.70278 0.71365 0.723134 0.731339 0.738373 0.744341 0.749349 0.753498 0.756886 
0.759603 0.761731 0.763343 0.764497 0.76524 0.765604 0.765604 0.76524 0.764497 
0.763343 0.761731 0.759603 0.756886 0.753498 0.749349 0.744341 0.738373 0.731339 
0.723134 0.71365 0.70278 0.702797 0.713649 0.723098 0.731255 0.738228 0.744127 
0.749059 0.753129 0.756438 0.75908 0.76114 0.762693 0.763801 0.764512 0.764859 
0.764859 0.764512 0.763801 0.762693 0.76114 0.75908 0.756438 0.753129 0.749059 
0.744127 0.738228 0.731255 0.723098 0.713649 0.702797 0.702629 0.713457 0.722866 
0.730965 0.737867 0.743684 0.748526 0.752504 0.75572 0.758274 0.760254 0.761738 
0.762791 0.763465 0.763793 0.763793 0.763465 0.762791 0.761738 0.760254 0.758274 
0.75572 0.752504 0.748526 0.743684 0.737867 0.730965 0.722866 0.713457 0.702629 
0.70258 0.713385 0.722751 0.730792 0.73762 0.743352 0.748102 0.751983 0.755103 
0.757565 0.759461 0.760873 0.76187 0.762505 0.762813 0.762813 0.762505 0.76187 
0.760873 0.759461 0.757565 0.755103 0.751983 0.748102 0.743352 0.73762 0.730792 
0.722751 0.713385 0.70258 0.70254 0.71332 0.722642 0.730621 0.737372 0.743014 
0.747666 0.751445 0.754463 0.756828 0.758636 0.759973 0.76091 0.761504 0.761791 
0.761791 0.761504 0.76091 0.759973 0.758636 0.756828 0.754463 0.751445 0.747666 
0.743014 0.737372 0.730621 0.722642 0.71332 0.70254 0.702543 0.713298 0.722575 
0.730489 0.737159 0.742708 0.747257 0.750929 0.753841 0.756105 0.757821 0.759079 
0.759954 0.760505 0.76077 0.76077 0.760505 0.759954 0.759079 0.757821 0.756105 
0.753841 0.750929 0.747257 0.742708 0.737159 0.730489 0.722575 0.713298 0.702543 
0.702577 0.713307 0.722537 0.730384 0.736969 0.74242 0.746862 0.750423 0.753224 
0.755382 0.757002 0.758178 0.758988 0.759494 0.759736 0.759736 0.759494 0.758988 
0.758178 0.757002 0.755382 0.753224 0.750423 0.746862 0.74242 0.736969 0.730384 
0.722537 0.713307 0.702577 0.702646 0.713351 0.722531 0.730308 0.736806 0.742154 
0.746485 0.749929 0.752615 0.754662 0.756182 0.757273 0.758016 0.758475 0.758694 
0.758694 0.758475 0.758016 0.757273 0.756182 0.754662 0.752615 0.749929 0.746485 
0.742154 0.736806 0.730308 0.722531 0.713351 0.702646 0.702749 0.713427 0.722557 
0.73026 0.736667 0.741909 0.746123 0.749447 0.752012 0.753945 0.755361 0.756363 
0.757036 0.757447 0.757641 0.757641 0.757447 0.757036 0.756363 0.755361 0.753945 
0.752012 0.749447 0.746123 0.741909 0.736667 0.73026 0.722557 0.713427 0.702749 
0.702886 0.713537 0.722614 0.730242 0.736553 0.741684 0.745778 0.748975 0.751415 
0.753229 0.754538 0.755448 0.756049 0.75641 0.756578 0.756578 0.75641 0.756049 
0.755448 0.754538 0.753229 0.751415 0.748975 0.745778 0.741684 0.736553 0.730242 
0.722614 0.713537 0.702886 0.703057 0.713679 0.722702 0.730251 0.736463 0.741479 
0.745447 0.748514 0.750825 0.752516 0.753713 0.754528 0.755054 0.755363 0.755505 
0.755505 0.755363 0.755054 0.754528 0.753713 0.752516 0.750825 0.748514 0.745447 
0.741479 0.736463 0.730251 0.722702 0.713679 0.703057 0.703261 0.713855 0.722822 
0.730289 0.736398 0.741294 0.745132 0.748063 0.750239 0.751803 0.752885 0.753601 
0.75405 0.754306 0.754421 0.754421 0.754306 0.75405 0.753601 0.752885 0.751803 
0.750239 0.748063 0.745132 0.741294 0.736398 0.730289 0.722822 0.713855 0.703261 
0.7035 0.714065 0.722972 0.730355 0.736356 0.741129 0.744831 0.747622 0.749659 
0.75109 0.752053 0.752669 0.753038 0.75324 0.753327 0.753327 0.75324 0.753038 
0.752669 0.752053 0.75109 0.749659 0.747622 0.744831 0.741129 0.736356 0.730355 
0.722972 0.714065 0.7035 0.703772 0.714307 0.723154 0.730448 0.736338 0.740982 
0.744543 0.747189 0.749082 0.750378 0.751219 0.75173 0.752018 0.752163 0.752221 
0.752221 0.752163 0.752018 0.75173 0.751219 0.750378 0.749082 0.747189 0.744543 
0.740982 0.736338 0.730448 0.723154 0.714307 0.703772 0.704078 0.714582 0.723366 
0.730569 0.736344 0.740853 0.74427 0.746765 0.74851 0.749665 0.75038 0.750785 
0.750989 0.751076 0.751106 0.751106 0.751076 0.750989 0.750785 0.75038 0.749665 
0.74851 0.746765 0.74427 0.740853 0.736344 0.730569 0.723366 0.714582 0.704078 
0.704418 0.71489 0.723609 0.730717 0.736372 0.740743 0.744009 0.746349 0.74794 
0.748952 0.749537 0.749833 0.749951 0.74998 0.749979 0.749979 0.74998 0.749951 
0.749833 0.749537 0.748952 0.74794 0.746349 0.744009 0.740743 0.736372 0.730717 
0.723609 0.71489 0.704418 0.704792 0.715231 0.723883 0.730892 0.736422 0.74065 
0.74376 0.74594 0.747374 0.748237 0.74869 0.748874 0.748905 0.748874 0.748843 
0.748843 0.748874 0.748905 0.748874 0.74869 0.748237 0.747374 0.74594 0.74376 
0.74065 0.736422 0.730892 0.723883 0.715231 0.704792 0.7052 0.715605 0.724186 
0.731093 0.736495 0.740573 0.743522 0.745537 0.746809 0.747521 0.747839 0.747908 
0.74785 0.747759 0.747697 0.747697 0.747759 0.74785 0.747908 0.747839 0.747521 
0.746809 0.745537 0.743522 0.740573 0.736495 0.731093 0.724186 0.715605 0.7052 
0.705641 0.716012 0.72452 0.731321 0.736588 0.740513 0.743296 0.745141 0.746247 
0.746803 0.746983 0.746936 0.746788 0.746634 0.746541 0.746541 0.746634 0.746788 
0.746936 0.746983 0.746803 0.746247 0.745141 0.743296 0.740513 0.736588 0.731321 
0.72452 0.716012 0.705641 0.706117 0.716451 0.724884 0.731574 0.736703 0.740469 
0.74308 0.744749 0.745685 0.746082 0.746121 0.745956 0.745717 0.745502 0.745377 
0.745377 0.745502 0.745717 0.745956 0.746121 0.746082 0.745685 0.744749 0.74308 
0.740469 0.736703 0.731574 0.724884 0.716451 0.706117 0.706626 0.716923 0.725277 
0.731853 0.736838 0.740439 0.742873 0.744363 0.745123 0.745359 0.745254 0.74497 
0.744639 0.74436 0.744204 0.744204 0.74436 0.744639 0.74497 0.745254 0.745359 
0.745123 0.744363 0.742873 0.740439 0.736838 0.731853 0.725277 0.716923 0.706626 
0.707169 0.717427 0.7257 0.732157 0.736993 0.740423 0.742675 0.74398 0.744562 
0.744632 0.744382 0.743977 0.743553 0.743212 0.743024 0.743024 0.743212 0.743553 
0.743977 0.744382 0.744632 0.744562 0.74398 0.742675 0.740423 0.736993 0.732157 
0.7257 0.717427 0.707169 0.707746 0.717964 0.726153 0.732486 0.737167 0.740421 
0.742485 0.7436 0.743999 0.743902 0.743505 0.742978 0.74246 0.742056 0.741836 
0.741836 0.742056 0.74246 0.742978 0.743505 0.743902 0.743999 0.7436 0.742485 