# vtk DataFile Version 5.1
vtk output
ASCII
DATASET UNSTRUCTURED_GRID
POINTS 9424 double
0.1016 1.5 0 0.1016 1.45 0 0.1016 1.4 0 
0.1016 1.35 0 0.1016 1.3 0 0.1016 1.25 0 
0.1016 1.2 0 0.1016 1.15 0 0.1016 1.1 0 
0.1016 1.05 0 0.1016 1 0 0.1016 0.95 0 
0.1016 0.9 0 0.1016 0.85 0 0.1016 0.8 0 
0.1016 0.75 0 0.1016 0.7 0 0.1016 0.65 0 
0.1016 0.6 0 0.1016 0.55 0 0.1016 0.5 0 
0.1016 0.45 0 0.1016 0.4 0 0.1016 0.35 0 
0.1016 0.3 0 0.1016 0.25 0 0.1016 0.2 0 
0.1016 0.15 0 0.1016 0.1 0 0.1016 0.05 0 
0.1016 0 0 5.08 1.5 0 5.08 1.45 0 
5.08 1.4 0 5.08 1.35 0 5.08 1.3 0 
5.08 1.25 0 5.08 1.2 0 5.08 1.15 0 
5.08 1.1 0 5.08 1.05 0 5.08 1 0 
5.08 0.95 0 5.08 0.9 0 5.08 0.85 0 
5.08 0.8 0 5.08 0.75 0 5.08 0.7 0 
5.08 0.65 0 5.08 0.6 0 5.08 0.55 0 
5.08 0.5 0 5.08 0.45 0 5.08 0.4 0 
5.08 0.35 0 5.08 0.3 0 5.08 0.25 0 
5.08 0.2 0 5.08 0.15 0 5.08 0.1 0 
5.08 0.05 0 5.08 0 0 0.151384 1.5 0 
0.151384 1.45 0 0.151384 1.4 0 0.151384 1.35 0 
0.151384 1.3 0 0.151384 1.25 0 0.151384 1.2 0 
0.151384 1.15 0 0.151384 1.1 0 0.151384 1.05 0 
0.151384 1 0 0.151384 0.95 0 0.151384 0.9 0 
0.151384 0.85 0 0.151384 0.8 0 0.151384 0.75 0 
0.151384 0.7 0 0.151384 0.65 0 0.151384 0.6 0 
0.151384 0.55 0 0.151384 0.5 0 0.151384 0.45 0 
0.151384 0.4 0 0.151384 0.35 0 0.151384 0.3 0 
0.151384 0.25 0 0.151384 0.2 0 0.151384 0.15 0 
0.151384 0.1 0 0.151384 0.05 0 0.151384 0 0 
0.201168 1.5 0 0.201168 1.45 0 0.201168 1.4 0 
0.201168 1.35 0 0.201168 1.3 0 0.201168 1.25 0 
0.201168 1.2 0 0.201168 1.15 0 0.201168 1.1 0 
0.201168 1.05 0 0.201168 1 0 0.201168 0.95 0 
0.201168 0.9 0 0.201168 0.85 0 0.201168 0.8 0 
0.201168 0.75 0 0.201168 0.7 0 0.201168 0.65 0 
0.201168 0.6 0 0.201168 0.55 0 0.201168 0.5 0 
0.201168 0.45 0 0.201168 0.4 0 0.201168 0.35 0 
0.201168 0.3 0 0.201168 0.25 0 0.201168 0.2 0 
0.201168 0.15 0 0.201168 0.1 0 0.201168 0.05 0 
0.201168 0 0 0.250952 1.5 0 0.250952 1.45 0 
0.250952 1.4 0 0.250952 1.35 0 0.250952 1.3 0 
0.250952 1.25 0 0.250952 1.2 0 0.250952 1.15 0 
0.250952 1.1 0 0.250952 1.05 0 0.250952 1 0 
0.250952 0.95 0 0.250952 0.9 0 0.250952 0.85 0 
0.250952 0.8 0 0.250952 0.75 0 0.250952 0.7 0 
0.250952 0.65 0 0.250952 0.6 0 0.250952 0.55 0 
0.250952 0.5 0 0.250952 0.45 0 0.250952 0.4 0 
0.250952 0.35 0 0.250952 0.3 0 0.250952 0.25 0 
0.250952 0.2 0 0.250952 0.15 0 0.250952 0.1 0 
0.250952 0.05 0 0.250952 0 0 0.300736 1.5 0 
0.300736 1.45 0 0.300736 1.4 0 0.300736 1.35 0 
0.300736 1.3 0 0.300736 1.25 0 0.300736 1.2 0 
0.300736 1.15 0 0.300736 1.1 0 0.300736 1.05 0 
0.300736 1 0 0.300736 0.95 0 0.300736 0.9 0 
0.300736 0.85 0 0.300736 0.8 0 0.300736 0.75 0 
0.300736 0.7 0 0.300736 0.65 0 0.300736 0.6 0 
0.300736 0.55 0 0.300736 0.5 0 0.300736 0.45 0 
0.300736 0.4 0 0.300736 0.35 0 0.300736 0.3 0 
0.300736 0.25 0 0.300736 0.2 0 0.300736 0.15 0 
0.300736 0.1 0 0.300736 0.05 0 0.300736 0 0 
0.35052 1.5 0 0.35052 1.45 0 0.35052 1.4 0 
0.35052 1.35 0 0.35052 1.3 0 0.35052 1.25 0 
0.35052 1.2 0 0.35052 1.15 0 0.35052 1.1 0 
0.35052 1.05 0 0.35052 1 0 0.35052 0.95 0 
0.35052 0.9 0 0.35052 0.85 0 0.35052 0.8 0 
0.35052 0.75 0 0.35052 0.7 0 0.35052 0.65 0 
0.35052 0.6 0 0.35052 0.55 0 0.35052 0.5 0 
0.35052 0.45 0 0.35052 0.4 0 0.35052 0.35 0 
0.35052 0.3 0 0.35052 0.25 0 0.35052 0.2 0 
0.35052 0.15 0 0.35052 0.1 0 0.35052 0.05 0 
0.35052 0 0 0.400304 1.5 0 0.400304 1.45 0 
0.400304 1.4 0 0.400304 1.35 0 0.400304 1.3 0 
0.400304 1.25 0 0.400304 1.2 0 0.400304 1.15 0 
0.400304 1.1 0 0.400304 1.05 0 0.400304 1 0 
0.400304 0.95 0 0.400304 0.9 0 0.400304 0.85 0 
0.400304 0.8 0 0.400304 0.75 0 0.400304 0.7 0 
0.400304 0.65 0 0.400304 0.6 0 0.400304 0.55 0 
0.400304 0.5 0 0.400304 0.45 0 0.400304 0.4 0 
0.400304 0.35 0 0.400304 0.3 0 0.400304 0.25 0 
0.400304 0.2 0 0.400304 0.15 0 0.400304 0.1 0 
0.400304 0.05 0 0.400304 0 0 0.450088 1.5 0 
0.450088 1.45 0 0.450088 1.4 0 0.450088 1.35 0 
0.450088 1.3 0 0.450088 1.25 0 0.450088 1.2 0 
0.450088 1.15 0 0.450088 1.1 0 0.450088 1.05 0 
0.450088 1 0 0.450088 0.95 0 0.450088 0.9 0 
0.450088 0.85 0 0.450088 0.8 0 0.450088 0.75 0 
0.450088 0.7 0 0.450088 0.65 0 0.450088 0.6 0 
0.450088 0.55 0 0.450088 0.5 0 0.450088 0.45 0 
0.450088 0.4 0 0.450088 0.35 0 0.450088 0.3 0 
0.450088 0.25 0 0.450088 0.2 0 0.450088 0.15 0 
0.450088 0.1 0 0.450088 0.05 0 0.450088 0 0 
0.499872 1.5 0 0.499872 1.45 0 0.499872 1.4 0 
0.499872 1.35 0 0.499872 1.3 0 0.499872 1.25 0 
0.499872 1.2 0 0.499872 1.15 0 0.499872 1.1 0 
0.499872 1.05 0 0.499872 1 0 0.499872 0.95 0 
0.499872 0.9 0 0.499872 0.85 0 0.499872 0.8 0 
0.499872 0.75 0 0.499872 0.7 0 0.499872 0.65 0 
0.499872 0.6 0 0.499872 0.55 0 0.499872 0.5 0 
0.499872 0.45 0 0.499872 0.4 0 0.499872 0.35 0 
0.499872 0.3 0 0.499872 0.25 0 0.499872 0.2 0 
0.499872 0.15 0 0.499872 0.1 0 0.499872 0.05 0 
0.499872 0 0 0.549656 1.5 0 0.549656 1.45 0 
0.549656 1.4 0 0.549656 1.35 0 0.549656 1.3 0 
0.549656 1.25 0 0.549656 1.2 0 0.549656 1.15 0 
0.549656 1.1 0 0.549656 1.05 0 0.549656 1 0 
0.549656 0.95 0 0.549656 0.9 0 0.549656 0.85 0 
0.549656 0.8 0 0.549656 0.75 0 0.549656 0.7 0 
0.549656 0.65 0 0.549656 0.6 0 0.549656 0.55 0 
0.549656 0.5 0 0.549656 0.45 0 0.549656 0.4 0 
0.549656 0.35 0 0.549656 0.3 0 0.549656 0.25 0 
0.549656 0.2 0 0.549656 0.15 0 0.549656 0.1 0 
0.549656 0.05 0 0.549656 0 0 0.59944 1.5 0 
0.59944 1.45 0 0.59944 1.4 0 0.59944 1.35 0 
0.59944 1.3 0 0.59944 1.25 0 0.59944 1.2 0 
0.59944 1.15 0 0.59944 1.1 0 0.59944 1.05 0 
0.59944 1 0 0.59944 0.95 0 0.59944 0.9 0 
0.59944 0.85 0 0.59944 0.8 0 0.59944 0.75 0 
0.59944 0.7 0 0.59944 0.65 0 0.59944 0.6 0 
0.59944 0.55 0 0.59944 0.5 0 0.59944 0.45 0 
0.59944 0.4 0 0.59944 0.35 0 0.59944 0.3 0 
0.59944 0.25 0 0.59944 0.2 0 0.59944 0.15 0 
0.59944 0.1 0 0.59944 0.05 0 0.59944 0 0 
0.649224 1.5 0 0.649224 1.45 0 0.649224 1.4 0 
0.649224 1.35 0 0.649224 1.3 0 0.649224 1.25 0 
0.649224 1.2 0 0.649224 1.15 0 0.649224 1.1 0 
0.649224 1.05 0 0.649224 1 0 0.649224 0.95 0 
0.649224 0.9 0 0.649224 0.85 0 0.649224 0.8 0 
0.649224 0.75 0 0.649224 0.7 0 0.649224 0.65 0 
0.649224 0.6 0 0.649224 0.55 0 0.649224 0.5 0 
0.649224 0.45 0 0.649224 0.4 0 0.649224 0.35 0 
0.649224 0.3 0 0.649224 0.25 0 0.649224 0.2 0 
0.649224 0.15 0 0.649224 0.1 0 0.649224 0.05 0 
0.649224 0 0 0.699008 1.5 0 0.699008 1.45 0 
0.699008 1.4 0 0.699008 1.35 0 0.699008 1.3 0 
0.699008 1.25 0 0.699008 1.2 0 0.699008 1.15 0 
0.699008 1.1 0 0.699008 1.05 0 0.699008 1 0 
0.699008 0.95 0 0.699008 0.9 0 0.699008 0.85 0 
0.699008 0.8 0 0.699008 0.75 0 0.699008 0.7 0 
0.699008 0.65 0 0.699008 0.6 0 0.699008 0.55 0 
0.699008 0.5 0 0.699008 0.45 0 0.699008 0.4 0 
0.699008 0.35 0 0.699008 0.3 0 0.699008 0.25 0 
0.699008 0.2 0 0.699008 0.15 0 0.699008 0.1 0 
0.699008 0.05 0 0.699008 0 0 0.748792 1.5 0 
0.748792 1.45 0 0.748792 1.4 0 0.748792 1.35 0 
0.748792 1.3 0 0.748792 1.25 0 0.748792 1.2 0 
0.748792 1.15 0 0.748792 1.1 0 0.748792 1.05 0 
0.748792 1 0 0.748792 0.95 0 0.748792 0.9 0 
0.748792 0.85 0 0.748792 0.8 0 0.748792 0.75 0 
0.748792 0.7 0 0.748792 0.65 0 0.748792 0.6 0 
0.748792 0.55 0 0.748792 0.5 0 0.748792 0.45 0 
0.748792 0.4 0 0.748792 0.35 0 0.748792 0.3 0 
0.748792 0.25 0 0.748792 0.2 0 0.748792 0.15 0 
0.748792 0.1 0 0.748792 0.05 0 0.748792 0 0 
0.798576 1.5 0 0.798576 1.45 0 0.798576 1.4 0 
0.798576 1.35 0 0.798576 1.3 0 0.798576 1.25 0 
0.798576 1.2 0 0.798576 1.15 0 0.798576 1.1 0 
0.798576 1.05 0 0.798576 1 0 0.798576 0.95 0 
0.798576 0.9 0 0.798576 0.85 0 0.798576 0.8 0 
0.798576 0.75 0 0.798576 0.7 0 0.798576 0.65 0 
0.798576 0.6 0 0.798576 0.55 0 0.798576 0.5 0 
0.798576 0.45 0 0.798576 0.4 0 0.798576 0.35 0 
0.798576 0.3 0 0.798576 0.25 0 0.798576 0.2 0 
0.798576 0.15 0 0.798576 0.1 0 0.798576 0.05 0 
0.798576 0 0 0.84836 1.5 0 0.84836 1.45 0 
0.84836 1.4 0 0.84836 1.35 0 0.84836 1.3 0 
0.84836 1.25 0 0.84836 1.2 0 0.84836 1.15 0 
0.84836 1.1 0 0.84836 1.05 0 0.84836 1 0 
0.84836 0.95 0 0.84836 0.9 0 0.84836 0.85 0 
0.84836 0.8 0 0.84836 0.75 0 0.84836 0.7 0 
0.84836 0.65 0 0.84836 0.6 0 0.84836 0.55 0 
0.84836 0.5 0 0.84836 0.45 0 0.84836 0.4 0 
0.84836 0.35 0 0.84836 0.3 0 0.84836 0.25 0 
0.84836 0.2 0 0.84836 0.15 0 0.84836 0.1 0 
0.84836 0.05 0 0.84836 0 0 0.898144 1.5 0 
0.898144 1.45 0 0.898144 1.4 0 0.898144 1.35 0 
0.898144 1.3 0 0.898144 1.25 0 0.898144 1.2 0 
0.898144 1.15 0 0.898144 1.1 0 0.898144 1.05 0 
0.898144 1 0 0.898144 0.95 0 0.898144 0.9 0 
0.898144 0.85 0 0.898144 0.8 0 0.898144 0.75 0 
0.898144 0.7 0 0.898144 0.65 0 0.898144 0.6 0 
0.898144 0.55 0 0.898144 0.5 0 0.898144 0.45 0 
0.898144 0.4 0 0.898144 0.35 0 0.898144 0.3 0 
0.898144 0.25 0 0.898144 0.2 0 0.898144 0.15 0 
0.898144 0.1 0 0.898144 0.05 0 0.898144 0 0 
0.947928 1.5 0 0.947928 1.45 0 0.947928 1.4 0 
0.947928 1.35 0 0.947928 1.3 0 0.947928 1.25 0 
0.947928 1.2 0 0.947928 1.15 0 0.947928 1.1 0 
0.947928 1.05 0 0.947928 1 0 0.947928 0.95 0 
0.947928 0.9 0 0.947928 0.85 0 0.947928 0.8 0 
0.947928 0.75 0 0.947928 0.7 0 0.947928 0.65 0 
0.947928 0.6 0 0.947928 0.55 0 0.947928 0.5 0 
0.947928 0.45 0 0.947928 0.4 0 0.947928 0.35 0 
0.947928 0.3 0 0.947928 0.25 0 0.947928 0.2 0 
0.947928 0.15 0 0.947928 0.1 0 0.947928 0.05 0 
0.947928 0 0 0.997712 1.5 0 0.997712 1.45 0 
0.997712 1.4 0 0.997712 1.35 0 0.997712 1.3 0 
0.997712 1.25 0 0.997712 1.2 0 0.997712 1.15 0 
0.997712 1.1 0 0.997712 1.05 0 0.997712 1 0 
0.997712 0.95 0 0.997712 0.9 0 0.997712 0.85 0 
0.997712 0.8 0 0.997712 0.75 0 0.997712 0.7 0 
0.997712 0.65 0 0.997712 0.6 0 0.997712 0.55 0 
0.997712 0.5 0 0.997712 0.45 0 0.997712 0.4 0 
0.997712 0.35 0 0.997712 0.3 0 0.997712 0.25 0 
0.997712 0.2 0 0.997712 0.15 0 0.997712 0.1 0 
0.997712 0.05 0 0.997712 0 0 1.047496 1.5 0 
1.047496 1.45 0 1.047496 1.4 0 1.047496 1.35 0 
1.047496 1.3 0 1.047496 1.25 0 1.047496 1.2 0 
1.047496 1.15 0 1.047496 1.1 0 1.047496 1.05 0 
1.047496 1 0 1.047496 0.95 0 1.047496 0.9 0 
1.047496 0.85 0 1.047496 0.8 0 1.047496 0.75 0 
1.047496 0.7 0 1.047496 0.65 0 1.047496 0.6 0 
1.047496 0.55 0 1.047496 0.5 0 1.047496 0.45 0 
1.047496 0.4 0 1.047496 0.35 0 1.047496 0.3 0 
1.047496 0.25 0 1.047496 0.2 0 1.047496 0.15 0 
[...]
CELL_DATA 9090
FIELD FieldData 7
B_Stress_n_p_m2 1 9090 float
0.201525 0.369896 0.263411 0.239705 0.287362 0.286126 0.273114 0.277197 0.279531 
0.277099 0.276589 0.27706 0.276785 0.276538 0.27662 0.27662 0.276538 0.276785 
0.27706 0.276589 0.277099 0.279531 0.277197 0.273114 0.286126 0.287362 0.239705 
0.263411 0.369896 0.201525 0.394608 0.131475 0.1468 0.22488 0.233521 0.235448 
0.250167 0.255557 0.255195 0.256726 0.257963 0.257914 0.257907 0.258056 0.258053 
0.258053 0.258056 0.257907 0.257914 0.257963 0.256726 0.255195 0.255557 0.250167 
0.235448 0.233521 0.22488 0.1468 0.131475 0.394608 0.23652 0.171555 0.172321 
0.199252 0.211602 0.21707 0.223518 0.227446 0.228902 0.230024 0.230882 0.231253 
0.231447 0.231593 0.231655 0.231655 0.231593 0.231447 0.231253 0.230882 0.230024 
0.228902 0.227446 0.223518 0.21707 0.211602 0.199252 0.172321 0.171555 0.23652 
0.20795 0.193487 0.192019 0.20288 0.21202 0.217782 0.222653 0.226261 0.22843 
0.229884 0.230924 0.231578 0.231977 0.232221 0.232337 0.232337 0.232221 0.231977 
0.231578 0.230924 0.229884 0.22843 0.226261 0.222653 0.217782 0.21202 0.20288 
0.192019 0.193487 0.20795 0.20411 0.200777 0.200832 0.206775 0.212831 0.217659 
0.221853 0.225133 0.227432 0.229089 0.23029 0.231109 0.231647 0.231978 0.232135 
0.232135 0.231978 0.231647 0.231109 0.23029 0.229089 0.227432 0.225133 0.221853 
0.217659 0.212831 0.206775 0.200832 0.200777 0.20411 0.2029 0.203841 0.20531 
0.209214 0.213526 0.217436 0.220928 0.223806 0.226015 0.227694 0.228949 0.229847 
0.230461 0.230845 0.231029 0.231029 0.230845 0.230461 0.229847 0.228949 0.227694 
0.226015 0.223806 0.220928 0.217436 0.213526 0.209214 0.20531 0.203841 0.2029 
0.203375 0.205597 0.207775 0.210883 0.21428 0.217521 0.22047 0.222994 0.225041 
0.226658 0.227902 0.228822 0.229467 0.229877 0.230075 0.230075 0.229877 0.229467 
0.228822 0.227902 0.226658 0.225041 0.222994 0.22047 0.217521 0.21428 0.210883 
0.207775 0.205597 0.203375 0.204438 0.206881 0.209297 0.212052 0.214933 0.217708 
0.220259 0.222492 0.224363 0.225883 0.227079 0.227984 0.22863 0.229045 0.229247 
0.229247 0.229045 0.22863 0.227984 0.227079 0.225883 0.224363 0.222492 0.220259 
0.217708 0.214933 0.212052 0.209297 0.206881 0.204438 0.205466 0.207913 0.210362 
0.21291 0.215467 0.217915 0.220169 0.222166 0.223872 0.225283 0.226412 0.22728 
0.227908 0.228315 0.228514 0.228514 0.228315 0.227908 0.22728 0.226412 0.225283 
0.223872 0.222166 0.220169 0.217915 0.215467 0.21291 0.210362 0.207913 0.205466 
0.206323 0.208754 0.211169 0.213568 0.215906 0.218117 0.220147 0.221954 0.223512 
0.224817 0.225874 0.226694 0.227293 0.227684 0.227877 0.227877 0.227684 0.227293 
0.226694 0.225874 0.224817 0.223512 0.221954 0.220147 0.218117 0.215906 0.213568 
0.211169 0.208754 0.206323 0.207014 0.209435 0.211801 0.214088 0.216267 0.218303 
0.220161 0.221815 0.223248 0.224455 0.225439 0.226209 0.226774 0.227145 0.227328 
0.227328 0.227145 0.226774 0.226209 0.225439 0.224455 0.223248 0.221815 0.220161 
0.218303 0.216267 0.214088 0.211801 0.209435 0.207014 0.20757 0.209985 0.212306 
0.214505 0.216566 0.218469 0.220193 0.221723 0.22305 0.22417 0.225087 0.225807 
0.226338 0.226687 0.22686 0.22686 0.226687 0.226338 0.225807 0.225087 0.22417 
0.22305 0.221723 0.220193 0.218469 0.216566 0.214505 0.212306 0.209985 0.20757 
0.208018 0.21043 0.212712 0.214843 0.216814 0.218613 0.220232 0.221662 0.2229 
0.223945 0.224801 0.225475 0.225972 0.226299 0.226462 0.226462 0.226299 0.225972 
0.225475 0.224801 0.223945 0.2229 0.221662 0.220232 0.218613 0.216814 0.214843 
0.212712 0.21043 0.208018 0.208381 0.21079 0.213041 0.215119 0.217019 0.218738 
0.220273 0.221621 0.222784 0.223764 0.224567 0.225198 0.225665 0.225972 0.226124 
0.226124 0.225972 0.225665 0.225198 0.224567 0.223764 0.222784 0.221621 0.220273 
0.218738 0.217019 0.215119 0.213041 0.21079 0.208381 0.208677 0.211084 0.21331 
0.215346 0.21719 0.218845 0.220312 0.221593 0.222694 0.223619 0.224375 0.224968 
0.225406 0.225695 0.225838 0.225838 0.225695 0.225406 0.224968 0.224375 0.223619 
0.222694 0.221593 0.220312 0.218845 0.21719 0.215346 0.21331 0.211084 0.208677 
0.20892 0.211325 0.213531 0.215532 0.217332 0.218936 0.220347 0.221574 0.222622 
0.2235 0.224215 0.224776 0.225189 0.225461 0.225596 0.225596 0.225461 0.225189 
0.224776 0.224215 0.2235 0.222622 0.221574 0.220347 0.218936 0.217332 0.215532 
0.213531 0.211325 0.20892 0.209121 0.211524 0.213714 0.215688 0.217451 0.219013 
0.220379 0.22156 0.222564 0.223402 0.224082 0.224614 0.225005 0.225262 0.225389 
0.225389 0.225262 0.225005 0.224614 0.224082 0.223402 0.222564 0.22156 0.220379 
0.219013 0.217451 0.215688 0.213714 0.211524 0.209121 0.209288 0.21169 0.213866 
0.215818 0.217552 0.219078 0.220407 0.22155 0.222517 0.22332 0.22397 0.224477 
0.224848 0.225092 0.225213 0.225213 0.225092 0.224848 0.224477 0.22397 0.22332 
0.222517 0.22155 0.220407 0.219078 0.217552 0.215818 0.213866 0.21169 0.209288 
0.209429 0.21183 0.213994 0.215927 0.217636 0.219134 0.220431 0.221541 0.222477 
0.223251 0.223875 0.22436 0.224715 0.224947 0.225062 0.225062 0.224947 0.224715 
0.22436 0.223875 0.223251 0.222477 0.221541 0.220431 0.219134 0.217636 0.215927 
0.213994 0.21183 0.209429 0.209548 0.211948 0.214103 0.21602 0.217708 0.219181 
0.220452 0.221535 0.222443 0.223192 0.223793 0.224259 0.224599 0.224821 0.224931 
0.224931 0.224821 0.224599 0.224259 0.223793 0.223192 0.222443 0.221535 0.220452 
0.219181 0.217708 0.21602 0.214103 0.211948 0.209548 0.209651 0.212049 0.214196 
0.216099 0.21777 0.219222 0.22047 0.221529 0.222414 0.223141 0.223722 0.224171 
0.224498 0.224711 0.224817 0.224817 0.224711 0.224498 0.224171 0.223722 0.223141 
0.222414 0.221529 0.22047 0.219222 0.21777 0.216099 0.214196 0.212049 0.209651 
0.20974 0.212137 0.214277 0.216168 0.217824 0.219258 0.220486 0.221524 0.222389 
0.223096 0.22366 0.224094 0.224409 0.224615 0.224716 0.224716 0.224615 0.224409 
0.224094 0.22366 0.223096 0.222389 0.221524 0.220486 0.219258 0.217824 0.216168 
0.214277 0.212137 0.20974 0.209819 0.212214 0.214348 0.216229 0.217871 0.219289 
0.220499 0.221519 0.222366 0.223055 0.223604 0.224025 0.22433 0.224529 0.224626 
0.224626 0.224529 0.22433 0.224025 0.223604 0.223055 0.222366 0.221519 0.220499 
0.219289 0.217871 0.216229 0.214348 0.212214 0.209819 0.209889 0.212283 0.214411 
0.216283 0.217913 0.219316 0.220511 0.221514 0.222345 0.223019 0.223554 0.223963 
0.224259 0.224451 0.224546 0.224546 0.224451 0.224259 0.223963 0.223554 0.223019 
0.222345 0.221514 0.220511 0.219316 0.217913 0.216283 0.214411 0.212283 0.209889 
0.209952 0.212345 0.214467 0.216331 0.21795 0.219341 0.220521 0.22151 0.222325 
0.222986 0.223508 0.223907 0.224194 0.22438 0.224472 0.224472 0.22438 0.224194 
0.223907 0.223508 0.222986 0.222325 0.22151 0.220521 0.219341 0.21795 0.216331 
0.214467 0.212345 0.209952 0.210011 0.212402 0.214519 0.216375 0.217984 0.219363 
0.22053 0.221505 0.222307 0.222955 0.223466 0.223855 0.224134 0.224315 0.224404 
0.224404 0.224315 0.224134 0.223855 0.223466 0.222955 0.222307 0.221505 0.22053 
0.219363 0.217984 0.216375 0.214519 0.212402 0.210011 0.210065 0.212454 0.214567 
0.216416 0.218015 0.219383 0.220538 0.221501 0.22229 0.222926 0.223426 0.223806 
0.224078 0.224254 0.22434 0.22434 0.224254 0.224078 0.223806 0.223426 0.222926 
0.22229 0.221501 0.220538 0.219383 0.218015 0.216416 0.214567 0.212454 0.210065 
0.210116 0.212504 0.214612 0.216454 0.218045 0.219402 0.220546 0.221496 0.222274 
0.222898 0.223388 0.223759 0.224025 0.224196 0.22428 0.22428 0.224196 0.224025 
0.223759 0.223388 0.222898 0.222274 0.221496 0.220546 0.219402 0.218045 0.216454 
0.214612 0.212504 0.210116 0.210164 0.212551 0.214655 0.21649 0.218072 0.21942 
0.220552 0.221491 0.222258 0.222872 0.223352 0.223715 0.223974 0.224141 0.224223 
0.224223 0.224141 0.223974 0.223715 0.223352 0.222872 0.222258 0.221491 0.220552 
0.21942 0.218072 0.21649 0.214655 0.212551 0.210164 0.210211 0.212596 0.214696 
0.216525 0.218099 0.219436 0.220559 0.221487 0.222242 0.222846 0.223317 0.223672 
0.223925 0.224088 0.224167 0.224167 0.224088 0.223925 0.223672 0.223317 0.222846 
0.222242 0.221487 0.220559 0.219436 0.218099 0.216525 0.214696 0.212596 0.210211 
0.210257 0.21264 0.214736 0.216559 0.218124 0.219453 0.220564 0.221482 0.222227 
0.222821 0.223283 0.22363 0.223878 0.224036 0.224114 0.224114 0.224036 0.223878 
0.22363 0.223283 0.222821 0.222227 0.221482 0.220564 0.219453 0.218124 0.216559 
0.214736 0.21264 0.210257 0.210302 0.212683 0.214775 0.216592 0.218149 0.219468 
0.22057 0.221477 0.222212 0.222796 0.223249 0.223589 0.223831 0.223985 0.224061 
0.224061 0.223985 0.223831 0.223589 0.223249 0.222796 0.222212 0.221477 0.22057 
0.219468 0.218149 0.216592 0.214775 0.212683 0.210302 0.210346 0.212726 0.214814 
0.216624 0.218174 0.219484 0.220575 0.221472 0.222197 0.222771 0.223216 0.223549 
0.223785 0.223935 0.224009 0.224009 0.223935 0.223785 0.223549 0.223216 0.222771 
0.222197 0.221472 0.220575 0.219484 0.218174 0.216624 0.214814 0.212726 0.210346 
0.21039 0.212769 0.214852 0.216656 0.218198 0.219499 0.220581 0.221467 0.222182 
0.222747 0.223183 0.223508 0.223739 0.223886 0.223957 0.223957 0.223886 0.223739 
0.223508 0.223183 0.222747 0.222182 0.221467 0.220581 0.219499 0.218198 0.216656 
0.214852 0.212769 0.21039 0.210434 0.212811 0.214891 0.216688 0.218222 0.219514 
0.220586 0.221462 0.222166 0.222722 0.22315 0.223468 0.223693 0.223836 0.223906 
0.223906 0.223836 0.223693 0.223468 0.22315 0.222722 0.222166 0.221462 0.220586 
0.219514 0.218222 0.216688 0.214891 0.212811 0.210434 0.210479 0.212854 0.214929 
0.216721 0.218247 0.219529 0.220591 0.221457 0.222151 0.222697 0.223116 0.223428 
0.223647 0.223787 0.223854 0.223854 0.223787 0.223647 0.223428 0.223116 0.222697 
0.222151 0.221457 0.220591 0.219529 0.218247 0.216721 0.214929 0.212854 0.210479 
0.210524 0.212897 0.214968 0.216753 0.218271 0.219544 0.220596 0.221451 0.222135 
0.222672 0.223083 0.223387 0.223601 0.223737 0.223802 0.223802 0.223737 0.223601 
0.223387 0.223083 0.222672 0.222135 0.221451 0.220596 0.219544 0.218271 0.216753 
0.214968 0.212897 0.210524 0.210569 0.212941 0.215008 0.216786 0.218296 0.219559 
0.220601 0.221446 0.22212 0.222647 0.223049 0.223347 0.223555 0.223687 0.22375 
0.22375 0.223687 0.223555 0.223347 0.223049 0.222647 0.22212 0.221446 0.220601 
0.219559 0.218296 0.216786 0.215008 0.212941 0.210569 0.210616 0.212985 0.215047 
0.216819 0.218321 0.219574 0.220606 0.22144 0.222104 0.222621 0.223015 0.223305 
0.223508 0.223636 0.223698 0.223698 0.223636 0.223508 0.223305 0.223015 0.222621 
0.222104 0.22144 0.220606 0.219574 0.218321 0.216819 0.215047 0.212985 0.210616 
0.210663 0.21303 0.215088 0.216853 0.218346 0.21959 0.22061 0.221434 0.222088 
0.222595 0.222981 0.223264 0.223461 0.223585 0.223645 0.223645 0.223585 0.223461 
0.223264 0.222981 0.222595 0.222088 0.221434 0.22061 0.21959 0.218346 0.216853 
0.215088 0.21303 0.210663 0.210711 0.213076 0.215129 0.216887 0.218372 0.219606 
0.220615 0.221428 0.222071 0.222569 0.222946 0.223221 0.223413 0.223534 0.223592 
0.223592 0.223534 0.223413 0.223221 0.222946 0.222569 0.222071 0.221428 0.220615 
0.219606 0.218372 0.216887 0.215129 0.213076 0.210711 0.21076 0.213122 0.215171 
0.216922 0.218398 0.219621 0.22062 0.221422 0.222054 0.222542 0.22291 0.223179 
0.223365 0.223481 0.223537 0.223537 0.223481 0.223365 0.223179 0.22291 0.222542 
0.222054 0.221422 0.22062 0.219621 0.218398 0.216922 0.215171 0.213122 0.21076 
0.210809 0.21317 0.215214 0.216958 0.218424 0.219638 0.220625 0.221416 0.222037 
0.222515 0.222874 0.223135 0.223315 0.223428 0.223482 0.223482 0.223428 0.223315 
0.223135 0.222874 0.222515 0.222037 0.221416 0.220625 0.219638 0.218424 0.216958 
0.215214 0.21317 0.210809 0.21086 0.213219 0.215258 0.216994 0.218451 0.219654 
0.22063 0.22141 0.22202 0.222487 0.222837 0.223091 0.223266 0.223375 0.223427 
0.223427 0.223375 0.223266 0.223091 0.222837 0.222487 0.22202 0.22141 0.22063 
0.219654 0.218451 0.216994 0.215258 0.213219 0.21086 0.210913 0.213269 0.215302 
0.217031 0.218479 0.219671 0.220636 0.221403 0.222002 0.222459 0.2228 0.223046 
0.223215 0.22332 0.22337 0.22337 0.22332 0.223215 0.223046 0.2228 0.222459 
0.222002 0.221403 0.220636 0.219671 0.218479 0.217031 0.215302 0.213269 0.210913 
0.210966 0.21332 0.215348 0.217069 0.218507 0.219688 0.220641 0.221396 0.221983 
0.22243 0.222762 0.223001 0.223164 0.223265 0.223313 0.223313 0.223265 0.223164 
0.223001 0.222762 0.22243 0.221983 0.221396 0.220641 0.219688 0.218507 0.217069 
0.215348 0.21332 0.210966 0.211021 0.213372 0.215395 0.217108 0.218535 0.219705 
0.220646 0.221389 0.221965 0.222401 0.222723 0.222954 0.223111 0.223208 0.223255 
0.223255 0.223208 0.223111 0.222954 0.222723 0.222401 0.221965 0.221389 0.220646 
0.219705 0.218535 0.217108 0.215395 0.213372 0.211021 0.211077 0.213425 0.215443 
0.217148 0.218565 0.219722 0.220651 0.221382 0.221945 0.222371 0.222684 0.222907 
0.223058 0.223151 0.223196 0.223196 0.223151 0.223058 0.222907 0.222684 0.222371 
0.221945 0.221382 0.220651 0.219722 0.218565 0.217148 0.215443 0.213425 0.211077 
0.211134 0.21348 0.215492 0.217188 0.218595 0.21974 0.220656 0.221374 0.221926 
0.22234 0.222644 0.222859 0.223004 0.223093 0.223136 0.223136 0.223093 0.223004 
0.222859 0.222644 0.22234 0.221926 0.221374 0.220656 0.21974 0.218595 0.217188 
0.215492 0.21348 0.211134 0.211193 0.213536 0.215542 0.217229 0.218625 0.219758 
0.220661 0.221366 0.221905 0.222309 0.222603 0.22281 0.222949 0.223034 0.223075 
0.223075 0.223034 0.222949 0.22281 0.222603 0.222309 0.221905 0.221366 0.220661 
0.219758 0.218625 0.217229 0.215542 0.213536 0.211193 0.211254 0.213594 0.215593 
0.217272 0.218656 0.219777 0.220666 0.221358 0.221885 0.222277 0.222561 0.22276 
0.222893 0.222975 0.223013 0.223013 0.222975 0.222893 0.22276 0.222561 0.222277 
0.221885 0.221358 0.220666 0.219777 0.218656 0.217272 0.215593 0.213594 0.211254 
0.211316 0.213653 0.215646 0.217315 0.218688 0.219795 0.220671 0.221349 0.221863 
0.222244 0.222518 0.222709 0.222837 0.222914 0.22295 0.22295 0.222914 0.222837 
0.222709 0.222518 0.222244 0.221863 0.221349 0.220671 0.219795 0.218688 0.217315 
0.215646 0.213653 0.211316 0.211379 0.213714 0.2157 0.217359 0.21872 0.219814 
0.220676 0.22134 0.221841 0.22221 0.222475 0.222658 0.222779 0.222852 0.222886 
0.222886 0.222852 0.222779 0.222658 0.222475 0.22221 0.221841 0.22134 0.220676 
0.219814 0.21872 0.217359 0.2157 0.213714 0.211379 0.211445 0.213776 0.215755 
0.217405 0.218753 0.219833 0.220681 0.221331 0.221819 0.222176 0.22243 0.222605 
0.22272 0.222789 0.222822 0.222822 0.222789 0.22272 0.222605 0.22243 0.222176 
0.221819 0.221331 0.220681 0.219833 0.218753 0.217405 0.215755 0.213776 0.211445 
0.211512 0.21384 0.215812 0.217451 0.218787 0.219853 0.220686 0.221321 0.221796 
0.222141 0.222385 0.222552 0.222661 0.222726 0.222756 0.222756 0.222726 0.222661 
0.222552 0.222385 0.222141 0.221796 0.221321 0.220686 0.219853 0.218787 0.217451 
0.215812 0.21384 0.211512 0.211581 0.213905 0.21587 0.217499 0.218821 0.219873 
0.22069 0.221311 0.221772 0.222105 0.222338 0.222497 0.2226 0.222661 0.222689 
0.222689 0.222661 0.2226 0.222497 0.222338 0.222105 0.221772 0.221311 0.22069 
0.219873 0.218821 0.217499 0.21587 0.213905 0.211581 0.211652 0.213973 0.21593 
0.217547 0.218856 0.219893 0.220695 0.221301 0.221747 0.222068 0.222291 0.222442 
0.222539 0.222595 0.222622 0.222622 0.222595 0.222539 0.222442 0.222291 0.222068 
0.221747 0.221301 0.220695 0.219893 0.218856 0.217547 0.21593 0.213973 0.211652 
0.211725 0.214042 0.215991 0.217597 0.218892 0.219913 0.220699 0.221289 0.221722 
0.22203 0.222243 0.222385 0.222476 0.222529 0.222553 0.222553 0.222529 0.222476 
0.222385 0.222243 0.22203 0.221722 0.221289 0.220699 0.219913 0.218892 0.217597 
0.215991 0.214042 0.211725 0.211799 0.214113 0.216053 0.217648 0.218928 0.219933 
0.220703 0.221278 0.221696 0.221991 0.222194 0.222328 0.222412 0.222461 0.222483 
0.222483 0.222461 0.222412 0.222328 0.222194 0.221991 0.221696 0.221278 0.220703 
0.219933 0.218928 0.217648 0.216053 0.214113 0.211799 0.211876 0.214186 0.216118 
0.2177 0.218965 0.219954 0.220707 0.221265 0.221668 0.221951 0.222143 0.222269 
0.222348 0.222393 0.222413 0.222413 0.222393 0.222348 0.222269 0.222143 0.221951 
0.221668 0.221265 0.220707 0.219954 0.218965 0.2177 0.216118 0.214186 0.211876 
0.211956 0.214261 0.216184 0.217753 0.219003 0.219974 0.22071 0.221252 0.221641 
0.22191 0.222092 0.22221 0.222282 0.222323 0.222341 0.222341 0.222323 0.222282 
0.22221 0.222092 0.22191 0.221641 0.221252 0.22071 0.219974 0.219003 0.217753 
0.216184 0.214261 0.211956 0.212037 0.214338 0.216252 0.217807 0.219041 0.219995 
0.220713 0.221238 0.221612 0.221869 0.222039 0.222149 0.222215 0.222253 0.222269 
0.222269 0.222253 0.222215 0.222149 0.222039 0.221869 0.221612 0.221238 0.220713 
0.219995 0.219041 0.217807 0.216252 0.214338 0.212037 0.212121 0.214417 0.216321 
0.217863 0.21908 0.220016 0.220716 0.221224 0.221582 0.221826 0.221986 0.222087 
0.222148 0.222181 0.222196 0.222196 0.222181 0.222148 0.222087 0.221986 0.221826 
0.221582 0.221224 0.220716 0.220016 0.21908 0.217863 0.216321 0.214417 0.212121 
0.212208 0.214499 0.216393 0.21792 0.21912 0.220037 0.220718 0.221209 0.221551 
0.221781 0.221931 0.222024 0.222079 0.222109 0.222121 0.222121 0.222109 0.222079 
0.222024 0.221931 0.221781 0.221551 0.221209 0.220718 0.220037 0.21912 0.21792 
0.216393 0.214499 0.212208 0.212297 0.214583 0.216466 0.217978 0.21916 0.220058 
0.22072 0.221192 0.221519 0.221736 0.221875 0.22196 0.222009 0.222035 0.222046 
0.222046 0.222035 0.222009 0.22196 0.221875 0.221736 0.221519 0.221192 0.22072 
0.220058 0.21916 0.217978 0.216466 0.214583 0.212297 0.212388 0.214669 0.216541 
0.218038 0.219201 0.220079 0.220721 0.221175 0.221486 0.22169 0.221818 0.221895 
0.221938 0.221961 0.22197 0.22197 0.221961 0.221938 0.221895 0.221818 0.22169 
0.221486 0.221175 0.220721 0.220079 0.219201 0.218038 0.216541 0.214669 0.212388 
0.212483 0.214758 0.216619 0.218099 0.219242 0.2201 0.220721 0.221157 0.221451 
0.221642 0.22176 0.221829 0.221867 0.221886 0.221893 0.221893 0.221886 0.221867 
0.221829 0.22176 0.221642 0.221451 0.221157 0.220721 0.2201 0.219242 0.218099 
0.216619 0.214758 0.212483 0.212581 0.21485 0.216698 0.218161 0.219284 0.22012 
0.220721 0.221138 0.221416 0.221593 0.2217 0.221761 0.221794 0.221809 0.221815 
0.221815 0.221809 0.221794 0.221761 0.2217 0.221593 0.221416 0.221138 0.220721 
0.22012 0.219284 0.218161 0.216698 0.21485 0.212581 0.212681 0.214944 0.21678 
0.218225 0.219327 0.220141 0.22072 0.221117 0.221379 0.221542 0.221639 0.221693 
0.22172 0.221732 0.221737 0.221737 0.221732 0.22172 0.221693 0.221639 0.221542 
0.221379 0.221117 0.22072 0.220141 0.219327 0.218225 0.21678 0.214944 0.212681 
0.212785 0.215042 0.216864 0.21829 0.21937 0.220161 0.220718 0.221096 0.22134 
0.22149 0.221577 0.221623 0.221645 0.221654 0.221657 0.221657 0.221654 0.221645 
0.221623 0.221577 0.22149 0.22134 0.221096 0.220718 0.220161 0.21937 0.21829 
0.216864 0.215042 0.212785 0.212893 0.215142 0.21695 0.218356 0.219413 0.22018 
0.220715 0.221073 0.2213 0.221437 0.221513 0.221552 0.22157 0.221576 0.221577 
0.221577 0.221576 0.22157 0.221552 0.221513 0.221437 0.2213 0.221073 0.220715 
0.22018 0.219413 0.218356 0.21695 0.215142 0.212893 0.213004 0.215246 0.217038 
0.218424 0.219457 0.220199 0.220711 0.221048 0.221259 0.221382 0.221449 0.22148 
0.221493 0.221496 0.221497 0.221497 0.221496 0.221493 0.22148 0.221449 0.221382 
0.221259 0.221048 0.220711 0.220199 0.219457 0.218424 0.217038 0.215246 0.213004 
0.213119 0.215353 0.217129 0.218493 0.219501 0.220218 0.220706 0.221022 0.221215 
0.221326 0.221382 0.221407 0.221415 0.221416 0.221415 0.221415 0.221416 0.221415 
0.221407 0.221382 0.221326 0.221215 0.221022 0.220706 0.220218 0.219501 0.218493 
0.217129 0.215353 0.213119 0.213238 0.215464 0.217223 0.218563 0.219546 0.220236 
0.220699 0.220994 0.221171 0.221268 0.221315 0.221333 0.221337 0.221335 0.221333 
0.221333 0.221335 0.221337 0.221333 0.221315 0.221268 0.221171 0.220994 0.220699 