# vtk DataFile Version 5.1
vtk output
ASCII
DATASET UNSTRUCTURED_GRID
POINTS 9486 double
0.1016 1.5 0 0.1016 1.45 0 0.1016 1.4 0 
0.1016 1.35 0 0.1016 1.3 0 0.1016 1.25 0 
0.1016 1.2 0 0.1016 1.15 0 0.1016 1.1 0 
0.1016 1.05 0 0.1016 1 0 0.1016 0.95 0 
0.1016 0.9 0 0.1016 0.85 0 0.1016 0.8 0 
0.1016 0.75 0 0.1016 0.7 0 0.1016 0.65 0 
0.1016 0.6 0 0.1016 0.55 0 0.1016 0.5 0 
0.1016 0.45 0 0.1016 0.4 0 0.1016 0.35 0 
0.1016 0.3 0 0.1016 0.25 0 0.1016 0.2 0 
0.1016 0.15 0 0.1016 0.1 0 0.1016 0.05 0 
0.1016 0 0 5.08 1.5 0 5.08 1.45 0 
5.08 1.4 0 5.08 1.35 0 5.08 1.3 0 
5.08 1.25 0 5.08 1.2 0 5.08 1.15 0 
5.08 1.1 0 5.08 1.05 0 5.08 1 0 
5.08 0.95 0 5.08 0.9 0 5.08 0.85 0 
5.08 0.8 0 5.08 0.75 0 5.08 0.7 0 
5.08 0.65 0 5.08 0.6 0 5.08 0.55 0 
5.08 0.5 0 5.08 0.45 0 5.08 0.4 0 
5.08 0.35 0 5.08 0.3 0 5.08 0.25 0 
5.08 0.2 0 5.08 0.15 0 5.08 0.1 0 
5.08 0.05 0 5.08 0 0 0.151384 1.5 0 
0.151384 1.45 0 0.151384 1.4 0 0.151384 1.35 0 
0.151384 1.3 0 0.151384 1.25 0 0.151384 1.2 0 
0.151384 1.15 0 0.151384 1.1 0 0.151384 1.05 0 
0.151384 1 0 0.151384 0.95 0 0.151384 0.9 0 
0.151384 0.85 0 0.151384 0.8 0 0.151384 0.75 0 
0.151384 0.7 0 0.151384 0.65 0 0.151384 0.6 0 
0.151384 0.55 0 0.151384 0.5 0 0.151384 0.45 0 
0.151384 0.4 0 0.151384 0.35 0 0.151384 0.3 0 
0.151384 0.25 0 0.151384 0.2 0 0.151384 0.15 0 
0.151384 0.1 0 0.151384 0.05 0 0.151384 0 0 
0.201168 1.5 0 0.201168 1.45 0 0.201168 1.4 0 
0.201168 1.35 0 0.201168 1.3 0 0.201168 1.25 0 
0.201168 1.2 0 0.201168 1.15 0 0.201168 1.1 0 
0.201168 1.05 0 0.201168 1 0 0.201168 0.95 0 
0.201168 0.9 0 0.201168 0.85 0 0.201168 0.8 0 
0.201168 0.75 0 0.201168 0.7 0 0.201168 0.65 0 
0.201168 0.6 0 0.201168 0.55 0 0.201168 0.5 0 
0.201168 0.45 0 0.201168 0.4 0 0.201168 0.35 0 
0.201168 0.3 0 0.201168 0.25 0 0.201168 0.2 0 
0.201168 0.15 0 0.201168 0.1 0 0.201168 0.05 0 
0.201168 0 0 0.250952 1.5 0 0.250952 1.45 0 
0.250952 1.4 0 0.250952 1.35 0 0.250952 1.3 0 
0.250952 1.25 0 0.250952 1.2 0 0.250952 1.15 0 
0.250952 1.1 0 0.250952 1.05 0 0.250952 1 0 
0.250952 0.95 0 0.250952 0.9 0 0.250952 0.85 0 
0.250952 0.8 0 0.250952 0.75 0 0.250952 0.7 0 
0.250952 0.65 0 0.250952 0.6 0 0.250952 0.55 0 
0.250952 0.5 0 0.250952 0.45 0 0.250952 0.4 0 
0.250952 0.35 0 0.250952 0.3 0 0.250952 0.25 0 
0.250952 0.2 0 0.250952 0.15 0 0.250952 0.1 0 
0.250952 0.05 0 0.250952 0 0 0.300736 1.5 0 
0.300736 1.45 0 0.300736 1.4 0 0.300736 1.35 0 
0.300736 1.3 0 0.300736 1.25 0 0.300736 1.2 0 
0.300736 1.15 0 0.300736 1.1 0 0.300736 1.05 0 
0.300736 1 0 0.300736 0.95 0 0.300736 0.9 0 
0.300736 0.85 0 0.300736 0.8 0 0.300736 0.75 0 
0.300736 0.7 0 0.300736 0.65 0 0.300736 0.6 0 
0.300736 0.55 0 0.300736 0.5 0 0.300736 0.45 0 
0.300736 0.4 0 0.300736 0.35 0 0.300736 0.3 0 
0.300736 0.25 0 0.300736 0.2 0 0.300736 0.15 0 
0.300736 0.1 0 0.300736 0.05 0 0.300736 0 0 
0.35052 1.5 0 0.35052 1.45 0 0.35052 1.4 0 
0.35052 1.35 0 0.35052 1.3 0 0.35052 1.25 0 
0.35052 1.2 0 0.35052 1.15 0 0.35052 1.1 0 
0.35052 1.05 0 0.35052 1 0 0.35052 0.95 0 
0.35052 0.9 0 0.35052 0.85 0 0.35052 0.8 0 
0.35052 0.75 0 0.35052 0.7 0 0.35052 0.65 0 
0.35052 0.6 0 0.35052 0.55 0 0.35052 0.5 0 
0.35052 0.45 0 0.35052 0.4 0 0.35052 0.35 0 
0.35052 0.3 0 0.35052 0.25 0 0.35052 0.2 0 
0.35052 0.15 0 0.35052 0.1 0 0.35052 0.05 0 
0.35052 0 0 0.400304 1.5 0 0.400304 1.45 0 
0.400304 1.4 0 0.400304 1.35 0 0.400304 1.3 0 
0.400304 1.25 0 0.400304 1.2 0 0.400304 1.15 0 
0.400304 1.1 0 0.400304 1.05 0 0.400304 1 0 
0.400304 0.95 0 0.400304 0.9 0 0.400304 0.85 0 
0.400304 0.8 0 0.400304 0.75 0 0.400304 0.7 0 
0.400304 0.65 0 0.400304 0.6 0 0.400304 0.55 0 
0.400304 0.5 0 0.400304 0.45 0 0.400304 0.4 0 
0.400304 0.35 0 0.400304 0.3 0 0.400304 0.25 0 
0.400304 0.2 0 0.400304 0.15 0 0.400304 0.1 0 
0.400304 0.05 0 0.400304 0 0 0.450088 1.5 0 
0.450088 1.45 0 0.450088 1.4 0 0.450088 1.35 0 
0.450088 1.3 0 0.450088 1.25 0 0.450088 1.2 0 
0.450088 1.15 0 0.450088 1.1 0 0.450088 1.05 0 
0.450088 1 0 0.450088 0.95 0 0.450088 0.9 0 
0.450088 0.85 0 0.450088 0.8 0 0.450088 0.75 0 
0.450088 0.7 0 0.450088 0.65 0 0.450088 0.6 0 
0.450088 0.55 0 0.450088 0.5 0 0.450088 0.45 0 
0.450088 0.4 0 0.450088 0.35 0 0.450088 0.3 0 
0.450088 0.25 0 0.450088 0.2 0 0.450088 0.15 0 
0.450088 0.1 0 0.450088 0.05 0 0.450088 0 0 
0.499872 1.5 0 0.499872 1.45 0 0.499872 1.4 0 
0.499872 1.35 0 0.499872 1.3 0 0.499872 1.25 0 
0.499872 1.2 0 0.499872 1.15 0 0.499872 1.1 0 
0.499872 1.05 0 0.499872 1 0 0.499872 0.95 0 
0.499872 0.9 0 0.499872 0.85 0 0.499872 0.8 0 
0.499872 0.75 0 0.499872 0.7 0 0.499872 0.65 0 
0.499872 0.6 0 0.499872 0.55 0 0.499872 0.5 0 
0.499872 0.45 0 0.499872 0.4 0 0.499872 0.35 0 
0.499872 0.3 0 0.499872 0.25 0 0.499872 0.2 0 
0.499872 0.15 0 0.499872 0.1 0 0.499872 0.05 0 
0.499872 0 0 0.549656 1.5 0 0.549656 1.45 0 
0.549656 1.4 0 0.549656 1.35 0 0.549656 1.3 0 
0.549656 1.25 0 0.549656 1.2 0 0.549656 1.15 0 
0.549656 1.1 0 0.549656 1.05 0 0.549656 1 0 
0.549656 0.95 0 0.549656 0.9 0 0.549656 0.85 0 
0.549656 0.8 0 0.549656 0.75 0 0.549656 0.7 0 
0.549656 0.65 0 0.549656 0.6 0 0.549656 0.55 0 
0.549656 0.5 0 0.549656 0.45 0 0.549656 0.4 0 
0.549656 0.35 0 0.549656 0.3 0 0.549656 0.25 0 
0.549656 0.2 0 0.549656 0.15 0 0.549656 0.1 0 
0.549656 0.05 0 0.549656 0 0 0.59944 1.5 0 
0.59944 1.45 0 0.59944 1.4 0 0.59944 1.35 0 
0.59944 1.3 0 0.59944 1.25 0 0.59944 1.2 0 
0.59944 1.15 0 0.59944 1.1 0 0.59944 1.05 0 
0.59944 1 0 0.59944 0.95 0 0.59944 0.9 0 
0.59944 0.85 0 0.59944 0.8 0 0.59944 0.75 0 
0.59944 0.7 0 0.59944 0.65 0 0.59944 0.6 0 
0.59944 0.55 0 0.59944 0.5 0 0.59944 0.45 0 
0.59944 0.4 0 0.59944 0.35 0 0.59944 0.3 0 
0.59944 0.25 0 0.59944 0.2 0 0.59944 0.15 0 
0.59944 0.1 0 0.59944 0.05 0 0.59944 0 0 
0.649224 1.5 0 0.649224 1.45 0 0.649224 1.4 0 
0.649224 1.35 0 0.649224 1.3 0 0.649224 1.25 0 
0.649224 1.2 0 0.649224 1.15 0 0.649224 1.1 0 
0.649224 1.05 0 0.649224 1 0 0.649224 0.95 0 
0.649224 0.9 0 0.649224 0.85 0 0.649224 0.8 0 
0.649224 0.75 0 0.649224 0.7 0 0.649224 0.65 0 
0.649224 0.6 0 0.649224 0.55 0 0.649224 0.5 0 
0.649224 0.45 0 0.649224 0.4 0 0.649224 0.35 0 
0.649224 0.3 0 0.649224 0.25 0 0.649224 0.2 0 
0.649224 0.15 0 0.649224 0.1 0 0.649224 0.05 0 
0.649224 0 0 0.699008 1.5 0 0.699008 1.45 0 
0.699008 1.4 0 0.699008 1.35 0 0.699008 1.3 0 
0.699008 1.25 0 0.699008 1.2 0 0.699008 1.15 0 
0.699008 1.1 0 0.699008 1.05 0 0.699008 1 0 
0.699008 0.95 0 0.699008 0.9 0 0.699008 0.85 0 
0.699008 0.8 0 0.699008 0.75 0 0.699008 0.7 0 
0.699008 0.65 0 0.699008 0.6 0 0.699008 0.55 0 
0.699008 0.5 0 0.699008 0.45 0 0.699008 0.4 0 
0.699008 0.35 0 0.699008 0.3 0 0.699008 0.25 0 
0.699008 0.2 0 0.699008 0.15 0 0.699008 0.1 0 
0.699008 0.05 0 0.699008 0 0 0.748792 1.5 0 
0.748792 1.45 0 0.748792 1.4 0 0.748792 1.35 0 
0.748792 1.3 0 0.748792 1.25 0 0.748792 1.2 0 
0.748792 1.15 0 0.748792 1.1 0 0.748792 1.05 0 
0.748792 1 0 0.748792 0.95 0 0.748792 0.9 0 
0.748792 0.85 0 0.748792 0.8 0 0.748792 0.75 0 
0.748792 0.7 0 0.748792 0.65 0 0.748792 0.6 0 
0.748792 0.55 0 0.748792 0.5 0 0.748792 0.45 0 
0.748792 0.4 0 0.748792 0.35 0 0.748792 0.3 0 
0.748792 0.25 0 0.748792 0.2 0 0.748792 0.15 0 
0.748792 0.1 0 0.748792 0.05 0 0.748792 0 0 
0.798576 1.5 0 0.798576 1.45 0 0.798576 1.4 0 
0.798576 1.35 0 0.798576 1.3 0 0.798576 1.25 0 
0.798576 1.2 0 0.798576 1.15 0 0.798576 1.1 0 
0.798576 1.05 0 0.798576 1 0 0.798576 0.95 0 
0.798576 0.9 0 0.798576 0.85 0 0.798576 0.8 0 
0.798576 0.75 0 0.798576 0.7 0 0.798576 0.65 0 
0.798576 0.6 0 0.798576 0.55 0 0.798576 0.5 0 
0.798576 0.45 0 0.798576 0.4 0 0.798576 0.35 0 
0.798576 0.3 0 0.798576 0.25 0 0.798576 0.2 0 
0.798576 0.15 0 0.798576 0.1 0 0.798576 0.05 0 
0.798576 0 0 0.84836 1.5 0 0.84836 1.45 0 
0.84836 1.4 0 0.84836 1.35 0 0.84836 1.3 0 
0.84836 1.25 0 0.84836 1.2 0 0.84836 1.15 0 
0.84836 1.1 0 0.84836 1.05 0 0.84836 1 0 
0.84836 0.95 0 0.84836 0.9 0 0.84836 0.85 0 
0.84836 0.8 0 0.84836 0.75 0 0.84836 0.7 0 
0.84836 0.65 0 0.84836 0.6 0 0.84836 0.55 0 
0.84836 0.5 0 0.84836 0.45 0 0.84836 0.4 0 
0.84836 0.35 0 0.84836 0.3 0 0.84836 0.25 0 
0.84836 0.2 0 0.84836 0.15 0 0.84836 0.1 0 
0.84836 0.05 0 0.84836 0 0 0.898144 1.5 0 
0.898144 1.45 0 0.898144 1.4 0 0.898144 1.35 0 
0.898144 1.3 0 0.898144 1.25 0 0.898144 1.2 0 
0.898144 1.15 0 0.898144 1.1 0 0.898144 1.05 0 
0.898144 1 0 0.898144 0.95 0 0.898144 0.9 0 
0.898144 0.85 0 0.898144 0.8 0 0.898144 0.75 0 
0.898144 0.7 0 0.898144 0.65 0 0.898144 0.6 0 
0.898144 0.55 0 0.898144 0.5 0 0.898144 0.45 0 
0.898144 0.4 0 0.898144 0.35 0 0.898144 0.3 0 
0.898144 0.25 0 0.898144 0.2 0 0.898144 0.15 0 
0.898144 0.1 0 0.898144 0.05 0 0.898144 0 0 
0.947928 1.5 0 0.947928 1.45 0 0.947928 1.4 0 
0.947928 1.35 0 0.947928 1.3 0 0.947928 1.25 0 
0.947928 1.2 0 0.947928 1.15 0 0.947928 1.1 0 
0.947928 1.05 0 0.947928 1 0 0.947928 0.95 0 
0.947928 0.9 0 0.947928 0.85 0 0.947928 0.8 0 
0.947928 0.75 0 0.947928 0.7 0 0.947928 0.65 0 
0.947928 0.6 0 0.947928 0.55 0 0.947928 0.5 0 
0.947928 0.45 0 0.947928 0.4 0 0.947928 0.35 0 
0.947928 0.3 0 0.947928 0.25 0 0.947928 0.2 0 
0.947928 0.15 0 0.947928 0.1 0 0.947928 0.05 0 
0.947928 0 0 0.997712 1.5 0 0.997712 1.45 0 
0.997712 1.4 0 0.997712 1.35 0 0.997712 1.3 0 
0.997712 1.25 0 0.997712 1.2 0 0.997712 1.15 0 
0.997712 1.1 0 0.997712 1.05 0 0.997712 1 0 
0.997712 0.95 0 0.997712 0.9 0 0.997712 0.85 0 
0.997712 0.8 0 0.997712 0.75 0 0.997712 0.7 0 
0.997712 0.65 0 0.997712 0.6 0 0.997712 0.55 0 
0.997712 0.5 0 0.997712 0.45 0 0.997712 0.4 0 
0.997712 0.35 0 0.997712 0.3 0 0.997712 0.25 0 
0.997712 0.2 0 0.997712 0.15 0 0.997712 0.1 0 
0.997712 0.05 0 0.997712 0 0 1.047496 1.5 0 
1.047496 1.45 0 1.047496 1.4 0 1.047496 1.35 0 
1.047496 1.3 0 1.047496 1.25 0 1.047496 1.2 0 
1.047496 1.15 0 1.047496 1.1 0 1.047496 1.05 0 
1.047496 1 0 1.047496 0.95 0 1.047496 0.9 0 
1.047496 0.85 0 1.047496 0.8 0 1.047496 0.75 0 
1.047496 0.7 0 1.047496 0.65 0 1.047496 0.6 0 
1.047496 0.55 0 1.047496 0.5 0 1.047496 0.45 0 
1.047496 0.4 0 1.047496 0.35 0 1.047496 0.3 0 
1.047496 0.25 0 1.047496 0.2 0 1.047496 0.15 0 
[...]
CELL_DATA 9150
FIELD FieldData 7
B_Stress_n_p_m2 1 9150 float
0.190209 0.26806 0.223253 0.240861 0.255938 0.254699 0.254313 0.254455 0.253751 
0.253136 0.25275 0.252468 0.252285 0.252185 0.252141 0.252141 0.252185 0.252285 
0.252468 0.25275 0.253136 0.253751 0.254455 0.254313 0.254699 0.255938 0.240861 
0.223253 0.26806 0.190209 0.45272 0.118449 0.153631 0.21338 0.226609 0.24 
0.250846 0.25546 0.257813 0.259123 0.259623 0.259766 0.259784 0.259758 0.259737 
0.259737 0.259758 0.259784 0.259766 0.259623 0.259123 0.257813 0.25546 0.250846 
0.24 0.226609 0.21338 0.153631 0.118449 0.45272 0.244248 0.170408 0.17696 
0.200627 0.212516 0.220461 0.226234 0.229416 0.231148 0.232139 0.232663 0.232932 
0.233073 0.233143 0.233172 0.233172 0.233143 0.233073 0.232932 0.232663 0.232139 
0.231148 0.229416 0.226234 0.220461 0.212516 0.200627 0.17696 0.170408 0.244248 
0.2089 0.193295 0.193547 0.204002 0.212744 0.219228 0.224135 0.227451 0.229588 
0.230971 0.23185 0.232401 0.232739 0.232934 0.233022 0.233022 0.232934 0.232739 
0.232401 0.23185 0.230971 0.229588 0.227451 0.224135 0.219228 0.212744 0.204002 
0.193547 0.193295 0.2089 0.205352 0.201636 0.202089 0.207768 0.213729 0.21889 
0.223127 0.226305 0.228582 0.230185 0.231291 0.232037 0.232524 0.232816 0.232953 
0.232953 0.232816 0.232524 0.232037 0.231291 0.230185 0.228582 0.226305 0.223127 
0.21889 0.213729 0.207768 0.202089 0.201636 0.205352 0.204051 0.204946 0.206531 
0.210317 0.214597 0.218634 0.222148 0.224984 0.227168 0.228805 0.229999 0.230845 
0.231418 0.231773 0.231942 0.231942 0.231773 0.231418 0.230845 0.229999 0.228805 
0.227168 0.224984 0.222148 0.218634 0.214597 0.210317 0.206531 0.204946 0.204051 
0.204446 0.206703 0.208934 0.212007 0.215395 0.218682 0.221642 0.224146 0.226171 
0.227757 0.22896 0.229843 0.230458 0.230845 0.231032 0.231032 0.230845 0.230458 
0.229843 0.22896 0.227757 0.226171 0.224146 0.221642 0.218682 0.215395 0.212007 
0.208934 0.206703 0.204446 0.205503 0.207976 0.21042 0.213172 0.216053 0.218847 
0.221403 0.223625 0.22548 0.226976 0.228145 0.229023 0.229646 0.230045 0.230239 
0.230239 0.230045 0.229646 0.229023 0.228145 0.226976 0.22548 0.223625 0.221403 
0.218847 0.216053 0.213172 0.21042 0.207976 0.205503 0.206533 0.209001 0.211469 
0.214022 0.216583 0.21904 0.221297 0.223287 0.22498 0.226374 0.227484 0.228333 
0.228944 0.229339 0.229533 0.229533 0.229339 0.228944 0.228333 0.227484 0.226374 
0.22498 0.223287 0.221297 0.21904 0.216583 0.214022 0.211469 0.209001 0.206533 
0.207387 0.209835 0.212265 0.214673 0.217016 0.219232 0.221263 0.223066 0.224616 
0.225909 0.226951 0.227758 0.228345 0.228728 0.228916 0.228916 0.228728 0.228345 
0.227758 0.226951 0.225909 0.224616 0.223066 0.221263 0.219232 0.217016 0.214673 
0.212265 0.209835 0.207387 0.208074 0.210511 0.21289 0.215186 0.217371 0.219411 
0.22127 0.222921 0.224348 0.225547 0.226521 0.227282 0.227838 0.228203 0.228383 
0.228383 0.228203 0.227838 0.227282 0.226521 0.225547 0.224348 0.222921 0.22127 
0.219411 0.217371 0.215186 0.21289 0.210511 0.208074 0.208625 0.211056 0.213389 
0.215598 0.217665 0.219572 0.221297 0.222826 0.224149 0.225263 0.226174 0.226887 
0.227411 0.227756 0.227926 0.227926 0.227756 0.227411 0.226887 0.226174 0.225263 
0.224149 0.222826 0.221297 0.219572 0.217665 0.215598 0.213389 0.211056 0.208625 
0.209069 0.211496 0.21379 0.215931 0.217908 0.219712 0.221333 0.222763 0.223998 
0.225039 0.225891 0.226559 0.227052 0.227377 0.227537 0.227537 0.227377 0.227052 
0.226559 0.225891 0.225039 0.223998 0.222763 0.221333 0.219712 0.217908 0.215931 
0.21379 0.211496 0.209069 0.209429 0.211853 0.214116 0.216203 0.21811 0.219834 
0.221371 0.22272 0.223882 0.22486 0.225659 0.226287 0.22675 0.227055 0.227207 
0.227207 0.227055 0.22675 0.226287 0.225659 0.22486 0.223882 0.22272 0.221371 
0.219834 0.21811 0.216203 0.214116 0.211853 0.209429 0.209721 0.212143 0.214381 
0.216426 0.218278 0.219938 0.221408 0.222691 0.223791 0.224715 0.225469 0.22606 
0.226497 0.226784 0.226926 0.226926 0.226784 0.226497 0.22606 0.225469 0.224715 
0.223791 0.222691 0.221408 0.219938 0.218278 0.216426 0.214381 0.212143 0.209721 
0.209962 0.212382 0.2146 0.216611 0.218418 0.220027 0.221442 0.222671 0.22372 
0.224597 0.225311 0.225871 0.226282 0.226553 0.226688 0.226688 0.226553 0.226282 
0.225871 0.225311 0.224597 0.22372 0.222671 0.221442 0.220027 0.218418 0.216611 
0.2146 0.212382 0.209962 0.21016 0.212579 0.21478 0.216764 0.218535 0.220102 
0.221473 0.222656 0.223662 0.2245 0.22518 0.225711 0.226101 0.226358 0.226485 
0.226485 0.226358 0.226101 0.225711 0.22518 0.2245 0.223662 0.222656 0.221473 
0.220102 0.218535 0.216764 0.21478 0.212579 0.21016 0.210326 0.212743 0.214931 
0.216892 0.218634 0.220167 0.2215 0.222646 0.223615 0.224419 0.225069 0.225575 
0.225947 0.22619 0.226311 0.226311 0.22619 0.225947 0.225575 0.225069 0.224419 
0.223615 0.222646 0.2215 0.220167 0.218634 0.216892 0.214931 0.212743 0.210326 
0.210465 0.212881 0.215058 0.217 0.218718 0.220221 0.221524 0.222637 0.223575 
0.22435 0.224975 0.22546 0.225814 0.226047 0.226162 0.226162 0.226047 0.225814 
0.22546 0.224975 0.22435 0.223575 0.222637 0.221524 0.220221 0.218718 0.217 
0.215058 0.212881 0.210465 0.210584 0.212998 0.215165 0.217092 0.218789 0.220268 
0.221544 0.22263 0.223541 0.224291 0.224894 0.22536 0.2257 0.225922 0.226032 
0.226032 0.225922 0.2257 0.22536 0.224894 0.224291 0.223541 0.22263 0.221544 
0.220268 0.218789 0.217092 0.215165 0.212998 0.210584 0.210685 0.213098 0.215257 
0.217171 0.21885 0.220309 0.221562 0.222624 0.223512 0.224241 0.224823 0.225273 
0.2256 0.225814 0.225919 0.225919 0.225814 0.2256 0.225273 0.224823 0.224241 
0.223512 0.222624 0.221562 0.220309 0.21885 0.217171 0.215257 0.213098 0.210685 
0.210774 0.213185 0.215337 0.217239 0.218903 0.220344 0.221577 0.222619 0.223487 
0.224196 0.224761 0.225196 0.225512 0.225718 0.225819 0.225819 0.225718 0.225512 
0.225196 0.224761 0.224196 0.223487 0.222619 0.221577 0.220344 0.218903 0.217239 
0.215337 0.213185 0.210774 0.210852 0.213262 0.215408 0.217299 0.21895 0.220374 
0.22159 0.222614 0.223464 0.224156 0.224706 0.225128 0.225434 0.225633 0.22573 
0.22573 0.225633 0.225434 0.225128 0.224706 0.224156 0.223464 0.222614 0.22159 
0.220374 0.21895 0.217299 0.215408 0.213262 0.210852 0.210921 0.21333 0.21547 
0.217352 0.218991 0.220401 0.221602 0.222609 0.223443 0.22412 0.224656 0.225066 
0.225363 0.225555 0.22565 0.22565 0.225555 0.225363 0.225066 0.224656 0.22412 
0.223443 0.222609 0.221602 0.220401 0.218991 0.217352 0.21547 0.21333 0.210921 
0.210985 0.213392 0.215527 0.217401 0.219028 0.220426 0.221612 0.222605 0.223424 
0.224086 0.22461 0.22501 0.225298 0.225485 0.225577 0.225577 0.225485 0.225298 
0.22501 0.22461 0.224086 0.223424 0.222605 0.221612 0.220426 0.219028 0.217401 
0.215527 0.213392 0.210985 0.211042 0.213448 0.215578 0.217444 0.219062 0.220448 
0.221621 0.2226 0.223405 0.224056 0.224568 0.224958 0.225239 0.22542 0.225509 
0.225509 0.22542 0.225239 0.224958 0.224568 0.224056 0.223405 0.2226 0.221621 
0.220448 0.219062 0.217444 0.215578 0.213448 0.211042 0.211096 0.213501 0.215626 
0.217485 0.219093 0.220468 0.221629 0.222595 0.223388 0.224027 0.224528 0.224909 
0.225182 0.225359 0.225445 0.225445 0.225359 0.225182 0.224909 0.224528 0.224027 
0.223388 0.222595 0.221629 0.220468 0.219093 0.217485 0.215626 0.213501 0.211096 
0.211147 0.21355 0.215671 0.217523 0.219122 0.220487 0.221636 0.222591 0.223372 
0.223999 0.22449 0.224863 0.225129 0.225301 0.225385 0.225385 0.225301 0.225129 
0.224863 0.22449 0.223999 0.223372 0.222591 0.221636 0.220487 0.219122 0.217523 
0.215671 0.21355 0.211147 0.211196 0.213597 0.215714 0.217559 0.21915 0.220504 
0.221642 0.222586 0.223356 0.223972 0.224454 0.224818 0.225079 0.225246 0.225328 
0.225328 0.225246 0.225079 0.224818 0.224454 0.223972 0.223356 0.222586 0.221642 
0.220504 0.21915 0.217559 0.215714 0.213597 0.211196 0.211243 0.213642 0.215755 
0.217594 0.219176 0.220521 0.221649 0.222581 0.22334 0.223946 0.224419 0.224775 
0.225029 0.225193 0.225272 0.225272 0.225193 0.225029 0.224775 0.224419 0.223946 
0.22334 0.222581 0.221649 0.220521 0.219176 0.217594 0.215755 0.213642 0.211243 
0.211288 0.213686 0.215795 0.217628 0.219202 0.220537 0.221654 0.222576 0.223325 
0.223921 0.224385 0.224733 0.224982 0.225141 0.225218 0.225218 0.225141 0.224982 
0.224733 0.224385 0.223921 0.223325 0.222576 0.221654 0.220537 0.219202 0.217628 
0.215795 0.213686 0.211288 0.211333 0.21373 0.215834 0.217661 0.219227 0.220553 
0.22166 0.222571 0.223309 0.223896 0.224351 0.224692 0.224935 0.22509 0.225165 
0.225165 0.22509 0.224935 0.224692 0.224351 0.223896 0.223309 0.222571 0.22166 
0.220553 0.219227 0.217661 0.215834 0.21373 0.211333 0.211378 0.213773 0.215873 
0.217693 0.219251 0.220568 0.221665 0.222566 0.223294 0.223871 0.224318 0.224652 
0.224888 0.225039 0.225113 0.225113 0.225039 0.224888 0.224652 0.224318 0.223871 
0.223294 0.222566 0.221665 0.220568 0.219251 0.217693 0.215873 0.213773 0.211378 
0.211422 0.213815 0.215911 0.217725 0.219276 0.220583 0.221671 0.222561 0.223279 
0.223846 0.224284 0.224611 0.224842 0.22499 0.225061 0.225061 0.22499 0.224842 
0.224611 0.224284 0.223846 0.223279 0.222561 0.221671 0.220583 0.219276 0.217725 
0.215911 0.213815 0.211422 0.211467 0.213858 0.21595 0.217758 0.2193 0.220598 
0.221676 0.222556 0.223264 0.223822 0.224251 0.224571 0.224796 0.22494 0.225009 
0.225009 0.22494 0.224796 0.224571 0.224251 0.223822 0.223264 0.222556 0.221676 
0.220598 0.2193 0.217758 0.21595 0.213858 0.211467 0.211511 0.213901 0.215988 
0.21779 0.219324 0.220613 0.221681 0.222551 0.223248 0.223797 0.224218 0.22453 
0.22475 0.22489 0.224958 0.224958 0.22489 0.22475 0.22453 0.224218 0.223797 
0.223248 0.222551 0.221681 0.220613 0.219324 0.21779 0.215988 0.213901 0.211511 
0.211557 0.213944 0.216027 0.217823 0.219349 0.220628 0.221686 0.222545 0.223233 
0.223771 0.224184 0.224489 0.224704 0.22484 0.224906 0.224906 0.22484 0.224704 
0.224489 0.224184 0.223771 0.223233 0.222545 0.221686 0.220628 0.219349 0.217823 
0.216027 0.213944 0.211557 0.211602 0.213988 0.216067 0.217856 0.219374 0.220644 
0.22169 0.22254 0.223217 0.223746 0.22415 0.224448 0.224657 0.22479 0.224854 
0.224854 0.22479 0.224657 0.224448 0.22415 0.223746 0.223217 0.22254 0.22169 
0.220644 0.219374 0.217856 0.216067 0.213988 0.211602 0.211649 0.214032 0.216107 
0.217889 0.219399 0.220659 0.221695 0.222534 0.223201 0.22372 0.224116 0.224407 
0.22461 0.224739 0.224801 0.224801 0.224739 0.22461 0.224407 0.224116 0.22372 
0.223201 0.222534 0.221695 0.220659 0.219399 0.217889 0.216107 0.214032 0.211649 
0.211696 0.214078 0.216148 0.217923 0.219424 0.220675 0.2217 0.222528 0.223184 
0.223694 0.224081 0.224365 0.224563 0.224687 0.224748 0.224748 0.224687 0.224563 
0.224365 0.224081 0.223694 0.223184 0.222528 0.2217 0.220675 0.219424 0.217923 
0.216148 0.214078 0.211696 0.211744 0.214124 0.216189 0.217957 0.21945 0.22069 
0.221705 0.222522 0.223168 0.223668 0.224046 0.224322 0.224515 0.224635 0.224694 
0.224694 0.224635 0.224515 0.224322 0.224046 0.223668 0.223168 0.222522 0.221705 
0.22069 0.21945 0.217957 0.216189 0.214124 0.211744 0.211793 0.214171 0.216231 
0.217993 0.219476 0.220706 0.22171 0.222516 0.223151 0.223641 0.22401 0.224279 
0.224466 0.224583 0.224639 0.224639 0.224583 0.224466 0.224279 0.22401 0.223641 
0.223151 0.222516 0.22171 0.220706 0.219476 0.217993 0.216231 0.214171 0.211793 
0.211844 0.214219 0.216274 0.218028 0.219503 0.220722 0.221715 0.22251 0.223133 
0.223613 0.223974 0.224236 0.224417 0.22453 0.224584 0.224584 0.22453 0.224417 
0.224236 0.223974 0.223613 0.223133 0.22251 0.221715 0.220722 0.219503 0.218028 
0.216274 0.214219 0.211844 0.211895 0.214268 0.216318 0.218065 0.21953 0.220739 
0.22172 0.222503 0.223116 0.223585 0.223937 0.224191 0.224366 0.224476 0.224528 
0.224528 0.224476 0.224366 0.224191 0.223937 0.223585 0.223116 0.222503 0.22172 
0.220739 0.21953 0.218065 0.216318 0.214268 0.211895 0.211947 0.214318 0.216363 
0.218102 0.219557 0.220756 0.221725 0.222496 0.223098 0.223557 0.223899 0.224146 
0.224315 0.224421 0.224471 0.224471 0.224421 0.224315 0.224146 0.223899 0.223557 
0.223098 0.222496 0.221725 0.220756 0.219557 0.218102 0.216363 0.214318 0.211947 
0.212001 0.214369 0.216409 0.21814 0.219586 0.220773 0.22173 0.222489 0.223079 
0.223528 0.223861 0.2241 0.224264 0.224365 0.224413 0.224413 0.224365 0.224264 
0.2241 0.223861 0.223528 0.223079 0.222489 0.22173 0.220773 0.219586 0.21814 
0.216409 0.214369 0.212001 0.212056 0.214421 0.216456 0.218179 0.219614 0.22079 
0.221736 0.222482 0.22306 0.223498 0.223822 0.224053 0.224211 0.224308 0.224355 
0.224355 0.224308 0.224211 0.224053 0.223822 0.223498 0.22306 0.222482 0.221736 
0.22079 0.219614 0.218179 0.216456 0.214421 0.212056 0.212112 0.214475 0.216504 
0.218219 0.219644 0.220807 0.221741 0.222475 0.223041 0.223468 0.223782 0.224006 
0.224158 0.224251 0.224295 0.224295 0.224251 0.224158 0.224006 0.223782 0.223468 
0.223041 0.222475 0.221741 0.220807 0.219644 0.218219 0.216504 0.214475 0.212112 
0.21217 0.21453 0.216553 0.21826 0.219674 0.220825 0.221746 0.222467 0.223021 
0.223437 0.223742 0.223958 0.224103 0.224193 0.224235 0.224235 0.224193 0.224103 
0.223958 0.223742 0.223437 0.223021 0.222467 0.221746 0.220825 0.219674 0.21826 
0.216553 0.21453 0.21217 0.21223 0.214587 0.216604 0.218301 0.219704 0.220844 
0.221751 0.222459 0.223001 0.223405 0.2237 0.223908 0.224048 0.224133 0.224174 
0.224174 0.224133 0.224048 0.223908 0.2237 0.223405 0.223001 0.222459 0.221751 
0.220844 0.219704 0.218301 0.216604 0.214587 0.21223 0.21229 0.214645 0.216656 
0.218344 0.219736 0.220862 0.221756 0.222451 0.22298 0.223373 0.223658 0.223858 
0.223992 0.224073 0.224112 0.224112 0.224073 0.223992 0.223858 0.223658 0.223373 
0.22298 0.222451 0.221756 0.220862 0.219736 0.218344 0.216656 0.214645 0.21229 
0.212353 0.214704 0.216709 0.218387 0.219768 0.220881 0.221761 0.222442 0.222958 
0.22334 0.223615 0.223807 0.223935 0.224012 0.224048 0.224048 0.224012 0.223935 
0.223807 0.223615 0.22334 0.222958 0.222442 0.221761 0.220881 0.219768 0.218387 
0.216709 0.214704 0.212353 0.212417 0.214765 0.216763 0.218432 0.2198 0.2209 
0.221766 0.222433 0.222936 0.223306 0.223571 0.223755 0.223877 0.22395 0.223984 
0.223984 0.22395 0.223877 0.223755 0.223571 0.223306 0.222936 0.222433 0.221766 
0.2209 0.2198 0.218432 0.216763 0.214765 0.212417 0.212482 0.214828 0.216818 
0.218477 0.219833 0.220919 0.22177 0.222424 0.222913 0.223272 0.223527 0.223702 
0.223818 0.223887 0.223919 0.223919 0.223887 0.223818 0.223702 0.223527 0.223272 
0.222913 0.222424 0.22177 0.220919 0.219833 0.218477 0.216818 0.214828 0.212482 
0.21255 0.214892 0.216875 0.218524 0.219867 0.220939 0.221775 0.222414 0.22289 
0.223236 0.223481 0.223649 0.223758 0.223823 0.223853 0.223853 0.223823 0.223758 
0.223649 0.223481 0.223236 0.22289 0.222414 0.221775 0.220939 0.219867 0.218524 
0.216875 0.214892 0.21255 0.212619 0.214958 0.216934 0.218572 0.219901 0.220958 
0.22178 0.222404 0.222866 0.2232 0.223434 0.223594 0.223697 0.223758 0.223786 
0.223786 0.223758 0.223697 0.223594 0.223434 0.2232 0.222866 0.222404 0.22178 
0.220958 0.219901 0.218572 0.216934 0.214958 0.212619 0.212691 0.215025 0.216994 
0.21862 0.219937 0.220978 0.221784 0.222393 0.222841 0.223163 0.223387 0.223538 
0.223635 0.223692 0.223718 0.223718 0.223692 0.223635 0.223538 0.223387 0.223163 
0.222841 0.222393 0.221784 0.220978 0.219937 0.21862 0.216994 0.215025 0.212691 
0.212764 0.215095 0.217055 0.21867 0.219972 0.220999 0.221788 0.222381 0.222815 
0.223125 0.223338 0.223481 0.223572 0.223625 0.223649 0.223649 0.223625 0.223572 
0.223481 0.223338 0.223125 0.222815 0.222381 0.221788 0.220999 0.219972 0.21867 
0.217055 0.215095 0.212764 0.212839 0.215166 0.217118 0.218721 0.220009 0.221019 
0.221792 0.22237 0.222789 0.223086 0.223289 0.223423 0.223508 0.223557 0.223579 
0.223579 0.223557 0.223508 0.223423 0.223289 0.223086 0.222789 0.22237 0.221792 
0.221019 0.220009 0.218721 0.217118 0.215166 0.212839 0.212917 0.21524 0.217183 
0.218774 0.220046 0.22104 0.221796 0.222357 0.222762 0.223046 0.223238 0.223364 
0.223443 0.223488 0.223508 0.223508 0.223488 0.223443 0.223364 0.223238 0.223046 
0.222762 0.222357 0.221796 0.22104 0.220046 0.218774 0.217183 0.21524 0.212917 
0.212996 0.215315 0.217249 0.218827 0.220084 0.22106 0.221799 0.222344 0.222734 
0.223004 0.223186 0.223304 0.223377 0.223418 0.223436 0.223436 0.223418 0.223377 
0.223304 0.223186 0.223004 0.222734 0.222344 0.221799 0.22106 0.220084 0.218827 
0.217249 0.215315 0.212996 0.213078 0.215393 0.217318 0.218882 0.220122 0.221081 
0.221802 0.22233 0.222705 0.222962 0.223134 0.223243 0.22331 0.223347 0.223363 
0.223363 0.223347 0.22331 0.223243 0.223134 0.222962 0.222705 0.22233 0.221802 
0.221081 0.220122 0.218882 0.217318 0.215393 0.213078 0.213163 0.215472 0.217388 
0.218938 0.220162 0.221102 0.221805 0.222315 0.222675 0.222919 0.22308 0.223181 
0.223242 0.223275 0.22329 0.22329 0.223275 0.223242 0.223181 0.22308 0.222919 
0.222675 0.222315 0.221805 0.221102 0.220162 0.218938 0.217388 0.215472 0.213163 
0.213249 0.215554 0.217459 0.218995 0.220201 0.221123 0.221807 0.2223 0.222643 
0.222875 0.223025 0.223118 0.223173 0.223202 0.223215 0.223215 0.223202 0.223173 
0.223118 0.223025 0.222875 0.222643 0.2223 0.221807 0.221123 0.220201 0.218995 
0.217459 0.215554 0.213249 0.213339 0.215639 0.217533 0.219054 0.220242 0.221144 
0.221809 0.222284 0.222611 0.222829 0.222968 0.223053 0.223102 0.223128 0.223139 
0.223139 0.223128 0.223102 0.223053 0.222968 0.222829 0.222611 0.222284 0.221809 
0.221144 0.220242 0.219054 0.217533 0.215639 0.213339 0.213431 0.215726 0.217609 
0.219114 0.220283 0.221165 0.22181 0.222266 0.222578 0.222782 0.222911 0.222988 
0.223031 0.223054 0.223063 0.223063 0.223054 0.223031 0.222988 0.222911 0.222782 
0.222578 0.222266 0.22181 0.221165 0.220283 0.219114 0.217609 0.215726 0.213431 
0.213526 0.215815 0.217687 0.219175 0.220324 0.221186 0.22181 0.222248 0.222543 
0.222734 0.222852 0.222921 0.222959 0.222978 0.222986 0.222986 0.222978 0.222959 
0.222921 0.222852 0.222734 0.222543 0.222248 0.22181 0.221186 0.220324 0.219175 
0.217687 0.215815 0.213526 0.213624 0.215908 0.217766 0.219237 0.220367 0.221206 
0.22181 0.222228 0.222507 0.222685 0.222792 0.222853 0.222886 0.222901 0.222907 
0.222907 0.222901 0.222886 0.222853 0.222792 0.222685 0.222507 0.222228 0.22181 
0.221206 0.220367 0.219237 0.217766 0.215908 0.213624 0.213726 0.216003 0.217848 
0.219301 0.220409 0.221227 0.221809 0.222208 0.22247 0.222634 0.222731 0.222784 
0.222812 0.222824 0.222828 0.222828 0.222824 0.222812 0.222784 0.222731 0.222634 
0.22247 0.222208 0.221809 0.221227 0.220409 0.219301 0.217848 0.216003 0.213726 
0.21383 0.216101 0.217933 0.219367 0.220453 0.221247 0.221807 0.222186 0.222431 
0.222582 0.222668 0.222714 0.222736 0.222746 0.222749 0.222749 0.222746 0.222736 
0.222714 0.222668 0.222582 0.222431 0.222186 0.221807 0.221247 0.220453 0.219367 
0.217933 0.216101 0.21383 0.213938 0.216202 0.218019 0.219433 0.220496 0.221267 
0.221804 0.222163 0.222391 0.222528 0.222604 0.222643 0.22266 0.222667 0.222668 
0.222668 0.222667 0.22266 0.222643 0.222604 0.222528 0.222391 0.222163 0.221804 
0.221267 0.220496 0.219433 0.218019 0.216202 0.213938 0.21405 0.216306 0.218108 
0.219501 0.22054 0.221286 0.2218 0.222138 0.222349 0.222473 0.222539 0.222571 
0.222583 0.222587 0.222587 0.222587 0.222587 0.222583 0.222571 0.222539 0.222473 
0.222349 0.222138 0.2218 0.221286 0.22054 0.219501 0.218108 0.216306 0.21405 
0.214166 0.216414 0.2182 0.219571 0.220584 0.221304 0.221794 0.222112 0.222306 
0.222416 0.222473 0.222498 0.222505 0.222506 0.222505 0.222505 0.222506 0.222505 
0.222498 0.222473 0.222416 0.222306 0.222112 0.221794 0.221304 0.220584 0.219571 
0.2182 0.216414 0.214166 0.214285 0.216525 0.218294 0.219642 0.220629 0.221322 
0.221787 0.222083 0.22226 0.222358 0.222405 0.222423 0.222427 0.222425 0.222423 
0.222423 0.222425 0.222427 0.222423 0.222405 0.222358 0.22226 0.222083 0.221787 