# vtk DataFile Version 5.1
vtk output
ASCII
DATASET UNSTRUCTURED_GRID
POINTS 9610 double
0.1016 1.5 0 0.1016 1.45 0 0.1016 1.4 0 
0.1016 1.35 0 0.1016 1.3 0 0.1016 1.25 0 
0.1016 1.2 0 0.1016 1.15 0 0.1016 1.1 0 
0.1016 1.05 0 0.1016 1 0 0.1016 0.95 0 
0.1016 0.9 0 0.1016 0.85 0 0.1016 0.8 0 
0.1016 0.75 0 0.1016 0.7 0 0.1016 0.65 0 
0.1016 0.6 0 0.1016 0.55 0 0.1016 0.5 0 
0.1016 0.45 0 0.1016 0.4 0 0.1016 0.35 0 
0.1016 0.3 0 0.1016 0.25 0 0.1016 0.2 0 
0.1016 0.15 0 0.1016 0.1 0 0.1016 0.05 0 
0.1016 0 0 5.08 1.5 0 5.08 1.45 0 
5.08 1.4 0 5.08 1.35 0 5.08 1.3 0 
5.08 1.25 0 5.08 1.2 0 5.08 1.15 0 
5.08 1.1 0 5.08 1.05 0 5.08 1 0 
5.08 0.95 0 5.08 0.9 0 5.08 0.85 0 
5.08 0.8 0 5.08 0.75 0 5.08 0.7 0 
5.08 0.65 0 5.08 0.6 0 5.08 0.55 0 
5.08 0.5 0 5.08 0.45 0 5.08 0.4 0 
5.08 0.35 0 5.08 0.3 0 5.08 0.25 0 
5.08 0.2 0 5.08 0.15 0 5.08 0.1 0 
5.08 0.05 0 5.08 0 0 0.151384 1.5 0 
0.151384 1.45 0 0.151384 1.4 0 0.151384 1.35 0 
0.151384 1.3 0 0.151384 1.25 0 0.151384 1.2 0 
0.151384 1.15 0 0.151384 1.1 0 0.151384 1.05 0 
0.151384 1 0 0.151384 0.95 0 0.151384 0.9 0 
0.151384 0.85 0 0.151384 0.8 0 0.151384 0.75 0 
0.151384 0.7 0 0.151384 0.65 0 0.151384 0.6 0 
0.151384 0.55 0 0.151384 0.5 0 0.151384 0.45 0 
0.151384 0.4 0 0.151384 0.35 0 0.151384 0.3 0 
0.151384 0.25 0 0.151384 0.2 0 0.151384 0.15 0 
0.151384 0.1 0 0.151384 0.05 0 0.151384 0 0 
0.201168 1.5 0 0.201168 1.45 0 0.201168 1.4 0 
0.201168 1.35 0 0.201168 1.3 0 0.201168 1.25 0 
0.201168 1.2 0 0.201168 1.15 0 0.201168 1.1 0 
0.201168 1.05 0 0.201168 1 0 0.201168 0.95 0 
0.201168 0.9 0 0.201168 0.85 0 0.201168 0.8 0 
0.201168 0.75 0 0.201168 0.7 0 0.201168 0.65 0 
0.201168 0.6 0 0.201168 0.55 0 0.201168 0.5 0 
0.201168 0.45 0 0.201168 0.4 0 0.201168 0.35 0 
0.201168 0.3 0 0.201168 0.25 0 0.201168 0.2 0 
0.201168 0.15 0 0.201168 0.1 0 0.201168 0.05 0 
0.201168 0 0 0.250952 1.5 0 0.250952 1.45 0 
0.250952 1.4 0 0.250952 1.35 0 0.250952 1.3 0 
0.250952 1.25 0 0.250952 1.2 0 0.250952 1.15 0 
0.250952 1.1 0 0.250952 1.05 0 0.250952 1 0 
0.250952 0.95 0 0.250952 0.9 0 0.250952 0.85 0 
0.250952 0.8 0 0.250952 0.75 0 0.250952 0.7 0 
0.250952 0.65 0 0.250952 0.6 0 0.250952 0.55 0 
0.250952 0.5 0 0.250952 0.45 0 0.250952 0.4 0 
0.250952 0.35 0 0.250952 0.3 0 0.250952 0.25 0 
0.250952 0.2 0 0.250952 0.15 0 0.250952 0.1 0 
0.250952 0.05 0 0.250952 0 0 0.300736 1.5 0 
0.300736 1.45 0 0.300736 1.4 0 0.300736 1.35 0 
0.300736 1.3 0 0.300736 1.25 0 0.300736 1.2 0 
0.300736 1.15 0 0.300736 1.1 0 0.300736 1.05 0 
0.300736 1 0 0.300736 0.95 0 0.300736 0.9 0 
0.300736 0.85 0 0.300736 0.8 0 0.300736 0.75 0 
0.300736 0.7 0 0.300736 0.65 0 0.300736 0.6 0 
0.300736 0.55 0 0.300736 0.5 0 0.300736 0.45 0 
0.300736 0.4 0 0.300736 0.35 0 0.300736 0.3 0 
0.300736 0.25 0 0.300736 0.2 0 0.300736 0.15 0 
0.300736 0.1 0 0.300736 0.05 0 0.300736 0 0 
0.35052 1.5 0 0.35052 1.45 0 0.35052 1.4 0 
0.35052 1.35 0 0.35052 1.3 0 0.35052 1.25 0 
0.35052 1.2 0 0.35052 1.15 0 0.35052 1.1 0 
0.35052 1.05 0 0.35052 1 0 0.35052 0.95 0 
0.35052 0.9 0 0.35052 0.85 0 0.35052 0.8 0 
0.35052 0.75 0 0.35052 0.7 0 0.35052 0.65 0 
0.35052 0.6 0 0.35052 0.55 0 0.35052 0.5 0 
0.35052 0.45 0 0.35052 0.4 0 0.35052 0.35 0 
0.35052 0.3 0 0.35052 0.25 0 0.35052 0.2 0 
0.35052 0.15 0 0.35052 0.1 0 0.35052 0.05 0 
0.35052 0 0 0.400304 1.5 0 0.400304 1.45 0 
0.400304 1.4 0 0.400304 1.35 0 0.400304 1.3 0 
0.400304 1.25 0 0.400304 1.2 0 0.400304 1.15 0 
0.400304 1.1 0 0.400304 1.05 0 0.400304 1 0 
0.400304 0.95 0 0.400304 0.9 0 0.400304 0.85 0 
0.400304 0.8 0 0.400304 0.75 0 0.400304 0.7 0 
0.400304 0.65 0 0.400304 0.6 0 0.400304 0.55 0 
0.400304 0.5 0 0.400304 0.45 0 0.400304 0.4 0 
0.400304 0.35 0 0.400304 0.3 0 0.400304 0.25 0 
0.400304 0.2 0 0.400304 0.15 0 0.400304 0.1 0 
0.400304 0.05 0 0.400304 0 0 0.450088 1.5 0 
0.450088 1.45 0 0.450088 1.4 0 0.450088 1.35 0 
0.450088 1.3 0 0.450088 1.25 0 0.450088 1.2 0 
0.450088 1.15 0 0.450088 1.1 0 0.450088 1.05 0 
0.450088 1 0 0.450088 0.95 0 0.450088 0.9 0 
0.450088 0.85 0 0.450088 0.8 0 0.450088 0.75 0 
0.450088 0.7 0 0.450088 0.65 0 0.450088 0.6 0 
0.450088 0.55 0 0.450088 0.5 0 0.450088 0.45 0 
0.450088 0.4 0 0.450088 0.35 0 0.450088 0.3 0 
0.450088 0.25 0 0.450088 0.2 0 0.450088 0.15 0 
0.450088 0.1 0 0.450088 0.05 0 0.450088 0 0 
0.499872 1.5 0 0.499872 1.45 0 0.499872 1.4 0 
0.499872 1.35 0 0.499872 1.3 0 0.499872 1.25 0 
0.499872 1.2 0 0.499872 1.15 0 0.499872 1.1 0 
0.499872 1.05 0 0.499872 1 0 0.499872 0.95 0 
0.499872 0.9 0 0.499872 0.85 0 0.499872 0.8 0 
0.499872 0.75 0 0.499872 0.7 0 0.499872 0.65 0 
0.499872 0.6 0 0.499872 0.55 0 0.499872 0.5 0 
0.499872 0.45 0 0.499872 0.4 0 0.499872 0.35 0 
0.499872 0.3 0 0.499872 0.25 0 0.499872 0.2 0 
0.499872 0.15 0 0.499872 0.1 0 0.499872 0.05 0 
0.499872 0 0 0.549656 1.5 0 0.549656 1.45 0 
0.549656 1.4 0 0.549656 1.35 0 0.549656 1.3 0 
0.549656 1.25 0 0.549656 1.2 0 0.549656 1.15 0 
0.549656 1.1 0 0.549656 1.05 0 0.549656 1 0 
0.549656 0.95 0 0.549656 0.9 0 0.549656 0.85 0 
0.549656 0.8 0 0.549656 0.75 0 0.549656 0.7 0 
0.549656 0.65 0 0.549656 0.6 0 0.549656 0.55 0 
0.549656 0.5 0 0.549656 0.45 0 0.549656 0.4 0 
0.549656 0.35 0 0.549656 0.3 0 0.549656 0.25 0 
0.549656 0.2 0 0.549656 0.15 0 0.549656 0.1 0 
0.549656 0.05 0 0.549656 0 0 0.59944 1.5 0 
0.59944 1.45 0 0.59944 1.4 0 0.59944 1.35 0 
0.59944 1.3 0 0.59944 1.25 0 0.59944 1.2 0 
0.59944 1.15 0 0.59944 1.1 0 0.59944 1.05 0 
0.59944 1 0 0.59944 0.95 0 0.59944 0.9 0 
0.59944 0.85 0 0.59944 0.8 0 0.59944 0.75 0 
0.59944 0.7 0 0.59944 0.65 0 0.59944 0.6 0 
0.59944 0.55 0 0.59944 0.5 0 0.59944 0.45 0 
0.59944 0.4 0 0.59944 0.35 0 0.59944 0.3 0 
0.59944 0.25 0 0.59944 0.2 0 0.59944 0.15 0 
0.59944 0.1 0 0.59944 0.05 0 0.59944 0 0 
0.649224 1.5 0 0.649224 1.45 0 0.649224 1.4 0 
0.649224 1.35 0 0.649224 1.3 0 0.649224 1.25 0 
0.649224 1.2 0 0.649224 1.15 0 0.649224 1.1 0 
0.649224 1.05 0 0.649224 1 0 0.649224 0.95 0 
0.649224 0.9 0 0.649224 0.85 0 0.649224 0.8 0 
0.649224 0.75 0 0.649224 0.7 0 0.649224 0.65 0 
0.649224 0.6 0 0.649224 0.55 0 0.649224 0.5 0 
0.649224 0.45 0 0.649224 0.4 0 0.649224 0.35 0 
0.649224 0.3 0 0.649224 0.25 0 0.649224 0.2 0 
0.649224 0.15 0 0.649224 0.1 0 0.649224 0.05 0 
0.649224 0 0 0.699008 1.5 0 0.699008 1.45 0 
0.699008 1.4 0 0.699008 1.35 0 0.699008 1.3 0 
0.699008 1.25 0 0.699008 1.2 0 0.699008 1.15 0 
0.699008 1.1 0 0.699008 1.05 0 0.699008 1 0 
0.699008 0.95 0 0.699008 0.9 0 0.699008 0.85 0 
0.699008 0.8 0 0.699008 0.75 0 0.699008 0.7 0 
0.699008 0.65 0 0.699008 0.6 0 0.699008 0.55 0 
0.699008 0.5 0 0.699008 0.45 0 0.699008 0.4 0 
0.699008 0.35 0 0.699008 0.3 0 0.699008 0.25 0 
0.699008 0.2 0 0.699008 0.15 0 0.699008 0.1 0 
0.699008 0.05 0 0.699008 0 0 0.748792 1.5 0 
0.748792 1.45 0 0.748792 1.4 0 0.748792 1.35 0 
0.748792 1.3 0 0.748792 1.25 0 0.748792 1.2 0 
0.748792 1.15 0 0.748792 1.1 0 0.748792 1.05 0 
0.748792 1 0 0.748792 0.95 0 0.748792 0.9 0 
0.748792 0.85 0 0.748792 0.8 0 0.748792 0.75 0 
0.748792 0.7 0 0.748792 0.65 0 0.748792 0.6 0 
0.748792 0.55 0 0.748792 0.5 0 0.748792 0.45 0 
0.748792 0.4 0 0.748792 0.35 0 0.748792 0.3 0 
0.748792 0.25 0 0.748792 0.2 0 0.748792 0.15 0 
0.748792 0.1 0 0.748792 0.05 0 0.748792 0 0 
0.798576 1.5 0 0.798576 1.45 0 0.798576 1.4 0 
0.798576 1.35 0 0.798576 1.3 0 0.798576 1.25 0 
0.798576 1.2 0 0.798576 1.15 0 0.798576 1.1 0 
0.798576 1.05 0 0.798576 1 0 0.798576 0.95 0 
0.798576 0.9 0 0.798576 0.85 0 0.798576 0.8 0 
0.798576 0.75 0 0.798576 0.7 0 0.798576 0.65 0 
0.798576 0.6 0 0.798576 0.55 0 0.798576 0.5 0 
0.798576 0.45 0 0.798576 0.4 0 0.798576 0.35 0 
0.798576 0.3 0 0.798576 0.25 0 0.798576 0.2 0 
0.798576 0.15 0 0.798576 0.1 0 0.798576 0.05 0 
0.798576 0 0 0.84836 1.5 0 0.84836 1.45 0 
0.84836 1.4 0 0.84836 1.35 0 0.84836 1.3 0 
0.84836 1.25 0 0.84836 1.2 0 0.84836 1.15 0 
0.84836 1.1 0 0.84836 1.05 0 0.84836 1 0 
0.84836 0.95 0 0.84836 0.9 0 0.84836 0.85 0 
0.84836 0.8 0 0.84836 0.75 0 0.84836 0.7 0 
0.84836 0.65 0 0.84836 0.6 0 0.84836 0.55 0 
0.84836 0.5 0 0.84836 0.45 0 0.84836 0.4 0 
0.84836 0.35 0 0.84836 0.3 0 0.84836 0.25 0 
0.84836 0.2 0 0.84836 0.15 0 0.84836 0.1 0 
0.84836 0.05 0 0.84836 0 0 0.898144 1.5 0 
0.898144 1.45 0 0.898144 1.4 0 0.898144 1.35 0 
0.898144 1.3 0 0.898144 1.25 0 0.898144 1.2 0 
0.898144 1.15 0 0.898144 1.1 0 0.898144 1.05 0 
0.898144 1 0 0.898144 0.95 0 0.898144 0.9 0 
0.898144 0.85 0 0.898144 0.8 0 0.898144 0.75 0 
0.898144 0.7 0 0.898144 0.65 0 0.898144 0.6 0 
0.898144 0.55 0 0.898144 0.5 0 0.898144 0.45 0 
0.898144 0.4 0 0.898144 0.35 0 0.898144 0.3 0 
0.898144 0.25 0 0.898144 0.2 0 0.898144 0.15 0 
0.898144 0.1 0 0.898144 0.05 0 0.898144 0 0 
0.947928 1.5 0 0.947928 1.45 0 0.947928 1.4 0 
0.947928 1.35 0 0.947928 1.3 0 0.947928 1.25 0 
0.947928 1.2 0 0.947928 1.15 0 0.947928 1.1 0 
0.947928 1.05 0 0.947928 1 0 0.947928 0.95 0 
0.947928 0.9 0 0.947928 0.85 0 0.947928 0.8 0 
0.947928 0.75 0 0.947928 0.7 0 0.947928 0.65 0 
0.947928 0.6 0 0.947928 0.55 0 0.947928 0.5 0 
0.947928 0.45 0 0.947928 0.4 0 0.947928 0.35 0 
0.947928 0.3 0 0.947928 0.25 0 0.947928 0.2 0 
0.947928 0.15 0 0.947928 0.1 0 0.947928 0.05 0 
0.947928 0 0 0.997712 1.5 0 0.997712 1.45 0 
0.997712 1.4 0 0.997712 1.35 0 0.997712 1.3 0 
0.997712 1.25 0 0.997712 1.2 0 0.997712 1.15 0 
0.997712 1.1 0 0.997712 1.05 0 0.997712 1 0 
0.997712 0.95 0 0.997712 0.9 0 0.997712 0.85 0 
0.997712 0.8 0 0.997712 0.75 0 0.997712 0.7 0 
0.997712 0.65 0 0.997712 0.6 0 0.997712 0.55 0 
0.997712 0.5 0 0.997712 0.45 0 0.997712 0.4 0 
0.997712 0.35 0 0.997712 0.3 0 0.997712 0.25 0 
0.997712 0.2 0 0.997712 0.15 0 0.997712 0.1 0 
0.997712 0.05 0 0.997712 0 0 1.047496 1.5 0 
1.047496 1.45 0 1.047496 1.4 0 1.047496 1.35 0 
1.047496 1.3 0 1.047496 1.25 0 1.047496 1.2 0 
1.047496 1.15 0 1.047496 1.1 0 1.047496 1.05 0 
1.047496 1 0 1.047496 0.95 0 1.047496 0.9 0 
1.047496 0.85 0 1.047496 0.8 0 1.047496 0.75 0 
1.047496 0.7 0 1.047496 0.65 0 1.047496 0.6 0 
1.047496 0.55 0 1.047496 0.5 0 1.047496 0.45 0 
1.047496 0.4 0 1.047496 0.35 0 1.047496 0.3 0 
1.047496 0.25 0 1.047496 0.2 0 1.047496 0.15 0 
[...]
CELL_DATA 9270
FIELD FieldData 7
B_Stress_n_p_m2 1 9270 float
0.500593 0.483966 0.489467 0.492205 0.491612 0.491531 0.491395 0.491333 0.491306 
0.491304 0.491319 0.491345 0.491378 0.491415 0.491454 0.491454 0.491415 0.491378 
0.491345 0.491319 0.491304 0.491306 0.491333 0.491395 0.491531 0.491612 0.492205 
0.489467 0.483966 0.500593 0.184031 0.176585 0.198336 0.197766 0.197389 0.196535 
0.195947 0.195534 0.195246 0.195047 0.194909 0.194817 0.194758 0.194725 0.194711 
0.194711 0.194725 0.194758 0.194817 0.194909 0.195047 0.195246 0.195534 0.195947 
0.196535 0.197389 0.197766 0.198336 0.176585 0.184031 0.182085 0.218685 0.228864 
0.228511 0.227034 0.225708 0.224762 0.224097 0.223616 0.22327 0.223016 0.222834 
0.222706 0.222623 0.222579 0.222579 0.222623 0.222706 0.222834 0.223016 0.22327 
0.223616 0.224097 0.224762 0.225708 0.227034 0.228511 0.228864 0.218685 0.182085 
0.168091 0.21351 0.22493 0.22533 0.223909 0.222538 0.221494 0.220734 0.220171 
0.219758 0.219453 0.219233 0.21908 0.218984 0.218937 0.218937 0.218984 0.21908 
0.219233 0.219453 0.219758 0.220171 0.220734 0.221494 0.222538 0.223909 0.22533 
0.22493 0.21351 0.168091 0.163638 0.213054 0.225312 0.226417 0.225202 0.223917 
0.222874 0.222085 0.221481 0.221027 0.220685 0.220435 0.220258 0.220146 0.220091 
0.220091 0.220146 0.220258 0.220435 0.220685 0.221027 0.221481 0.222085 0.222874 
0.223917 0.225202 0.226417 0.225312 0.213054 0.163638 0.160733 0.21152 0.224613 
0.226284 0.225364 0.224239 0.223271 0.22251 0.22191 0.221447 0.221092 0.220828 
0.22064 0.22052 0.220461 0.220461 0.22052 0.22064 0.220828 0.221092 0.221447 
0.22191 0.22251 0.223271 0.224239 0.225364 0.226284 0.224613 0.21152 0.160733 
0.159123 0.210369 0.223991 0.226063 0.225417 0.224467 0.223605 0.222902 0.222332 
0.221882 0.221531 0.221266 0.221076 0.220953 0.220893 0.220893 0.220953 0.221076 
0.221266 0.221531 0.221882 0.222332 0.222902 0.223605 0.224467 0.225417 0.226063 
0.223991 0.210369 0.159123 0.158155 0.209476 0.223403 0.225745 0.225328 0.22454 
0.22379 0.223159 0.222635 0.222212 0.221877 0.22162 0.221434 0.221313 0.221254 
0.221254 0.221313 0.221434 0.22162 0.221877 0.222212 0.222635 0.223159 0.22379 
0.22454 0.225328 0.225745 0.223403 0.209476 0.158155 0.157603 0.208823 0.222899 
0.225418 0.225177 0.224529 0.223885 0.223329 0.222858 0.22247 0.222157 0.221916 
0.221739 0.221623 0.221566 0.221566 0.221623 0.221739 0.221916 0.222157 0.22247 
0.222858 0.223329 0.223885 0.224529 0.225177 0.225418 0.222899 0.208823 0.157603 
0.157323 0.208355 0.222479 0.225107 0.225 0.224466 0.223916 0.223432 0.223013 
0.222663 0.222378 0.222155 0.22199 0.221882 0.221828 0.221828 0.221882 0.22199 
0.222155 0.222378 0.222663 0.223013 0.223432 0.223916 0.224466 0.225 0.225107 
0.222479 0.208355 0.157323 0.157231 0.208029 0.222135 0.224825 0.224818 0.224376 
0.223906 0.223485 0.223117 0.222805 0.222548 0.222345 0.222194 0.222094 0.222045 
0.222045 0.222094 0.222194 0.222345 0.222548 0.222805 0.223117 0.223485 0.223906 
0.224376 0.224818 0.224825 0.222135 0.208029 0.157231 0.157277 0.207808 0.221856 
0.224575 0.22464 0.224271 0.223868 0.223503 0.22318 0.222904 0.222675 0.222492 
0.222356 0.222265 0.22222 0.22222 0.222265 0.222356 0.222492 0.222675 0.222904 
0.22318 0.223503 0.223868 0.224271 0.22464 0.224575 0.221856 0.207808 0.157277 
0.157414 0.207682 0.221629 0.224355 0.224472 0.224161 0.223813 0.223496 0.223213 
0.22297 0.222766 0.222603 0.22248 0.222399 0.222358 0.222358 0.222399 0.22248 
0.222603 0.222766 0.22297 0.223213 0.223496 0.223813 0.224161 0.224472 0.224355 
0.221629 0.207682 0.157414 0.157619 0.207625 0.221448 0.224163 0.224316 0.22405 
0.223748 0.22347 0.223222 0.223008 0.222827 0.222682 0.222573 0.2225 0.222463 
0.222463 0.2225 0.222573 0.222682 0.222827 0.223008 0.223222 0.22347 0.223748 
0.22405 0.224316 0.224163 0.221448 0.207625 0.157619 0.157878 0.207622 0.221305 
0.223994 0.224172 0.223942 0.223676 0.223431 0.223213 0.223024 0.222864 0.222735 
0.222638 0.222573 0.22254 0.22254 0.222573 0.222638 0.222735 0.222864 0.223024 
0.223213 0.223431 0.223676 0.223942 0.224172 0.223994 0.221305 0.207622 0.157878 
0.158178 0.207662 0.221192 0.223845 0.224039 0.223837 0.2236 0.223384 0.22319 
0.223023 0.222881 0.222767 0.22268 0.222622 0.222593 0.222593 0.222622 0.22268 
0.222767 0.222881 0.223023 0.22319 0.223384 0.2236 0.223837 0.224039 0.223845 
0.221192 0.207662 0.158178 0.158511 0.207734 0.221103 0.223714 0.223917 0.223736 
0.223523 0.223329 0.223157 0.223008 0.222882 0.22278 0.222703 0.222651 0.222625 
0.222625 0.222651 0.222703 0.22278 0.222882 0.223008 0.223157 0.223329 0.223523 
0.223736 0.223917 0.223714 0.221103 0.207734 0.158511 0.158872 0.207833 0.221034 
0.223596 0.223803 0.223639 0.223445 0.22327 0.223115 0.222982 0.222869 0.222778 
0.222709 0.222663 0.22264 0.22264 0.222663 0.222709 0.222778 0.222869 0.222982 
0.223115 0.22327 0.223445 0.223639 0.223803 0.223596 0.221034 0.207833 0.158872 
0.159255 0.207951 0.22098 0.22349 0.223696 0.223545 0.223367 0.223207 0.223067 
0.222946 0.222845 0.222763 0.222701 0.22266 0.222639 0.222639 0.22266 0.222701 
0.222763 0.222845 0.222946 0.223067 0.223207 0.223367 0.223545 0.223696 0.22349 
0.22098 0.207951 0.159255 0.159657 0.208087 0.220938 0.223393 0.223596 0.223455 
0.223289 0.223142 0.223014 0.222904 0.222812 0.222738 0.222682 0.222645 0.222626 
0.222626 0.222645 0.222682 0.222738 0.222812 0.222904 0.223014 0.223142 0.223289 
0.223455 0.223596 0.223393 0.220938 0.208087 0.159657 0.160076 0.208235 0.220906 
0.223304 0.223501 0.223367 0.223212 0.223075 0.222957 0.222856 0.222772 0.222705 
0.222654 0.22262 0.222603 0.222603 0.22262 0.222654 0.222705 0.222772 0.222856 
0.222957 0.223075 0.223212 0.223367 0.223501 0.223304 0.220906 0.208235 0.160076 
0.160508 0.208394 0.220882 0.22322 0.223411 0.223282 0.223135 0.223007 0.222897 
0.222803 0.222726 0.222664 0.222617 0.222586 0.222571 0.222571 0.222586 0.222617 
0.222664 0.222726 0.222803 0.222897 0.223007 0.223135 0.223282 0.223411 0.22322 
0.220882 0.208394 0.160508 0.160952 0.208561 0.220864 0.223142 0.223324 0.223199 
0.223059 0.222937 0.222834 0.222747 0.222675 0.222617 0.222574 0.222546 0.222531 
0.222531 0.222546 0.222574 0.222617 0.222675 0.222747 0.222834 0.222937 0.223059 
0.223199 0.223324 0.223142 0.220864 0.208561 0.160952 0.161406 0.208735 0.22085 
0.223068 0.22324 0.223118 0.222983 0.222867 0.222769 0.222687 0.222619 0.222566 
0.222526 0.222499 0.222486 0.222486 0.222499 0.222526 0.222566 0.222619 0.222687 
0.222769 0.222867 0.222983 0.223118 0.22324 0.223068 0.22085 0.208735 0.161406 
0.161871 0.208914 0.22084 0.222996 0.223158 0.223038 0.222908 0.222796 0.222703 
0.222625 0.222561 0.22251 0.222473 0.222448 0.222435 0.222435 0.222448 0.222473 
0.22251 0.222561 0.222625 0.222703 0.222796 0.222908 0.223038 0.223158 0.222996 
0.22084 0.208914 0.161871 0.162344 0.209097 0.220833 0.222927 0.223078 0.22296 
0.222832 0.222725 0.222635 0.22256 0.2225 0.222452 0.222416 0.222393 0.222381 
0.222381 0.222393 0.222416 0.222452 0.2225 0.22256 0.222635 0.222725 0.222832 
0.22296 0.223078 0.222927 0.220833 0.209097 0.162344 0.162826 0.209283 0.220827 
0.22286 0.223 0.222882 0.222757 0.222653 0.222566 0.222494 0.222436 0.22239 
0.222356 0.222334 0.222323 0.222323 0.222334 0.222356 0.22239 0.222436 0.222494 
0.222566 0.222653 0.222757 0.222882 0.223 0.22286 0.220827 0.209283 0.162826 
0.163314 0.209473 0.220823 0.222794 0.222923 0.222805 0.222683 0.22258 0.222496 
0.222427 0.22237 0.222326 0.222294 0.222272 0.222262 0.222262 0.222272 0.222294 
0.222326 0.22237 0.222427 0.222496 0.22258 0.222683 0.222805 0.222923 0.222794 
0.220823 0.209473 0.163314 0.16381 0.209664 0.22082 0.22273 0.222846 0.222728 
0.222608 0.222508 0.222425 0.222358 0.222303 0.222261 0.222229 0.222209 0.222198 
0.222198 0.222209 0.222229 0.222261 0.222303 0.222358 0.222425 0.222508 0.222608 
0.222728 0.222846 0.22273 0.22082 0.209664 0.16381 0.164313 0.209856 0.220817 
0.222666 0.222771 0.222652 0.222533 0.222435 0.222354 0.222288 0.222235 0.222193 
0.222163 0.222143 0.222133 0.222133 0.222143 0.222163 0.222193 0.222235 0.222288 
0.222354 0.222435 0.222533 0.222652 0.222771 0.222666 0.220817 0.209856 0.164313 
0.164822 0.21005 0.220814 0.222602 0.222696 0.222576 0.222458 0.222361 0.222282 
0.222217 0.222165 0.222125 0.222095 0.222076 0.222066 0.222066 0.222076 0.222095 
0.222125 0.222165 0.222217 0.222282 0.222361 0.222458 0.222576 0.222696 0.222602 
0.220814 0.21005 0.164822 0.165338 0.210245 0.220812 0.222539 0.222621 0.222501 
0.222384 0.222288 0.222209 0.222146 0.222095 0.222055 0.222026 0.222007 0.221997 
0.221997 0.222007 0.222026 0.222055 0.222095 0.222146 0.222209 0.222288 0.222384 
0.222501 0.222621 0.222539 0.220812 0.210245 0.165338 0.165859 0.210439 0.220808 
0.222476 0.222546 0.222425 0.222309 0.222214 0.222136 0.222074 0.222023 0.221984 
0.221956 0.221937 0.221928 0.221928 0.221937 0.221956 0.221984 0.222023 0.222074 
0.222136 0.222214 0.222309 0.222425 0.222546 0.222476 0.220808 0.210439 0.165859 
0.166387 0.210634 0.220805 0.222413 0.222472 0.22235 0.222234 0.22214 0.222063 
0.222001 0.221951 0.221913 0.221885 0.221866 0.221857 0.221857 0.221866 0.221885 
0.221913 0.221951 0.222001 0.222063 0.22214 0.222234 0.22235 0.222472 0.222413 
0.220805 0.210634 0.166387 0.166921 0.210829 0.2208 0.22235 0.222398 0.222275 
0.222159 0.222066 0.221989 0.221928 0.221879 0.22184 0.221813 0.221794 0.221785 
0.221785 0.221794 0.221813 0.22184 0.221879 0.221928 0.221989 0.222066 0.222159 
0.222275 0.222398 0.22235 0.2208 0.210829 0.166921 0.167461 0.211024 0.220795 
0.222286 0.222324 0.222199 0.222084 0.221991 0.221915 0.221854 0.221805 0.221768 
0.22174 0.221722 0.221713 0.221713 0.221722 0.22174 0.221768 0.221805 0.221854 
0.221915 0.221991 0.222084 0.222199 0.222324 0.222286 0.220795 0.211024 0.167461 
0.168006 0.211218 0.220789 0.222223 0.22225 0.222124 0.222009 0.221916 0.221841 
0.22178 0.221732 0.221694 0.221667 0.221649 0.22164 0.22164 0.221649 0.221667 
0.221694 0.221732 0.22178 0.221841 0.221916 0.222009 0.222124 0.22225 0.222223 
0.220789 0.211218 0.168006 0.168558 0.211412 0.220782 0.222159 0.222175 0.222049 
0.221934 0.221841 0.221766 0.221706 0.221658 0.22162 0.221593 0.221575 0.221566 
0.221566 0.221575 0.221593 0.22162 0.221658 0.221706 0.221766 0.221841 0.221934 
0.222049 0.222175 0.222159 0.220782 0.211412 0.168558 0.169115 0.211606 0.220774 
0.222095 0.222101 0.221973 0.221859 0.221766 0.221691 0.221631 0.221583 0.221546 
0.221519 0.221501 0.221492 0.221492 0.221501 0.221519 0.221546 0.221583 0.221631 
0.221691 0.221766 0.221859 0.221973 0.222101 0.222095 0.220774 0.211606 0.169115 
0.169678 0.211798 0.220765 0.22203 0.222026 0.221897 0.221783 0.221691 0.221616 
0.221556 0.221508 0.221471 0.221444 0.221427 0.221418 0.221418 0.221427 0.221444 
0.221471 0.221508 0.221556 0.221616 0.221691 0.221783 0.221897 0.222026 0.22203 
0.220765 0.211798 0.169678 0.170248 0.21199 0.220754 0.221965 0.221952 0.221822 
0.221707 0.221615 0.221541 0.22148 0.221433 0.221396 0.221369 0.221352 0.221343 
0.221343 0.221352 0.221369 0.221396 0.221433 0.22148 0.221541 0.221615 0.221707 
0.221822 0.221952 0.221965 0.220754 0.21199 0.170248 0.170823 0.212181 0.220743 
0.221899 0.221877 0.221746 0.221631 0.221539 0.221465 0.221405 0.221358 0.221321 
0.221294 0.221276 0.221268 0.221268 0.221276 0.221294 0.221321 0.221358 0.221405 
0.221465 0.221539 0.221631 0.221746 0.221877 0.221899 0.220743 0.212181 0.170823 
0.171405 0.21237 0.22073 0.221833 0.221802 0.221669 0.221555 0.221463 0.221389 
0.221329 0.221282 0.221245 0.221218 0.221201 0.221192 0.221192 0.221201 0.221218 
0.221245 0.221282 0.221329 0.221389 0.221463 0.221555 0.221669 0.221802 0.221833 
0.22073 0.21237 0.171405 0.171992 0.212559 0.220715 0.221766 0.221726 0.221593 
0.221479 0.221387 0.221313 0.221253 0.221206 0.221169 0.221143 0.221125 0.221116 
0.221116 0.221125 0.221143 0.221169 0.221206 0.221253 0.221313 0.221387 0.221479 
0.221593 0.221726 0.221766 0.220715 0.212559 0.171992 0.172586 0.212746 0.2207 
0.221699 0.221651 0.221517 0.221403 0.22131 0.221237 0.221177 0.221129 0.221093 
0.221066 0.221049 0.22104 0.22104 0.221049 0.221066 0.221093 0.221129 0.221177 
0.221237 0.22131 0.221403 0.221517 0.221651 0.221699 0.2207 0.212746 0.172586 
0.173186 0.212932 0.220683 0.221632 0.221575 0.22144 0.221326 0.221234 0.22116 
0.2211 0.221053 0.221016 0.22099 0.220972 0.220964 0.220964 0.220972 0.22099 
0.221016 0.221053 0.2211 0.22116 0.221234 0.221326 0.22144 0.221575 0.221632 
0.220683 0.212932 0.173186 0.173792 0.213117 0.220665 0.221564 0.221499 0.221363 
0.221249 0.221157 0.221083 0.221023 0.220976 0.22094 0.220913 0.220896 0.220887 
0.220887 0.220896 0.220913 0.22094 0.220976 0.221023 0.221083 0.221157 0.221249 
0.221363 0.221499 0.221564 0.220665 0.213117 0.173792 0.174405 0.2133 0.220645 
0.221495 0.221423 0.221286 0.221172 0.22108 0.221006 0.220946 0.220899 0.220863 
0.220836 0.220819 0.22081 0.22081 0.220819 0.220836 0.220863 0.220899 0.220946 
0.221006 0.22108 0.221172 0.221286 0.221423 0.221495 0.220645 0.2133 0.174405 
0.175024 0.213482 0.220624 0.221426 0.221347 0.221209 0.221095 0.221003 0.220929 
0.220869 0.220822 0.220785 0.220759 0.220741 0.220733 0.220733 0.220741 0.220759 
0.220785 0.220822 0.220869 0.220929 0.221003 0.221095 0.221209 0.221347 0.221426 
0.220624 0.213482 0.175024 0.17565 0.213662 0.220601 0.221356 0.22127 0.221131 
0.221017 0.220925 0.220852 0.220792 0.220745 0.220708 0.220682 0.220664 0.220655 
0.220655 0.220664 0.220682 0.220708 0.220745 0.220792 0.220852 0.220925 0.221017 
0.221131 0.22127 0.221356 0.220601 0.213662 0.17565 0.176283 0.21384 0.220577 
0.221286 0.221193 0.221054 0.22094 0.220848 0.220774 0.220714 0.220667 0.22063 
0.220604 0.220586 0.220578 0.220578 0.220586 0.220604 0.22063 0.220667 0.220714 
0.220774 0.220848 0.22094 0.221054 0.221193 0.221286 0.220577 0.21384 0.176283 
0.176922 0.214017 0.220551 0.221216 0.221116 0.220976 0.220862 0.22077 0.220696 
0.220636 0.220589 0.220553 0.220526 0.220509 0.2205 0.2205 0.220509 0.220526 
0.220553 0.220589 0.220636 0.220696 0.22077 0.220862 0.220976 0.221116 0.221216 
0.220551 0.214017 0.176922 0.177569 0.214191 0.220524 0.221144 0.221039 0.220898 
0.220784 0.220692 0.220618 0.220558 0.220511 0.220474 0.220448 0.220431 0.220422 
0.220422 0.220431 0.220448 0.220474 0.220511 0.220558 0.220618 0.220692 0.220784 
0.220898 0.221039 0.221144 0.220524 0.214191 0.177569 0.178222 0.214364 0.220496 
0.221073 0.220961 0.22082 0.220706 0.220614 0.22054 0.22048 0.220433 0.220396 
0.22037 0.220352 0.220344 0.220344 0.220352 0.22037 0.220396 0.220433 0.22048 
0.22054 0.220614 0.220706 0.22082 0.220961 0.221073 0.220496 0.214364 0.178222 
0.178882 0.214535 0.220466 0.221001 0.220883 0.220741 0.220627 0.220535 0.220462 
0.220401 0.220355 0.220318 0.220291 0.220274 0.220265 0.220265 0.220274 0.220291 
0.220318 0.220355 0.220401 0.220462 0.220535 0.220627 0.220741 0.220883 0.221001 
0.220466 0.214535 0.178882 0.179549 0.214704 0.220435 0.220928 0.220805 0.220663 
0.220549 0.220456 0.220383 0.220323 0.220276 0.220239 0.220213 0.220195 0.220187 
0.220187 0.220195 0.220213 0.220239 0.220276 0.220323 0.220383 0.220456 0.220549 
0.220663 0.220805 0.220928 0.220435 0.214704 0.179549 0.180224 0.21487 0.220402 
0.220855 0.220727 0.220584 0.22047 0.220378 0.220304 0.220244 0.220197 0.22016 
0.220134 0.220116 0.220108 0.220108 0.220116 0.220134 0.22016 0.220197 0.220244 
0.220304 0.220378 0.22047 0.220584 0.220727 0.220855 0.220402 0.21487 0.180224 
0.180906 0.215034 0.220367 0.220781 0.220648 0.220505 0.220391 0.220299 0.220225 
0.220165 0.220118 0.220081 0.220055 0.220037 0.220029 0.220029 0.220037 0.220055 
0.220081 0.220118 0.220165 0.220225 0.220299 0.220391 0.220505 0.220648 0.220781 
0.220367 0.215034 0.180906 0.181595 0.215196 0.220331 0.220707 0.22057 0.220426 
0.220312 0.220219 0.220146 0.220086 0.220039 0.220002 0.219976 0.219958 0.21995 
0.21995 0.219958 0.219976 0.220002 0.220039 0.220086 0.220146 0.220219 0.220312 
0.220426 0.22057 0.220707 0.220331 0.215196 0.181595 0.182292 0.215355 0.220293 
0.220632 0.220491 0.220347 0.220233 0.22014 0.220067 0.220006 0.219959 0.219923 
0.219896 0.219879 0.21987 0.21987 0.219879 0.219896 0.219923 0.219959 0.220006 
0.220067 0.22014 0.220233 0.220347 0.220491 0.220632 0.220293 0.215355 0.182292 
0.182997 0.215511 0.220254 0.220557 0.220412 0.220267 0.220153 0.220061 0.219987 
0.219927 0.21988 0.219843 0.219817 0.219799 0.219791 0.219791 0.219799 0.219817 
0.219843 0.21988 0.219927 0.219987 0.220061 0.220153 0.220267 0.220412 0.220557 
0.220254 0.215511 0.182997 0.18371 0.215665 0.220214 0.220482 0.220332 0.220187 
0.220073 0.219981 0.219907 0.219847 0.2198 0.219763 0.219737 0.219719 0.219711 
0.219711 0.219719 0.219737 0.219763 0.2198 0.219847 0.219907 0.219981 0.220073 
0.220187 0.220332 0.220482 0.220214 0.215665 0.18371 0.18443 0.215816 0.220171 
0.220406 0.220253 0.220107 0.219994 0.219901 0.219827 0.219767 0.21972 0.219683 
0.219657 0.219639 0.219631 0.219631 0.219639 0.219657 0.219683 0.21972 0.219767 
0.219827 0.219901 0.219994 0.220107 0.220253 0.220406 0.220171 0.215816 0.18443 
0.185158 0.215964 0.220128 0.220329 0.220173 0.220027 0.219914 0.219821 0.219747 
0.219687 0.21964 0.219603 0.219577 0.219559 0.219551 0.219551 0.219559 0.219577 
0.219603 0.21964 0.219687 0.219747 0.219821 0.219914 0.220027 0.220173 0.220329 
0.220128 0.215964 0.185158 0.185895 0.216109 0.220082 0.220252 0.220093 0.219947 
0.219833 0.21974 0.219667 0.219607 0.21956 0.219523 0.219497 0.219479 0.21947 
0.21947 0.219479 0.219497 0.219523 0.21956 0.219607 0.219667 0.21974 0.219833 
0.219947 0.220093 0.220252 0.220082 0.216109 0.185895 0.18664 0.216251 0.220035 
0.220175 0.220012 0.219866 0.219753 0.21966 0.219587 0.219526 0.219479 0.219443 
0.219416 0.219399 0.21939 0.21939 0.219399 0.219416 0.219443 0.219479 0.219526 
0.219587 0.21966 0.219753 0.219866 0.220012 0.220175 0.220035 0.216251 0.18664 
0.187393 0.216389 0.219987 0.220097 0.219932 0.219786 0.219672 0.219579 0.219506 
0.219446 0.219399 0.219362 0.219336 0.219318 0.219309 0.219309 0.219318 0.219336 
0.219362 0.219399 0.219446 0.219506 0.219579 0.219672 0.219786 0.219932 0.220097 
0.219987 0.216389 0.187393 0.188154 0.216524 0.219937 0.220019 0.219851 0.219705 
0.219591 0.219499 0.219425 0.219365 0.219318 0.219281 0.219255 0.219237 0.219229 
0.219229 0.219237 0.219255 0.219281 0.219318 0.219365 0.219425 0.219499 0.219591 
0.219705 0.219851 0.220019 0.219937 0.216524 0.188154 0.188924 0.216656 0.219885 
0.219941 0.21977 0.219623 0.21951 0.219418 0.219344 0.219284 0.219237 0.2192 
0.219174 0.219156 0.219148 0.219148 0.219156 0.219174 0.2192 0.219237 0.219284 
0.219344 0.219418 0.21951 0.219623 0.21977 0.219941 0.219885 0.216656 0.188924 
0.189703 0.216783 0.219832 0.219861 0.219689 0.219542 0.219429 0.219336 0.219263 
0.219203 0.219156 0.219119 0.219093 0.219075 0.219067 0.219067 0.219075 0.219093 
0.219119 0.219156 0.219203 0.219263 0.219336 0.219429 0.219542 0.219689 0.219861 
0.219832 0.216783 0.189703 0.190491 0.216907 0.219778 0.219782 0.219608 0.219461 
0.219348 0.219255 0.219182 0.219122 0.219075 0.219038 0.219012 0.218994 0.218986 
0.218986 0.218994 0.219012 0.219038 0.219075 0.219122 0.219182 0.219255 0.219348 
0.219461 0.219608 0.219782 0.219778 0.216907 0.190491 0.191288 0.217027 0.219721 
0.219702 0.219526 0.219379 0.219266 0.219173 0.2191 0.21904 0.218993 0.218957 
0.21893 0.218913 0.218904 0.218904 0.218913 0.21893 0.218957 0.218993 0.21904 
0.2191 0.219173 0.219266 0.219379 0.219526 0.219702 0.219721 0.217027 0.191288 
0.192094 0.217143 0.219664 0.219622 0.219444 0.219297 0.219184 0.219092 0.219019 
0.218959 0.218912 0.218875 0.218849 0.218832 0.218823 0.218823 0.218832 0.218849 
0.218875 0.218912 0.218959 0.219019 0.219092 0.219184 0.219297 0.219444 0.219622 
0.219664 0.217143 0.192094 0.192909 0.217254 0.219604 0.219541 0.219362 0.219215 
0.219103 0.21901 0.218937 0.218877 0.21883 0.218794 0.218768 0.21875 0.218742 
0.218742 0.21875 0.218768 0.218794 0.21883 0.218877 0.218937 0.21901 0.219103 