# vtk DataFile Version 5.1
vtk output
ASCII
DATASET UNSTRUCTURED_GRID
POINTS 693 double
0.1016 1.5 0 0.1016 1.3125 0 0.1016 1.125 0 
0.1016 0.9375 0 0.1016 0.75 0 0.1016 0.5625 0 
0.1016 0.375 0 0.1016 0.1875 0 0.1016 0 0 
5.08 1.5 0 5.08 1.3125 0 5.08 1.125 0 
5.08 0.9375 0 5.08 0.75 0 5.08 0.5625 0 
5.08 0.375 0 5.08 0.1875 0 5.08 0 0 
0.300736 1.5 0 0.300736 1.3125 0 0.300736 1.125 0 
0.300736 0.9375 0 0.300736 0.75 0 0.300736 0.5625 0 
0.300736 0.375 0 0.300736 0.1875 0 0.300736 0 0 
0.499872 1.5 0 0.499872 1.3125 0 0.499872 1.125 0 
0.499872 0.9375 0 0.499872 0.75 0 0.499872 0.5625 0 
0.499872 0.375 0 0.499872 0.1875 0 0.499872 0 0 
0.699008 1.5 0 0.699008 1.3125 0 0.699008 1.125 0 
0.699008 0.9375 0 0.699008 0.75 0 0.699008 0.5625 0 
0.699008 0.375 0 0.699008 0.1875 0 0.699008 0 0 
0.898144 1.5 0 0.898144 1.3125 0 0.898144 1.125 0 
0.898144 0.9375 0 0.898144 0.75 0 0.898144 0.5625 0 
0.898144 0.375 0 0.898144 0.1875 0 0.898144 0 0 
1.09728 1.5 0 1.09728 1.3125 0 1.09728 1.125 0 
1.09728 0.9375 0 1.09728 0.75 0 1.09728 0.5625 0 
1.09728 0.375 0 1.09728 0.1875 0 1.09728 0 0 
1.296416 1.5 0 1.296416 1.3125 0 1.296416 1.125 0 
1.296416 0.9375 0 1.296416 0.75 0 1.296416 0.5625 0 
1.296416 0.375 0 1.296416 0.1875 0 1.296416 0 0 
1.495552 1.5 0 1.495552 1.3125 0 1.495552 1.125 0 
1.495552 0.9375 0 1.495552 0.75 0 1.495552 0.5625 0 
1.495552 0.375 0 1.495552 0.1875 0 1.495552 0 0 
1.694688 1.5 0 1.694688 1.3125 0 1.694688 1.125 0 
1.694688 0.9375 0 1.694688 0.75 0 1.694688 0.5625 0 
1.694688 0.375 0 1.694688 0.1875 0 1.694688 0 0 
1.893824 1.5 0 1.893824 1.3125 0 1.893824 1.125 0 
1.893824 0.9375 0 1.893824 0.75 0 1.893824 0.5625 0 
1.893824 0.375 0 1.893824 0.1875 0 1.893824 0 0 
2.09296 1.5 0 2.09296 1.3125 0 2.09296 1.125 0 
2.09296 0.9375 0 2.09296 0.75 0 2.09296 0.5625 0 
2.09296 0.375 0 2.09296 0.1875 0 2.09296 0 0 
2.292096 1.5 0 2.292096 1.3125 0 2.292096 1.125 0 
2.292096 0.9375 0 2.292096 0.75 0 2.292096 0.5625 0 
2.292096 0.375 0 2.292096 0.1875 0 2.292096 0 0 
2.491232 1.5 0 2.491232 1.3125 0 2.491232 1.125 0 
2.491232 0.9375 0 2.491232 0.75 0 2.491232 0.5625 0 
2.491232 0.375 0 2.491232 0.1875 0 2.491232 0 0 
2.690368 1.5 0 2.690368 1.3125 0 2.690368 1.125 0 
2.690368 0.9375 0 2.690368 0.75 0 2.690368 0.5625 0 
2.690368 0.375 0 2.690368 0.1875 0 2.690368 0 0 
2.889504 1.5 0 2.889504 1.3125 0 2.889504 1.125 0 
2.889504 0.9375 0 2.889504 0.75 0 2.889504 0.5625 0 
2.889504 0.375 0 2.889504 0.1875 0 2.889504 0 0 
3.08864 1.5 0 3.08864 1.3125 0 3.08864 1.125 0 
3.08864 0.9375 0 3.08864 0.75 0 3.08864 0.5625 0 
3.08864 0.375 0 3.08864 0.1875 0 3.08864 0 0 
3.287776 1.5 0 3.287776 1.3125 0 3.287776 1.125 0 
3.287776 0.9375 0 3.287776 0.75 0 3.287776 0.5625 0 
3.287776 0.375 0 3.287776 0.1875 0 3.287776 0 0 
3.486912 1.5 0 3.486912 1.3125 0 3.486912 1.125 0 
3.486912 0.9375 0 3.486912 0.75 0 3.486912 0.5625 0 
3.486912 0.375 0 3.486912 0.1875 0 3.486912 0 0 
3.686048 1.5 0 3.686048 1.3125 0 3.686048 1.125 0 
3.686048 0.9375 0 3.686048 0.75 0 3.686048 0.5625 0 
3.686048 0.375 0 3.686048 0.1875 0 3.686048 0 0 
3.885184 1.5 0 3.885184 1.3125 0 3.885184 1.125 0 
3.885184 0.9375 0 3.885184 0.75 0 3.885184 0.5625 0 
3.885184 0.375 0 3.885184 0.1875 0 3.885184 0 0 
4.08432 1.5 0 4.08432 1.3125 0 4.08432 1.125 0 
4.08432 0.9375 0 4.08432 0.75 0 4.08432 0.5625 0 
4.08432 0.375 0 4.08432 0.1875 0 4.08432 0 0 
4.283456 1.5 0 4.283456 1.3125 0 4.283456 1.125 0 
4.283456 0.9375 0 4.283456 0.75 0 4.283456 0.5625 0 
4.283456 0.375 0 4.283456 0.1875 0 4.283456 0 0 
4.482592 1.5 0 4.482592 1.3125 0 4.482592 1.125 0 
4.482592 0.9375 0 4.482592 0.75 0 4.482592 0.5625 0 
4.482592 0.375 0 4.482592 0.1875 0 4.482592 0 0 
4.681728 1.5 0 4.681728 1.3125 0 4.681728 1.125 0 
4.681728 0.9375 0 4.681728 0.75 0 4.681728 0.5625 0 
4.681728 0.375 0 4.681728 0.1875 0 4.681728 0 0 
4.880864 1.5 0 4.880864 1.3125 0 4.880864 1.125 0 
4.880864 0.9375 0 4.880864 0.75 0 4.880864 0.5625 0 
4.880864 0.375 0 4.880864 0.1875 0 4.880864 0 0 
-0.1 1.5 0 -0.1 1.3125 0 -0.1 1.125 0 
-0.1 0.9375 0 -0.1 0.75 0 -0.1 0.5625 0 
-0.1 0.375 0 -0.1 0.1875 0 -0.1 0 0 
-10.16 1.5 0 -10.16 1.3125 0 -10.16 1.125 0 
-10.16 0.9375 0 -10.16 0.75 0 -10.16 0.5625 0 
-10.16 0.375 0 -10.16 0.1875 0 -10.16 0 0 
-9.9588 1.5 0 -9.9588 1.3125 0 -9.9588 1.125 0 
-9.9588 0.9375 0 -9.9588 0.75 0 -9.9588 0.5625 0 
-9.9588 0.375 0 -9.9588 0.1875 0 -9.9588 0 0 
-9.7576 1.5 0 -9.7576 1.3125 0 -9.7576 1.125 0 
-9.7576 0.9375 0 -9.7576 0.75 0 -9.7576 0.5625 0 
-9.7576 0.375 0 -9.7576 0.1875 0 -9.7576 0 0 
-9.5564 1.5 0 -9.5564 1.3125 0 -9.5564 1.125 0 
-9.5564 0.9375 0 -9.5564 0.75 0 -9.5564 0.5625 0 
-9.5564 0.375 0 -9.5564 0.1875 0 -9.5564 0 0 
-9.3552 1.5 0 -9.3552 1.3125 0 -9.3552 1.125 0 
-9.3552 0.9375 0 -9.3552 0.75 0 -9.3552 0.5625 0 
-9.3552 0.375 0 -9.3552 0.1875 0 -9.3552 0 0 
-9.154 1.5 0 -9.154 1.3125 0 -9.154 1.125 0 
-9.154 0.9375 0 -9.154 0.75 0 -9.154 0.5625 0 
-9.154 0.375 0 -9.154 0.1875 0 -9.154 0 0 
-8.9528 1.5 0 -8.9528 1.3125 0 -8.9528 1.125 0 
-8.9528 0.9375 0 -8.9528 0.75 0 -8.9528 0.5625 0 
-8.9528 0.375 0 -8.9528 0.1875 0 -8.9528 0 0 
-8.7516 1.5 0 -8.7516 1.3125 0 -8.7516 1.125 0 
-8.7516 0.9375 0 -8.7516 0.75 0 -8.7516 0.5625 0 
-8.7516 0.375 0 -8.7516 0.1875 0 -8.7516 0 0 
-8.5504 1.5 0 -8.5504 1.3125 0 -8.5504 1.125 0 
-8.5504 0.9375 0 -8.5504 0.75 0 -8.5504 0.5625 0 
-8.5504 0.375 0 -8.5504 0.1875 0 -8.5504 0 0 
-8.3492 1.5 0 -8.3492 1.3125 0 -8.3492 1.125 0 
-8.3492 0.9375 0 -8.3492 0.75 0 -8.3492 0.5625 0 
-8.3492 0.375 0 -8.3492 0.1875 0 -8.3492 0 0 
-8.148 1.5 0 -8.148 1.3125 0 -8.148 1.125 0 
-8.148 0.9375 0 -8.148 0.75 0 -8.148 0.5625 0 
-8.148 0.375 0 -8.148 0.1875 0 -8.148 0 0 
-7.9468 1.5 0 -7.9468 1.3125 0 -7.9468 1.125 0 
-7.9468 0.9375 0 -7.9468 0.75 0 -7.9468 0.5625 0 
-7.9468 0.375 0 -7.9468 0.1875 0 -7.9468 0 0 
-7.7456 1.5 0 -7.7456 1.3125 0 -7.7456 1.125 0 
-7.7456 0.9375 0 -7.7456 0.75 0 -7.7456 0.5625 0 
-7.7456 0.375 0 -7.7456 0.1875 0 -7.7456 0 0 
-7.5444 1.5 0 -7.5444 1.3125 0 -7.5444 1.125 0 
-7.5444 0.9375 0 -7.5444 0.75 0 -7.5444 0.5625 0 
-7.5444 0.375 0 -7.5444 0.1875 0 -7.5444 0 0 
-7.3432 1.5 0 -7.3432 1.3125 0 -7.3432 1.125 0 
-7.3432 0.9375 0 -7.3432 0.75 0 -7.3432 0.5625 0 
-7.3432 0.375 0 -7.3432 0.1875 0 -7.3432 0 0 
-7.142 1.5 0 -7.142 1.3125 0 -7.142 1.125 0 
-7.142 0.9375 0 -7.142 0.75 0 -7.142 0.5625 0 
-7.142 0.375 0 -7.142 0.1875 0 -7.142 0 0 
-6.9408 1.5 0 -6.9408 1.3125 0 -6.9408 1.125 0 
-6.9408 0.9375 0 -6.9408 0.75 0 -6.9408 0.5625 0 
-6.9408 0.375 0 -6.9408 0.1875 0 -6.9408 0 0 
-6.7396 1.5 0 -6.7396 1.3125 0 -6.7396 1.125 0 
-6.7396 0.9375 0 -6.7396 0.75 0 -6.7396 0.5625 0 
-6.7396 0.375 0 -6.7396 0.1875 0 -6.7396 0 0 
-6.5384 1.5 0 -6.5384 1.3125 0 -6.5384 1.125 0 
-6.5384 0.9375 0 -6.5384 0.75 0 -6.5384 0.5625 0 
-6.5384 0.375 0 -6.5384 0.1875 0 -6.5384 0 0 
-6.3372 1.5 0 -6.3372 1.3125 0 -6.3372 1.125 0 
-6.3372 0.9375 0 -6.3372 0.75 0 -6.3372 0.5625 0 
-6.3372 0.375 0 -6.3372 0.1875 0 -6.3372 0 0 
-6.136 1.5 0 -6.136 1.3125 0 -6.136 1.125 0 
-6.136 0.9375 0 -6.136 0.75 0 -6.136 0.5625 0 
-6.136 0.375 0 -6.136 0.1875 0 -6.136 0 0 
-5.9348 1.5 0 -5.9348 1.3125 0 -5.9348 1.125 0 
-5.9348 0.9375 0 -5.9348 0.75 0 -5.9348 0.5625 0 
-5.9348 0.375 0 -5.9348 0.1875 0 -5.9348 0 0 
-5.7336 1.5 0 -5.7336 1.3125 0 -5.7336 1.125 0 
-5.7336 0.9375 0 -5.7336 0.75 0 -5.7336 0.5625 0 
-5.7336 0.375 0 -5.7336 0.1875 0 -5.7336 0 0 
-5.5324 1.5 0 -5.5324 1.3125 0 -5.5324 1.125 0 
-5.5324 0.9375 0 -5.5324 0.75 0 -5.5324 0.5625 0 
-5.5324 0.375 0 -5.5324 0.1875 0 -5.5324 0 0 
-5.3312 1.5 0 -5.3312 1.3125 0 -5.3312 1.125 0 
-5.3312 0.9375 0 -5.3312 0.75 0 -5.3312 0.5625 0 
-5.3312 0.375 0 -5.3312 0.1875 0 -5.3312 0 0 
-5.13 1.5 0 -5.13 1.3125 0 -5.13 1.125 0 
-5.13 0.9375 0 -5.13 0.75 0 -5.13 0.5625 0 
-5.13 0.375 0 -5.13 0.1875 0 -5.13 0 0 
-4.9288 1.5 0 -4.9288 1.3125 0 -4.9288 1.125 0 
-4.9288 0.9375 0 -4.9288 0.75 0 -4.9288 0.5625 0 
-4.9288 0.375 0 -4.9288 0.1875 0 -4.9288 0 0 
-4.7276 1.5 0 -4.7276 1.3125 0 -4.7276 1.125 0 
-4.7276 0.9375 0 -4.7276 0.75 0 -4.7276 0.5625 0 
-4.7276 0.375 0 -4.7276 0.1875 0 -4.7276 0 0 
-4.5264 1.5 0 -4.5264 1.3125 0 -4.5264 1.125 0 
-4.5264 0.9375 0 -4.5264 0.75 0 -4.5264 0.5625 0 
-4.5264 0.375 0 -4.5264 0.1875 0 -4.5264 0 0 
-4.3252 1.5 0 -4.3252 1.3125 0 -4.3252 1.125 0 
-4.3252 0.9375 0 -4.3252 0.75 0 -4.3252 0.5625 0 
-4.3252 0.375 0 -4.3252 0.1875 0 -4.3252 0 0 
-4.124 1.5 0 -4.124 1.3125 0 -4.124 1.125 0 
-4.124 0.9375 0 -4.124 0.75 0 -4.124 0.5625 0 
-4.124 0.375 0 -4.124 0.1875 0 -4.124 0 0 
-3.9228 1.5 0 -3.9228 1.3125 0 -3.9228 1.125 0 
-3.9228 0.9375 0 -3.9228 0.75 0 -3.9228 0.5625 0 
-3.9228 0.375 0 -3.9228 0.1875 0 -3.9228 0 0 
-3.7216 1.5 0 -3.7216 1.3125 0 -3.7216 1.125 0 
-3.7216 0.9375 0 -3.7216 0.75 0 -3.7216 0.5625 0 
-3.7216 0.375 0 -3.7216 0.1875 0 -3.7216 0 0 
-3.5204 1.5 0 -3.5204 1.3125 0 -3.5204 1.125 0 
-3.5204 0.9375 0 -3.5204 0.75 0 -3.5204 0.5625 0 
-3.5204 0.375 0 -3.5204 0.1875 0 -3.5204 0 0 
-3.3192 1.5 0 -3.3192 1.3125 0 -3.3192 1.125 0 
-3.3192 0.9375 0 -3.3192 0.75 0 -3.3192 0.5625 0 
-3.3192 0.375 0 -3.3192 0.1875 0 -3.3192 0 0 
-3.118 1.5 0 -3.118 1.3125 0 -3.118 1.125 0 
-3.118 0.9375 0 -3.118 0.75 0 -3.118 0.5625 0 
-3.118 0.375 0 -3.118 0.1875 0 -3.118 0 0 
-2.9168 1.5 0 -2.9168 1.3125 0 -2.9168 1.125 0 
-2.9168 0.9375 0 -2.9168 0.75 0 -2.9168 0.5625 0 
-2.9168 0.375 0 -2.9168 0.1875 0 -2.9168 0 0 
-2.7156 1.5 0 -2.7156 1.3125 0 -2.7156 1.125 0 
-2.7156 0.9375 0 -2.7156 0.75 0 -2.7156 0.5625 0 
-2.7156 0.375 0 -2.7156 0.1875 0 -2.7156 0 0 
-2.5144 1.5 0 -2.5144 1.3125 0 -2.5144 1.125 0 
-2.5144 0.9375 0 -2.5144 0.75 0 -2.5144 0.5625 0 
-2.5144 0.375 0 -2.5144 0.1875 0 -2.5144 0 0 
-2.3132 1.5 0 -2.3132 1.3125 0 -2.3132 1.125 0 
-2.3132 0.9375 0 -2.3132 0.75 0 -2.3132 0.5625 0 
-2.3132 0.375 0 -2.3132 0.1875 0 -2.3132 0 0 
-2.112 1.5 0 -2.112 1.3125 0 -2.112 1.125 0 
-2.112 0.9375 0 -2.112 0.75 0 -2.112 0.5625 0 
-2.112 0.375 0 -2.112 0.1875 0 -2.112 0 0 
-1.9108 1.5 0 -1.9108 1.3125 0 -1.9108 1.125 0 
[...]
CELL_DATA 608
FIELD FieldData 7
B_Stress_n_p_m2 1 608 float
0.850868 0.8523 0.658087 0.688863 0.688863 0.658087 0.8523 0.850868 0.618463 
0.304434 0.375164 0.416883 0.416883 0.375164 0.304434 0.618463 0.266525 0.217619 
0.218493 0.225007 0.225007 0.218493 0.217619 0.266525 0.271398 0.260652 0.25985 
0.261759 0.261759 0.25985 0.260652 0.271398 0.258683 0.25902 0.259274 0.260028 
0.260028 0.259274 0.25902 0.258683 0.255605 0.259758 0.261148 0.261814 0.261814 
0.261148 0.259758 0.255605 0.254432 0.259591 0.26165 0.262433 0.262433 0.26165 
0.259591 0.254432 0.254041 0.259461 0.261826 0.262688 0.262688 0.261826 0.259461 
0.254041 0.253951 0.259394 0.261847 0.262729 0.262729 0.261847 0.259394 0.253951 
0.253995 0.259375 0.261801 0.262657 0.262657 0.261801 0.259375 0.253995 0.254105 
0.259383 0.26172 0.262523 0.262523 0.26172 0.259383 0.254105 0.254253 0.259407 
0.26162 0.262355 0.262355 0.26162 0.259407 0.254253 0.254429 0.259439 0.261506 
0.262163 0.262163 0.261506 0.259439 0.254429 0.254628 0.259476 0.261381 0.261955 
0.261955 0.261381 0.259476 0.254628 0.254852 0.259515 0.261244 0.261732 0.261732 
0.261244 0.259515 0.254852 0.255101 0.259554 0.261096 0.261496 0.261496 0.261096 
0.259554 0.255101 0.255377 0.25959 0.260934 0.261248 0.261248 0.260934 0.25959 
0.255377 0.255684 0.259622 0.260758 0.260988 0.260988 0.260758 0.259622 0.255684 
0.256026 0.259644 0.260567 0.260717 0.260717 0.260567 0.259644 0.256026 0.256408 
0.259653 0.26036 0.260437 0.260437 0.26036 0.259653 0.256408 0.256832 0.259643 
0.260136 0.260151 0.260151 0.260136 0.259643 0.256832 0.257302 0.259605 0.259896 
0.259863 0.259863 0.259896 0.259605 0.257302 0.257822 0.259528 0.259638 0.259578 
0.259578 0.259638 0.259528 0.257822 0.258366 0.2594 0.259378 0.259319 0.259319 
0.259378 0.2594 0.258366 0.25881 0.25925 0.259193 0.259159 0.259159 0.259193 
0.25925 0.25881 1510.62 2633.81 2327.68 2339.59 2339.59 2327.68 2633.81 
1510.62 0.734051 0.750031 0.753104 0.751898 0.751898 0.753104 0.750031 0.734051 
0.734168 0.749601 0.75192 0.750195 0.750195 0.75192 0.749601 0.734168 0.734547 
0.749499 0.751171 0.749006 0.749006 0.751171 0.749499 0.734547 0.734985 0.749391 
0.75033 0.747668 0.747668 0.75033 0.749391 0.734985 0.735493 0.749313 0.749465 
0.746272 0.746272 0.749465 0.749313 0.735493 0.736067 0.74926 0.748571 0.744817 
0.744817 0.748571 0.74926 0.736067 0.736708 0.749231 0.74765 0.743303 0.743303 
0.74765 0.749231 0.736708 0.737418 0.749226 0.746699 0.74173 0.74173 0.746699 
0.749226 0.737418 0.738202 0.749246 0.745717 0.740095 0.740095 0.745717 0.749246 
0.738202 0.739065 0.749292 0.744701 0.738396 0.738396 0.744701 0.749292 0.739065 
0.740011 0.749363 0.743648 0.736629 0.736629 0.743648 0.749363 0.740011 0.741048 
0.74946 0.742557 0.734792 0.734792 0.742557 0.74946 0.741048 0.742181 0.749585 
0.741423 0.732881 0.732881 0.741423 0.749585 0.742181 0.743417 0.749736 0.740242 
0.730894 0.730894 0.740242 0.749736 0.743417 0.744765 0.749915 0.739012 0.728827 
0.728827 0.739012 0.749915 0.744765 0.746233 0.750121 0.737726 0.726677 0.726677 
0.737726 0.750121 0.746233 0.747831 0.750353 0.736381 0.724442 0.724442 0.736381 
0.750353 0.747831 0.74957 0.75061 0.734971 0.722118 0.722118 0.734971 0.75061 
0.74957 0.751461 0.75089 0.733489 0.719703 0.719703 0.733489 0.75089 0.751461 
0.753517 0.751192 0.731928 0.717195 0.717195 0.731928 0.751192 0.753517 0.755755 
0.751511 0.730281 0.714592 0.714592 0.730281 0.751511 0.755755 0.758189 0.751842 
0.728539 0.711894 0.711894 0.728539 0.751842 0.758189 0.760838 0.752181 0.726693 
0.7091 0.7091 0.726693 0.752181 0.760838 0.763725 0.752517 0.72473 0.70621 
0.70621 0.72473 0.752517 0.763725 0.766871 0.752842 0.72264 0.703227 0.703227 
0.72264 0.752842 0.766871 0.770306 0.753141 0.720409 0.700153 0.700153 0.720409 
0.753141 0.770306 0.774058 0.753398 0.718021 0.696994 0.696994 0.718021 0.753398 
0.774058 0.778165 0.753592 0.715462 0.693756 0.693756 0.715462 0.753592 0.778165 
0.782667 0.753695 0.712713 0.690449 0.690449 0.712713 0.753695 0.782667 0.787611 
0.753675 0.709754 0.687085 0.687085 0.709754 0.753675 0.787611 0.793052 0.753489 
0.706566 0.68368 0.68368 0.706566 0.753489 0.793052 0.799052 0.753085 0.703127 
0.680254 0.680254 0.703127 0.753085 0.799052 0.805687 0.752396 0.699415 0.676832 
0.676832 0.699415 0.752396 0.805687 0.813043 0.751342 0.695408 0.673446 0.673446 
0.695408 0.751342 0.813043 0.821219 0.749823 0.691085 0.670135 0.670135 0.691085 
0.749823 0.821219 0.830335 0.747713 0.686424 0.666946 0.666946 0.686424 0.747713 
0.830335 0.840525 0.744861 0.681409 0.663939 0.663939 0.681409 0.744861 0.840525 
0.851956 0.74109 0.676028 0.661191 0.661191 0.676028 0.74109 0.851956 0.864826 
0.736196 0.670286 0.658811 0.658811 0.670286 0.736196 0.864826 0.879309 0.729914 
0.664164 0.656912 0.656912 0.664164 0.729914 0.879309 0.895458 0.721843 0.657543 
0.655539 0.655539 0.657543 0.721843 0.895458 0.913475 0.711667 0.650336 0.654805 
0.654805 0.650336 0.711667 0.913475 0.934773 0.700141 0.643351 0.655809 0.655809 
0.643351 0.700141 0.934773 0.96099 0.689002 0.638378 0.660818 0.660818 0.638378 
0.689002 0.96099 0.983937 0.673539 0.631046 0.665708 0.665708 0.631046 0.673539 
0.983937 0.97899 0.633731 0.600378 0.648991 0.648991 0.600378 0.633731 0.97899 
0.969498 0.583961 0.555434 0.621738 0.621738 0.555434 0.583961 0.969498 1.16013 
0.720578 0.68692 0.781268 0.781268 0.68692 0.720578 1.16013 1.68841 1.35934 
1.30719 1.4003 1.4003 1.30719 1.35934 1.68841 0.891332 0.98146 0.702624 
0.7461 0.7461 0.702624 0.98146 0.891332 
Froude 1 608 float
0.201603 0.200477 0.176576 0.180765 0.180765 0.176576 0.200477 0.201603 0.170729 
0.119714 0.132892 0.140093 0.140093 0.132892 0.119714 0.170729 0.112164 0.101327 
0.101528 0.103032 0.103032 0.101528 0.101327 0.112164 0.113154 0.110881 0.110708 
0.111114 0.111114 0.110708 0.110881 0.113154 0.110465 0.110535 0.110587 0.110747 
0.110747 0.110587 0.110535 0.110465 0.109803 0.110691 0.110985 0.111126 0.111126 
0.110985 0.110691 0.109803 0.109549 0.110653 0.111091 0.111257 0.111257 0.111091 
0.110653 0.109549 0.109463 0.110624 0.111127 0.11131 0.11131 0.111127 0.110624 
0.109463 0.109442 0.110608 0.11113 0.111317 0.111317 0.11113 0.110608 0.109442 
0.10945 0.110603 0.111119 0.1113 0.1113 0.111119 0.110603 0.10945 0.109472 
0.110603 0.1111 0.111271 0.111271 0.1111 0.110603 0.109472 0.109502 0.110607 
0.111078 0.111233 0.111233 0.111078 0.110607 0.109502 0.109539 0.110612 0.111052 
0.111191 0.111191 0.111052 0.110612 0.109539 0.10958 0.110619 0.111024 0.111146 
0.111146 0.111024 0.110619 0.10958 0.109627 0.110626 0.110993 0.111097 0.111097 
0.110993 0.110626 0.109627 0.109679 0.110632 0.11096 0.111046 0.111046 0.11096 
0.110632 0.109679 0.109737 0.110639 0.110925 0.110991 0.110991 0.110925 0.110639 
0.109737 0.109802 0.110644 0.110886 0.110935 0.110935 0.110886 0.110644 0.109802 
0.109874 0.110647 0.110844 0.110876 0.110876 0.110844 0.110647 0.109874 0.109954 
0.110648 0.110798 0.110815 0.110815 0.110798 0.110648 0.109954 0.110044 0.110644 
0.110749 0.110753 0.110753 0.110749 0.110644 0.110044 0.110143 0.110635 0.110697 
0.11069 0.11069 0.110697 0.110635 0.110143 0.110253 0.110617 0.11064 0.110628 
0.110628 0.11064 0.110617 0.110253 0.110367 0.110588 0.110584 0.110571 0.110571 
0.110584 0.110588 0.110367 0.11046 0.110555 0.110543 0.110536 0.110536 0.110543 
0.110555 0.11046 0.0177521 0.0234199 0.022027 0.0220866 0.0220866 0.022027 0.0234199 
0.0177521 0.216415 0.218757 0.219205 0.219029 0.219029 0.219205 0.218757 0.216415 
0.216413 0.218676 0.219013 0.218762 0.218762 0.219013 0.218676 0.216413 0.21645 
0.218641 0.218885 0.218569 0.218569 0.218885 0.218641 0.21645 0.216495 0.218607 
0.218743 0.218355 0.218355 0.218743 0.218607 0.216495 0.216551 0.218576 0.218598 
0.218132 0.218132 0.218598 0.218576 0.216551 0.216617 0.218549 0.218449 0.2179 
0.2179 0.218449 0.218549 0.216617 0.216692 0.218526 0.218295 0.21766 0.21766 
0.218295 0.218526 0.216692 0.216778 0.218506 0.218137 0.21741 0.21741 0.218137 
0.218506 0.216778 0.216874 0.21849 0.217975 0.217152 0.217152 0.217975 0.21849 
0.216874 0.216982 0.218478 0.217807 0.216883 0.216883 0.217807 0.218478 0.216982 
0.217102 0.218469 0.217635 0.216605 0.216605 0.217635 0.218469 0.217102 0.217235 
0.218464 0.217456 0.216316 0.216316 0.217456 0.218464 0.217235 0.217382 0.218463 
0.217271 0.216016 0.216016 0.217271 0.218463 0.217382 0.217544 0.218467 0.217079 
0.215704 0.215704 0.217079 0.218467 0.217544 0.217723 0.218474 0.21688 0.21538 
0.21538 0.21688 0.218474 0.217723 0.217918 0.218485 0.216672 0.215044 0.215044 
0.216672 0.218485 0.217918 0.218133 0.2185 0.216456 0.214694 0.214694 0.216456 
0.2185 0.218133 0.218367 0.218518 0.21623 0.214331 0.214331 0.21623 0.218518 
0.218367 0.218624 0.21854 0.215993 0.213954 0.213954 0.215993 0.21854 0.218624 
0.218904 0.218566 0.215745 0.213562 0.213562 0.215745 0.218566 0.218904 0.21921 
0.218593 0.215484 0.213156 0.213156 0.215484 0.218593 0.21921 0.219544 0.218623 
0.215208 0.212735 0.212735 0.215208 0.218623 0.219544 0.219909 0.218653 0.214917 
0.212299 0.212299 0.214917 0.218653 0.219909 0.220306 0.218683 0.214608 0.211848 
0.211848 0.214608 0.218683 0.220306 0.220741 0.218712 0.21428 0.211382 0.211382 
0.21428 0.218712 0.220741 0.221216 0.218737 0.213931 0.210902 0.210902 0.213931 
0.218737 0.221216 0.221736 0.218756 0.213558 0.210408 0.210408 0.213558 0.218756 
0.221736 0.222304 0.218765 0.213159 0.209901 0.209901 0.213159 0.218765 0.222304 
0.222928 0.218762 0.212731 0.209382 0.209382 0.212731 0.218762 0.222928 0.223612 
0.218741 0.212272 0.208854 0.208854 0.212272 0.218741 0.223612 0.224364 0.218695 
0.211777 0.208319 0.208319 0.211777 0.218695 0.224364 0.225193 0.218618 0.211243 
0.207779 0.207779 0.211243 0.218618 0.225193 0.226107 0.2185 0.210667 0.207238 
0.207238 0.210667 0.2185 0.226107 0.227118 0.218329 0.210046 0.206702 0.206702 
0.210046 0.218329 0.227118 0.228239 0.21809 0.209375 0.206177 0.206177 0.209375 
0.21809 0.228239 0.229484 0.217766 0.20865 0.205669 0.205669 0.20865 0.217766 
0.229484 0.230869 0.217333 0.20787 0.205188 0.205188 0.20787 0.217333 0.230869 
0.232415 0.216765 0.207031 0.204747 0.204747 0.207031 0.216765 0.232415 0.234145 
0.216032 0.206133 0.204363 0.204363 0.206133 0.216032 0.234145 0.236079 0.215092 
0.205173 0.204053 0.204053 0.205173 0.215092 0.236079 0.238217 0.213885 0.204131 
0.203826 0.203826 0.204131 0.213885 0.238217 0.240582 0.212359 0.202992 0.203697 
0.203697 0.202992 0.212359 0.240582 0.243355 0.210626 0.201885 0.203844 0.203844 
0.201885 0.210626 0.243355 0.246735 0.208949 0.201096 0.204622 0.204622 0.201096 
0.208949 0.246735 0.249611 0.206583 0.199914 0.205363 0.205363 0.199914 0.206583 
0.249611 0.248803 0.200302 0.194888 0.202667 0.202667 0.194888 0.200302 0.248803 
0.247502 0.192241 0.187373 0.198303 0.198303 0.187373 0.192241 0.247502 0.271684 
0.214353 0.209096 0.223102 0.223102 0.209096 0.214353 0.271684 0.329348 0.296933 
0.290692 0.300873 0.300873 0.290692 0.296933 0.329348 0.233302 0.248377 0.208986 
0.215098 0.215098 0.208986 0.248377 0.233302 
Vel_Mag_m_p_s 1 608 float
0.400007 0.401636 0.352506 0.360547 0.360547 0.352506 0.401636 0.400007 0.342178 
0.240142 0.266585 0.28101 0.28101 0.266585 0.240142 0.342178 0.224542 0.202922 
0.203332 0.206339 0.206339 0.203332 0.202922 0.224542 0.226616 0.222093 0.221755 
0.222568 0.222568 0.221755 0.222093 0.226616 0.22125 0.221396 0.221507 0.221829 
0.221829 0.221507 0.221396 0.22125 0.219932 0.221713 0.222306 0.22259 0.22259 
0.222306 0.221713 0.219932 0.21943 0.221643 0.222521 0.222854 0.222854 0.222521 
0.221643 0.21943 0.219262 0.22159 0.222597 0.222964 0.222964 0.222597 0.22159 
0.219262 0.219226 0.221562 0.222608 0.222982 0.222982 0.222608 0.221562 0.219226 
0.219246 0.221555 0.222589 0.222953 0.222953 0.222589 0.221555 0.219246 0.219295 
0.22156 0.222556 0.222898 0.222898 0.222556 0.22156 0.219295 0.21936 0.221572 
0.222515 0.222828 0.222828 0.222515 0.221572 0.21936 0.219437 0.221587 0.222468 
0.222748 0.222748 0.222468 0.221587 0.219437 0.219525 0.221605 0.222416 0.222661 
0.222661 0.222416 0.221605 0.219525 0.219622 0.221623 0.22236 0.222567 0.222567 
0.22236 0.221623 0.219622 0.219731 0.221641 0.222298 0.222468 0.222468 0.222298 
0.221641 0.219731 0.219851 0.221658 0.22223 0.222364 0.222364 0.22223 0.221658 
0.219851 0.219985 0.221672 0.222157 0.222255 0.222255 0.222157 0.221672 0.219985 
0.220134 0.221683 0.222077 0.222141 0.222141 0.222077 0.221683 0.220134 0.220299 
0.221689 0.22199 0.222023 0.222023 0.22199 0.221689 0.220299 0.220483 0.221686 
0.221896 0.221903 0.221903 0.221896 0.221686 0.220483 0.220686 0.221671 0.221795 
0.221781 0.221781 0.221795 0.221671 0.220686 0.22091 0.22164 0.221686 0.221661 
0.221661 0.221686 0.22164 0.22091 0.221144 0.221586 0.221577 0.221552 0.221552 
0.221577 0.221586 0.221144 0.221336 0.221524 0.221499 0.221485 0.221485 0.221499 
0.221524 0.221336 0.0329767 0.0435623 0.040943 0.0410444 0.0410444 0.040943 0.0435623 
0.0329767 0.345598 0.34934 0.350056 0.349775 0.349775 0.350056 0.34934 0.345598 
0.345641 0.349255 0.349795 0.349394 0.349394 0.349795 0.349255 0.345641 0.345746 
0.349247 0.349636 0.349132 0.349132 0.349636 0.349247 0.345746 0.345864 0.349237 
0.349456 0.348835 0.348835 0.349456 0.349237 0.345864 0.345998 0.349234 0.349269 
0.348525 0.348525 0.349269 0.349234 0.345998 0.346148 0.349237 0.349076 0.3482 
0.3482 0.349076 0.349237 0.346148 0.346314 0.349245 0.348877 0.347861 0.347861 
0.348877 0.349245 0.346314 0.346496 0.349259 0.34867 0.347508 0.347508 0.34867 
0.349259 0.346496 0.346695 0.349279 0.348456 0.34714 0.34714 0.348456 0.349279 
0.346695 0.346913 0.349305 0.348233 0.346756 0.346756 0.348233 0.349305 0.346913 
0.34715 0.349337 0.348002 0.346356 0.346356 0.348002 0.349337 0.34715 0.347408 
0.349375 0.347762 0.345939 0.345939 0.347762 0.349375 0.347408 0.347689 0.349419 
0.347511 0.345504 0.345504 0.347511 0.349419 0.347689 0.347993 0.349469 0.34725 
0.34505 0.34505 0.34725 0.349469 0.347993 0.348324 0.349526 0.346976 0.344577 
0.344577 0.346976 0.349526 0.348324 0.348682 0.349589 0.346689 0.344083 0.344083 
0.346689 0.349589 0.348682 0.34907 0.349658 0.346388 0.343568 0.343568 0.346388 
0.349658 0.34907 0.349491 0.349733 0.346071 0.343031 0.343031 0.346071 0.349733 
0.349491 0.349946 0.349814 0.345736 0.342472 0.342472 0.345736 0.349814 0.349946 
0.35044 0.349899 0.345383 0.341889 0.341889 0.345383 0.349899 0.35044 0.350975 
0.349988 0.345009 0.341283 0.341283 0.345009 0.349988 0.350975 0.351554 0.35008 
0.344612 0.340653 0.340653 0.344612 0.35008 0.351554 0.352183 0.350174 0.34419 
0.339998 0.339998 0.34419 0.350174 0.352183 0.352866 0.350267 0.343739 0.339319 
0.339319 0.343739 0.350267 0.352866 0.353607 0.350358 0.343258 0.338616 0.338616 
0.343258 0.350358 0.353607 0.354413 0.350442 0.342742 0.33789 0.33789 0.342742 
0.350442 0.354413 0.35529 0.350517 0.342188 0.337141 0.337141 0.342188 0.350517 
0.35529 0.356246 0.350577 0.341592 0.336371 0.336371 0.341592 0.350577 0.356246 
0.35729 0.350616 0.34095 0.335582 0.335582 0.34095 0.350616 0.35729 0.358432 
0.350626 0.340256 0.334778 0.334778 0.340256 0.350626 0.358432 0.359683 0.350597 
0.339505 0.333961 0.333961 0.339505 0.350597 0.359683 0.361056 0.350518 0.338692 
0.333137 0.333137 0.338692 0.350518 0.361056 0.362567 0.350372 0.33781 0.332312 
0.332312 0.33781 0.350372 0.362567 0.364233 0.350141 0.336855 0.331493 0.331493 
0.336855 0.350141 0.364233 0.366075 0.349801 0.33582 0.330691 0.330691 0.33582 
0.349801 0.366075 0.368116 0.349323 0.3347 0.329916 0.329916 0.3347 0.349323 
0.368116 0.370383 0.34867 0.333488 0.329185 0.329185 0.333488 0.34867 0.370383 
0.372908 0.347799 0.332182 0.328516 0.328516 0.332182 0.347799 0.372908 0.375728 
0.346662 0.330781 0.327936 0.327936 0.330781 0.346662 0.375728 0.378877 0.345193 
0.329281 0.327475 0.327475 0.329281 0.345193 0.378877 0.382356 0.343291 0.327649 
0.327145 0.327145 0.327649 0.343291 0.382356 0.386199 0.340873 0.325862 0.326973 
0.326973 0.325862 0.340873 0.386199 0.390688 0.338107 0.324119 0.327231 0.327231 
0.324119 0.338107 0.390688 0.396136 0.335402 0.32287 0.328477 0.328477 0.32287 
0.335402 0.396136 0.400879 0.331623 0.321029 0.329702 0.329702 0.321029 0.331623 
0.400879 0.400015 0.321741 0.313217 0.325618 0.325618 0.313217 0.321741 0.400015 
0.398144 0.308876 0.301329 0.318758 0.318758 0.301329 0.308876 0.398144 0.434778 
0.342465 0.334524 0.356672 0.356672 0.334524 0.342465 0.434778 0.523241 0.468369 
0.459682 0.475769 0.475769 0.459682 0.468369 0.523241 0.385027 0.401115 0.340333 
0.350913 0.350913 0.340333 0.401115 0.385027 
Water_Depth_m 1 608 float
0.401426 0.409262 0.40638 0.405655 0.405655 0.40638 0.409262 0.401426 0.409593 
0.41031 0.410331 0.410277 0.410277 0.410331 0.41031 0.409593 0.40865 0.408954 
0.408985 0.408963 0.408963 0.408985 0.408954 0.40865 0.408983 0.409089 0.409124 
0.409125 0.409125 0.409124 0.409089 0.408983 0.409049 0.409077 0.409099 0.409104 
0.409104 0.409099 0.409077 0.409049 0.409087 0.409096 0.409108 0.409111 0.409111 
0.409108 0.409096 0.409087 0.409111 0.409114 0.409119 0.409122 0.409122 0.409119 
0.409114 0.409111 0.40913 0.409131 0.409134 0.409135 0.409135 0.409134 0.409131 
0.40913 0.409147 0.409147 0.409149 0.409149 0.409149 0.409149 0.409147 0.409147 
0.409163 0.409164 0.409164 0.409165 0.409165 0.409164 0.409164 0.409163 0.409179 
0.40918 0.40918 0.40918 0.40918 0.40918 0.40918 0.409179 0.409195 0.409196 
0.409196 0.409196 0.409196 0.409196 0.409196 0.409195 0.409211 0.409211 0.409211 
0.409211 0.409211 0.409211 0.409211 0.409211 0.409227 0.409227 0.409227 0.409227 
0.409227 0.409227 0.409227 0.409227 0.409243 0.409243 0.409243 0.409243 0.409243 
0.409243 0.409243 0.409243 0.409259 0.409259 0.409259 0.409259 0.409259 0.409259 
0.409259 0.409259 0.409274 0.409275 0.409275 0.409275 0.409275 0.409275 0.409275 
0.409274 0.40929 0.409291 0.40929 0.40929 0.40929 0.40929 0.409291 0.40929 
0.409306 0.409306 0.409306 0.409306 0.409306 0.409306 0.409306 0.409306 0.409322 
0.409322 0.409322 0.409322 0.409322 0.409322 0.409322 0.409322 0.409338 0.409338 
0.409338 0.409338 0.409338 0.409338 0.409338 0.409338 0.409354 0.409354 0.409353 
0.409353 0.409353 0.409353 0.409354 0.409354 0.40937 0.40937 0.409369 0.409369 
0.409369 0.409369 0.40937 0.40937 0.409387 0.409386 0.409385 0.409384 0.409384 
0.409385 0.409386 0.409387 0.409407 0.409401 0.409398 0.409397 0.409397 0.409398 
0.409401 0.409407 0.351868 0.35279 0.352299 0.352139 0.352139 0.352299 0.35279 
0.351868 0.260036 0.260037 0.260039 0.26004 0.26004 0.260039 0.260037 0.260036 
0.260105 0.260105 0.260106 0.260106 0.260106 0.260106 0.260105 0.260105 0.260173 
0.260174 0.260174 0.260174 0.260174 0.260174 0.260174 0.260173 0.260242 0.260242 
0.260242 0.260242 0.260242 0.260242 0.260242 0.260242 0.26031 0.26031 0.26031 
0.260311 0.260311 0.26031 0.26031 0.26031 0.260378 0.260379 0.260379 0.260379 
0.260379 0.260379 0.260379 0.260378 0.260447 0.260447 0.260447 0.260447 0.260447 
0.260447 0.260447 0.260447 0.260515 0.260515 0.260515 0.260515 0.260515 0.260515 
0.260515 0.260515 0.260583 0.260583 0.260583 0.260583 0.260583 0.260583 0.260583 
0.260583 0.260651 0.260651 0.260651 0.260651 0.260651 0.260651 0.260651 0.260651 
0.260718 0.260719 0.260719 0.260719 0.260719 0.260719 0.260719 0.260718 0.260786 
0.260787 0.260787 0.260787 0.260787 0.260787 0.260787 0.260786 0.260854 0.260855 
0.260855 0.260855 0.260855 0.260855 0.260855 0.260854 0.260922 0.260923 0.260922 
0.260923 0.260923 0.260922 0.260923 0.260922 0.260989 0.26099 0.26099 0.26099 
0.26099 0.26099 0.26099 0.260989 0.261057 0.261058 0.261058 0.261058 0.261058 
0.261058 0.261058 0.261057 0.261124 0.261125 0.261125 0.261125 0.261125 0.261125 
0.261125 0.261124 0.261192 0.261193 0.261193 0.261193 0.261193 0.261193 0.261193 
0.261192 0.261259 0.26126 0.26126 0.26126 0.26126 0.26126 0.26126 0.261259 
0.261326 0.261328 0.261327 0.261328 0.261328 0.261327 0.261328 0.261326 0.261393 
0.261395 0.261394 0.261395 0.261395 0.261394 0.261395 0.261393 0.26146 0.261462 