# vtk DataFile Version 5.1
vtk output
ASCII
DATASET UNSTRUCTURED_GRID
POINTS 9610 double
0.1016 1.5 0.22900000215 0.1016 1.45 0.20299999416 0.1016 1.4 0.19099999964 
0.1016 1.35 0.17299999297 0.1016 1.3 0.14800000191 0.1016 1.25 0.11999999732 
0.1016 1.2 0.10400000215 0.1016 1.15 0.093999996781 0.1016 1.1 0.078000001609 
0.1016 1.05 0.065999999642 0.1016 1 0.030999999493 0.1016 0.95 3.6517617466e-19 
0.1016 0.9 -1.9439354441e-19 0.1016 0.85 2.7747045729e-18 0.1016 0.8 -6.2414168658e-19 
0.1016 0.75 -4.8768079102e-18 0.1016 0.7 0.026555787772 0.1016 0.65 0.052741039544 
0.1016 0.6 0.076094537973 0.1016 0.55 0.097360961139 0.1016 0.5 0.12115270644 
0.1016 0.45 0.13974973559 0.1016 0.4 0.16143712401 0.1016 0.35 0.18807560205 
0.1016 0.3 0.21729597449 0.1016 0.25 0.24471183121 0.1016 0.2 0.26786640286 
0.1016 0.15 0.28401228786 0.1016 0.1 0.28726634383 0.1016 0.05 0.28563213348 
0.1016 0 0.28404605389 5.08 1.5 0.28700000048 5.08 1.45 0.28700000048 
5.08 1.4 0.28700000048 5.08 1.35 0.28700000048 5.08 1.3 0.28700000048 
5.08 1.25 0.28700000048 5.08 1.2 0.28700000048 5.08 1.15 0.28700000048 
5.08 1.1 0.28700000048 5.08 1.05 0.28700000048 5.08 1 0.28700000048 
5.08 0.95 0.28700000048 5.08 0.9 0.28700000048 5.08 0.85 0.28700000048 
5.08 0.8 0.28700000048 5.08 0.75 0.28700000048 5.08 0.7 0.28700000048 
5.08 0.65 0.28700000048 5.08 0.6 0.28700000048 5.08 0.55 0.28700000048 
5.08 0.5 0.28700000048 5.08 0.45 0.28700000048 5.08 0.4 0.28700000048 
5.08 0.35 0.28700000048 5.08 0.3 0.28700000048 5.08 0.25 0.28700000048 
5.08 0.2 0.28700000048 5.08 0.15 0.28700000048 5.08 0.1 0.28700000048 
5.08 0.05 0.28700000048 5.08 0 0.28700000048 0.151384 1.5 0.25548246503 
0.151384 1.45 0.21771757305 0.151384 1.4 0.19393458962 0.151384 1.35 0.18182149529 
0.151384 1.3 0.16171447933 0.151384 1.25 0.13174422085 0.151384 1.2 0.11475972086 
0.151384 1.15 0.098858818412 0.151384 1.1 0.083897151053 0.151384 1.05 0.077785395086 
0.151384 1 0.059434112161 0.151384 0.95 0.037184357643 0.151384 0.9 0.011686439626 
0.151384 0.85 0.0097771659493 0.151384 0.8 0.0088634565473 0.151384 0.75 0.0138260331 
0.151384 0.7 0.030878979713 0.151384 0.65 0.033309236169 0.151384 0.6 0.059231061488 
0.151384 0.55 0.075378589332 0.151384 0.5 0.10721009225 0.151384 0.45 0.12130898237 
0.151384 0.4 0.14622949064 0.151384 0.35 0.17520408332 0.151384 0.3 0.20815727115 
0.151384 0.25 0.23910684884 0.151384 0.2 0.26604658365 0.151384 0.15 0.28988912702 
0.151384 0.1 0.28997051716 0.151384 0.05 0.28894609213 0.151384 0 0.28793302178 
0.201168 1.5 0.26660960913 0.201168 1.45 0.23144552112 0.201168 1.4 0.2035741508 
0.201168 1.35 0.19158862531 0.201168 1.3 0.17352417111 0.201168 1.25 0.15311914682 
0.201168 1.2 0.12461434305 0.201168 1.15 0.11048840731 0.201168 1.1 0.087852068245 
0.201168 1.05 0.085689172149 0.201168 1 0.073578000069 0.201168 0.95 0.059250213206 
0.201168 0.9 0.039833985269 0.201168 0.85 0.022337237373 0.201168 0.8 0.015556176193 
0.201168 0.75 0.018686257303 0.201168 0.7 0.025092573836 0.201168 0.65 0.039587557316 
0.201168 0.6 0.056876797229 0.201168 0.55 0.077723070979 0.201168 0.5 0.098194487393 
0.201168 0.45 0.12278538942 0.201168 0.4 0.1468308121 0.201168 0.35 0.17586292326 
0.201168 0.3 0.20409785211 0.201168 0.25 0.23508478701 0.201168 0.2 0.26598536968 
0.201168 0.15 0.28808555007 0.201168 0.1 0.28909277916 0.201168 0.05 0.28997689486 
0.201168 0 0.28991395235 0.250952 1.5 0.27831569314 0.250952 1.45 0.24978412688 
0.250952 1.4 0.21701996028 0.250952 1.35 0.19942364097 0.250952 1.3 0.18717110157 
0.250952 1.25 0.16708423197 0.250952 1.2 0.13992658257 0.250952 1.15 0.11927233636 
0.250952 1.1 0.1019846797 0.250952 1.05 0.090635582805 0.250952 1 0.084387294948 
0.250952 0.95 0.072282664478 0.250952 0.9 0.062650695443 0.250952 0.85 0.053884357214 
0.250952 0.8 0.050497978926 0.250952 0.75 0.046913091093 0.250952 0.7 0.051909390837 
0.250952 0.65 0.052943453193 0.250952 0.6 0.072782717645 0.250952 0.55 0.090047903359 
0.250952 0.5 0.10995861143 0.250952 0.45 0.13314002752 0.250952 0.4 0.15626978874 
0.250952 0.35 0.18332391977 0.250952 0.3 0.20754930377 0.250952 0.25 0.24422630668 
0.250952 0.2 0.2696903944 0.250952 0.15 0.28699183464 0.250952 0.1 0.28711795807 
0.250952 0.05 0.28812769055 0.250952 0 0.29474538565 0.300736 1.5 0.27919092774 
0.300736 1.45 0.26860359311 0.300736 1.4 0.24732969701 0.300736 1.35 0.2181879878 
0.300736 1.3 0.19804283977 0.300736 1.25 0.19012194872 0.300736 1.2 0.16588921845 
0.300736 1.15 0.14377075434 0.300736 1.1 0.124908939 0.300736 1.05 0.10366753489 
0.300736 1 0.090384081006 0.300736 0.95 0.084990285337 0.300736 0.9 0.081678874791 
0.300736 0.85 0.081227116287 0.300736 0.8 0.084587179124 0.300736 0.75 0.077773310244 
0.300736 0.7 0.082569949329 0.300736 0.65 0.085176624358 0.300736 0.6 0.096743732691 
0.300736 0.55 0.11284460872 0.300736 0.5 0.13747346401 0.300736 0.45 0.15589466691 
0.300736 0.4 0.17617492378 0.300736 0.35 0.20225429535 0.300736 0.3 0.2309551388 
0.300736 0.25 0.25510028005 0.300736 0.2 0.27830174565 0.300736 0.15 0.2860994339 
0.300736 0.1 0.28703212738 0.300736 0.05 0.28804808855 0.300736 0 0.29046931863 
0.35052 1.5 0.2763197422 0.35052 1.45 0.27390018106 0.35052 1.4 0.27108204365 
0.35052 1.35 0.2434733361 0.35052 1.3 0.22044543922 0.35052 1.25 0.19734691083 
0.35052 1.2 0.1816008538 0.35052 1.15 0.16859471798 0.35052 1.1 0.15036398172 
0.35052 1.05 0.13000786304 0.35052 1 0.10883059353 0.35052 0.95 0.096701800823 
0.35052 0.9 0.089349672198 0.35052 0.85 0.089532904327 0.35052 0.8 0.097222469747 
0.35052 0.75 0.099302947521 0.35052 0.7 0.10326877236 0.35052 0.65 0.11618859321 
0.35052 0.6 0.12797355652 0.35052 0.55 0.14669695497 0.35052 0.5 0.16368094087 
0.35052 0.45 0.18243604898 0.35052 0.4 0.19875848293 0.35052 0.35 0.22291512787 
0.35052 0.3 0.24387013912 0.35052 0.25 0.26860925555 0.35052 0.2 0.28174042702 
0.35052 0.15 0.28333061934 0.35052 0.1 0.28431043029 0.35052 0.05 0.28440338373 
0.35052 0 0.28813710809 0.400304 1.5 0.27596959472 0.400304 1.45 0.2749607265 
0.400304 1.4 0.27150002122 0.400304 1.35 0.2665489614 0.400304 1.3 0.24491091073 
0.400304 1.25 0.22137719393 0.400304 1.2 0.20471307635 0.400304 1.15 0.18948663771 
0.400304 1.1 0.17684435844 0.400304 1.05 0.15931999683 0.400304 1 0.13011240959 
0.400304 0.95 0.11687117815 0.400304 0.9 0.10534438491 0.400304 0.85 0.10362927616 
0.400304 0.8 0.10557885468 0.400304 0.75 0.10791314393 0.400304 0.7 0.11992906779 
0.400304 0.65 0.13156862557 0.400304 0.6 0.14801946282 0.400304 0.55 0.16424524784 
0.400304 0.5 0.17667755485 0.400304 0.45 0.20172268152 0.400304 0.4 0.2204643786 
0.400304 0.35 0.24340386689 0.400304 0.3 0.26349073648 0.400304 0.25 0.28070318699 
0.400304 0.2 0.28298985958 0.400304 0.15 0.28296864033 0.400304 0.1 0.28301590681 
0.400304 0.05 0.28392329812 0.400304 0 0.28706213832 0.450088 1.5 0.27517530322 
0.450088 1.45 0.27409830689 0.450088 1.4 0.27360868454 0.450088 1.35 0.27368620038 
0.450088 1.3 0.26995643973 0.450088 1.25 0.24934217334 0.450088 1.2 0.23122142255 
0.450088 1.15 0.21010631323 0.450088 1.1 0.19908170402 0.450088 1.05 0.18560349941 
0.450088 1 0.16742931306 0.450088 0.95 0.14978966117 0.450088 0.9 0.13700576127 
0.450088 0.85 0.1306078434 0.450088 0.8 0.12951956689 0.450088 0.75 0.13245040178 
0.450088 0.7 0.14371705055 0.450088 0.65 0.1470849067 0.450088 0.6 0.16847275198 
0.450088 0.55 0.18621490896 0.450088 0.5 0.20081664622 0.450088 0.45 0.22420862317 
0.450088 0.4 0.24175772071 0.450088 0.35 0.26336741447 0.450088 0.3 0.27764496207 
0.450088 0.25 0.28054988384 0.450088 0.2 0.28134584427 0.450088 0.15 0.28216964006 
0.450088 0.1 0.28389003873 0.450088 0.05 0.28408393264 0.450088 0 0.28709822893 
0.499872 1.5 0.27486619353 0.499872 1.45 0.27473065257 0.499872 1.4 0.27397924662 
0.499872 1.35 0.27411240339 0.499872 1.3 0.27344253659 0.499872 1.25 0.27120310068 
0.499872 1.2 0.25526311994 0.499872 1.15 0.23453326523 0.499872 1.1 0.22007915378 
0.499872 1.05 0.20163099468 0.499872 1 0.1936019659 0.499872 0.95 0.18637785316 
0.499872 0.9 0.16830679774 0.499872 0.85 0.1596314162 0.499872 0.8 0.16633570194 
0.499872 0.75 0.16700448096 0.499872 0.7 0.17588378489 0.499872 0.65 0.18450556695 
0.499872 0.6 0.19712363183 0.499872 0.55 0.21280293167 0.499872 0.5 0.23144762218 
0.499872 0.45 0.25034290552 0.499872 0.4 0.27068120241 0.499872 0.35 0.27403429151 
0.499872 0.3 0.27752876282 0.499872 0.25 0.27915772796 0.499872 0.2 0.28095164895 
0.499872 0.15 0.28117904067 0.499872 0.1 0.2823472023 0.499872 0.05 0.283133775 
0.499872 0 0.28267818689 0.549656 1.5 0.27905589342 0.549656 1.45 0.27739539742 
0.549656 1.4 0.27716335654 0.549656 1.35 0.2754650712 0.549656 1.3 0.27541878819 
0.549656 1.25 0.27598252892 0.549656 1.2 0.27277562022 0.549656 1.15 0.26825064421 
0.549656 1.1 0.25015541911 0.549656 1.05 0.2287967205 0.549656 1 0.21471834183 
0.549656 0.95 0.21412505209 0.549656 0.9 0.19447152317 0.549656 0.85 0.186214149 
0.549656 0.8 0.18128237128 0.549656 0.75 0.18233565986 0.549656 0.7 0.19556975365 
0.549656 0.65 0.20678167045 0.549656 0.6 0.2201141715 0.549656 0.55 0.23337820172 
0.549656 0.5 0.24639096856 0.549656 0.45 0.26026913524 0.549656 0.4 0.27635207772 
0.549656 0.35 0.27614206076 0.549656 0.3 0.27691322565 0.549656 0.25 0.27816385031 
0.549656 0.2 0.27936944366 0.549656 0.15 0.28016901016 0.549656 0.1 0.28113365173 
0.549656 0.05 0.28298175335 0.549656 0 0.28607988358 0.59944 1.5 0.28169769049 
0.59944 1.45 0.28049808741 0.59944 1.4 0.28048720956 0.59944 1.35 0.27926135063 
0.59944 1.3 0.27763170004 0.59944 1.25 0.27757111192 0.59944 1.2 0.27699941397 
0.59944 1.15 0.27649977803 0.59944 1.1 0.27305525541 0.59944 1.05 0.26361721754 
0.59944 1 0.24797138572 0.59944 0.95 0.23858621716 0.59944 0.9 0.22442731261 
0.59944 0.85 0.21371160448 0.59944 0.8 0.2038282603 0.59944 0.75 0.20253993571 
0.59944 0.7 0.20797452331 0.59944 0.65 0.21527686715 0.59944 0.6 0.22611013055 
0.59944 0.55 0.23811396956 0.59944 0.5 0.25648590922 0.59944 0.45 0.27210789919 
[...]
CELL_DATA 9270
FIELD FieldData 7
B_Stress_n_p_m2 1 9270 float
0.22928 0.291559 0.303838 0.302982 0.295701 0.289732 0.287565 0.28645 0.290711 
0.295655 0.2952 0.29245 0.293942 0.294423 0.28228 0.203821 0.140433 0.108299 
0.0888818 0.0752837 0.0649846 0.0573329 0.0521248 0.0485559 0.0463339 0.0452463 0.0449351 
0.0426764 0.0368111 0.0285093 0.233639 0.293775 0.299581 0.29907 0.292972 0.283432 
0.277378 0.273128 0.272589 0.274277 0.273072 0.268475 0.258166 0.24851 0.228105 
0.185003 0.14502 0.116551 0.0974957 0.0826811 0.0718506 0.0628412 0.05656 0.0514694 
0.0479668 0.0450101 0.0417821 0.036324 0.0258996 0.0113051 0.245374 0.305324 0.303224 
0.298782 0.293409 0.284259 0.272736 0.26645 0.260698 0.258891 0.255736 0.250315 
0.241696 0.228116 0.206838 0.176537 0.147765 0.126652 0.109709 0.0973293 0.0870753 
0.0799651 0.0746015 0.0709208 0.0679001 0.0652076 0.0601002 0.0509425 0.0366438 0.0162084 
0.260297 0.328242 0.320574 0.30504 0.296562 0.288018 0.276892 0.265991 0.257158 
0.248697 0.243165 0.236368 0.228771 0.217476 0.199661 0.176314 0.154822 0.136161 
0.122648 0.111511 0.10275 0.09613 0.0918404 0.0889736 0.086618 0.0832286 0.0749888 
0.0620618 0.0433913 0.0191924 0.265338 0.343111 0.347074 0.323795 0.303543 0.293491 
0.283576 0.272906 0.261211 0.247136 0.23607 0.227201 0.21871 0.208406 0.194836 
0.178195 0.162883 0.149583 0.138156 0.128592 0.121798 0.116014 0.112887 0.111249 
0.109497 0.102923 0.0920209 0.0754941 0.0535796 0.0259597 0.266119 0.344655 0.362202 
0.348881 0.325672 0.305425 0.292042 0.282199 0.270005 0.254643 0.239187 0.22709 
0.216296 0.205173 0.193539 0.182007 0.17007 0.161547 0.152848 0.145642 0.140157 
0.137135 0.136113 0.135518 0.130892 0.122304 0.108191 0.0895418 0.0649567 0.0337424 
0.26603 0.344519 0.362323 0.365789 0.352252 0.329813 0.309205 0.293299 0.280418 
0.267998 0.252271 0.238311 0.226323 0.215989 0.204704 0.194364 0.185403 0.177745 
0.171949 0.166937 0.163187 0.163023 0.161547 0.158572 0.150915 0.139074 0.123245 
0.104085 0.0777014 0.0428535 0.26667 0.344074 0.361676 0.366676 0.368247 0.355893 
0.336431 0.313441 0.294533 0.28083 0.270197 0.254982 0.242499 0.232197 0.223051 
0.215346 0.208761 0.201544 0.196991 0.193179 0.19116 0.190441 0.185259 0.177131 
0.166094 0.15211 0.136985 0.118007 0.0909969 0.0527553 0.270097 0.347021 0.363083 
0.366461 0.368599 0.369958 0.362744 0.345899 0.323992 0.302758 0.289154 0.274883 
0.259067 0.24575 0.23745 0.230837 0.226232 0.222482 0.217906 0.215034 0.213692 
0.209308 0.202513 0.189713 0.176897 0.16412 0.150208 0.131863 0.104376 0.0634931 
0.273238 0.349306 0.365316 0.366902 0.36771 0.369147 0.369129 0.367086 0.355835 
0.337747 0.318656 0.302107 0.283401 0.267239 0.253555 0.244587 0.239111 0.235396 
0.233841 0.232645 0.229608 0.222024 0.211805 0.199357 0.187417 0.17585 0.1629 
0.145522 0.117802 0.0739382 0.272592 0.348053 0.363447 0.365258 0.365037 0.365625 
0.365632 0.365095 0.364756 0.35959 0.348215 0.333029 0.317488 0.301576 0.286315 
0.274344 0.264554 0.258027 0.25473 0.250789 0.244246 0.233982 0.220335 0.208637 
0.197621 0.187164 0.175253 0.158858 0.131177 0.0846357 0.272371 0.347376 0.362229 
0.36443 0.364275 0.364511 0.365027 0.364351 0.36365 0.363051 0.359572 0.354476 
0.34611 0.337017 0.326366 0.314781 0.30322 0.292298 0.281703 0.272088 0.259307 
0.244553 0.231204 0.219749 0.209466 0.199625 0.188512 0.173011 0.145383 0.0962539 
0.274846 0.34989 0.36541 0.367799 0.368104 0.368155 0.368288 0.368255 0.367539 
0.366613 0.364273 0.362129 0.359099 0.354479 0.348314 0.339861 0.329155 0.317068 
0.303236 0.287635 0.27197 0.25747 0.244749 0.233764 0.223858 0.214231 0.203692 
0.188673 0.161261 0.10923 0.275502 0.350535 0.366075 0.36864 0.369101 0.368998 
0.368659 0.368255 0.367501 0.366253 0.364558 0.361698 0.35866 0.354035 0.348112 
0.340457 0.331001 0.320028 0.307427 0.293315 0.279442 0.266735 0.255199 0.244848 
0.235461 0.226588 0.216761 0.202714 0.175696 0.121322 0.272998 0.347382 0.362506 
0.3648 0.364943 0.364599 0.364004 0.363165 0.361962 0.360366 0.358416 0.355385 
0.351686 0.346793 0.340744 0.333405 0.324857 0.315139 0.304385 0.292982 0.281495 
0.270521 0.260407 0.251183 0.242793 0.234929 0.226189 0.213397 0.18729 0.131266 
0.269873 0.343629 0.358407 0.360403 0.360245 0.359666 0.358823 0.357714 0.356245 
0.354355 0.351982 0.348852 0.345023 0.340263 0.334549 0.327823 0.32013 0.311556 
0.302252 0.292504 0.282725 0.273302 0.264486 0.256391 0.249004 0.242083 0.234397 
0.22279 0.197672 0.140251 0.266768 0.340008 0.35451 0.356295 0.355922 0.35515 
0.354113 0.3528 0.351136 0.349063 0.346509 0.343334 0.339514 0.334937 0.329579 
0.323423 0.316517 0.308949 0.300862 0.29248 0.284079 0.275935 0.268252 0.26116 
0.254675 0.248615 0.24187 0.231348 0.207168 0.148536 0.263731 0.336502 0.350782 
0.352407 0.351878 0.350961 0.349779 0.348329 0.346541 0.344368 0.341746 0.338597 
0.334882 0.330545 0.325569 0.319962 0.313768 0.307074 0.300003 0.292729 0.285456 
0.278387 0.271687 0.265484 0.259804 0.254517 0.248609 0.239069 0.215788 0.156131 
0.26083 0.333155 0.347248 0.348756 0.348117 0.347097 0.34582 0.344285 0.342432 
0.340224 0.337611 0.334542 0.330987 0.326916 0.322324 0.317229 0.311676 0.305741 
0.299531 0.293183 0.286851 0.280692 0.274842 0.269419 0.264453 0.259848 0.254681 
0.246022 0.223597 0.163082 0.258099 0.329991 0.343922 0.345343 0.34463 0.343545 
0.342211 0.340635 0.338765 0.336571 0.334016 0.331067 0.327703 0.32391 0.319691 
0.315069 0.310089 0.304817 0.299343 0.293777 0.28824 0.282859 0.277745 0.273003 
0.268664 0.264659 0.260142 0.252271 0.230658 0.169436 0.255562 0.327024 0.340811 
0.342168 0.341409 0.34029 0.338932 0.33735 0.335496 0.333353 0.330889 0.328085 
0.324927 0.321412 0.317549 0.313362 0.308893 0.304201 0.299361 0.294464 0.289608 
0.284895 0.280417 0.276269 0.272479 0.268998 0.265049 0.257883 0.237035 0.175241 
0.253233 0.324263 0.337915 0.339225 0.338444 0.337314 0.335958 0.334396 0.332586 
0.330518 0.328166 0.325522 0.322576 0.319333 0.315803 0.312013 0.308001 0.303819 
0.29953 0.29521 0.290938 0.286801 0.282875 0.279245 0.275934 0.27291 0.269458 
0.262919 0.242791 0.180545 0.251116 0.321709 0.335233 0.336509 0.335722 0.334599 
0.333265 0.331743 0.329996 0.328019 0.325794 0.323315 0.320581 0.317597 0.314379 
0.31095 0.307346 0.303613 0.299805 0.295985 0.29222 0.288582 0.285136 0.281956 
0.279065 0.276437 0.273419 0.267437 0.247987 0.185395 0.249212 0.319361 0.332758 
0.334009 0.33323 0.332129 0.330831 0.329363 0.327692 0.325817 0.323724 0.321413 
0.318884 0.316146 0.313216 0.310115 0.306877 0.303541 0.300154 0.29677 0.293445 
0.290242 0.287213 0.284426 0.2819 0.279618 0.276977 0.271492 0.252678 0.189834 
0.247519 0.317211 0.330484 0.331716 0.330954 0.329884 0.328633 0.327228 0.325641 
0.323874 0.321916 0.31977 0.317438 0.314932 0.312266 0.309463 0.306552 0.303568 
0.300552 0.29755 0.294609 0.291784 0.28912 0.286676 0.284468 0.282486 0.280175 
0.275134 0.256918 0.193906 0.246028 0.315253 0.328399 0.329617 0.328879 0.327848 
0.326651 0.325315 0.323817 0.322159 0.320335 0.318348 0.316204 0.313913 0.31149 
0.308957 0.306339 0.303668 0.300979 0.298313 0.295709 0.293214 0.290869 0.288724 
0.286794 0.285074 0.28305 0.278405 0.260753 0.197647 0.244734 0.313478 0.326494 
0.327701 0.326991 0.326004 0.324864 0.323602 0.322193 0.320645 0.318951 0.317118 
0.315149 0.313058 0.310857 0.308568 0.306214 0.303821 0.301422 0.299051 0.296743 
0.294538 0.292471 0.290588 0.288901 0.287408 0.285636 0.281346 0.264226 0.201093 
0.243626 0.311875 0.324758 0.325955 0.325276 0.324335 0.323255 0.322067 0.320749 
0.319308 0.317739 0.31605 0.314246 0.312339 0.310342 0.308274 0.306156 0.304012 
0.301869 0.299759 0.297711 0.295761 0.293938 0.292285 0.290811 0.289516 0.287963 
0.283992 0.267376 0.204276 0.242694 0.310434 0.32318 0.324367 0.32372 0.322827 
0.321808 0.320693 0.319463 0.318125 0.316676 0.315123 0.313473 0.311735 0.309924 
0.308056 0.30615 0.304227 0.302313 0.300433 0.298615 0.296889 0.295281 0.293829 
0.292541 0.29142 0.29006 0.286376 0.270238 0.207224 0.241929 0.309144 0.321748 
0.322926 0.322311 0.321465 0.320507 0.319464 0.318319 0.31708 0.315744 0.314318 
0.31281 0.311228 0.309586 0.307899 0.306183 0.304459 0.302747 0.301072 0.299457 
0.297929 0.29651 0.295234 0.29411 0.29314 0.291949 0.288526 0.272841 0.209963 
0.24132 0.307994 0.320452 0.321619 0.321037 0.320238 0.319338 0.318364 0.317301 
0.316155 0.314925 0.313619 0.312241 0.310802 0.309314 0.30779 0.306245 0.304699 
0.303168 0.301675 0.300239 0.298885 0.297633 0.296513 0.295532 0.294695 0.293653 
0.290466 0.275216 0.212516 0.240857 0.306974 0.319281 0.320436 0.319886 0.319132 
0.318288 0.317381 0.316395 0.315338 0.314207 0.31301 0.311753 0.310445 0.309096 
0.30772 0.30633 0.304942 0.303572 0.302241 0.300964 0.299765 0.29866 0.297677 
0.296822 0.296101 0.295192 0.292219 0.277385 0.214904 0.240529 0.306074 0.318226 
0.319367 0.318847 0.318137 0.317347 0.316503 0.31559 0.314615 0.313576 0.312481 
0.311334 0.310146 0.308924 0.307682 0.30643 0.305184 0.303959 0.302771 0.301636 
0.300574 0.299599 0.298737 0.297993 0.297375 0.296581 0.293805 0.27937 0.217145 
0.240327 0.305284 0.317276 0.318403 0.317911 0.317242 0.316504 0.315719 0.314874 
0.313975 0.313022 0.312021 0.310976 0.309896 0.30879 0.307668 0.306541 0.305423 
0.304327 0.303267 0.302257 0.301316 0.300457 0.299702 0.299057 0.298528 0.297838 
0.295242 0.281192 0.219255 0.240242 0.304595 0.316424 0.317534 0.317069 0.316439 
0.315749 0.315019 0.314238 0.313411 0.312536 0.311621 0.310669 0.309688 0.308687 
0.307674 0.30666 0.305656 0.304675 0.303729 0.302832 0.301999 0.301241 0.300581 
0.300023 0.299574 0.298975 0.296545 0.282867 0.22125 0.240264 0.303999 0.31566 
0.316752 0.316312 0.315718 0.315074 0.314396 0.313674 0.312912 0.31211 0.311274 
0.310407 0.309517 0.30861 0.307695 0.306783 0.305882 0.305004 0.30416 0.303363 
0.302626 0.301959 0.301382 0.300901 0.300522 0.300006 0.297729 0.284412 0.223142 
0.240386 0.303488 0.314977 0.316049 0.315633 0.315073 0.31447 0.313841 0.313173 
0.312472 0.311738 0.310973 0.310184 0.309376 0.308555 0.307729 0.306908 0.306099 
0.305314 0.304562 0.303853 0.303201 0.302615 0.302113 0.3017 0.301384 0.30094 
0.298805 0.285839 0.224943 0.240595 0.303057 0.314369 0.315419 0.315025 0.314496 
0.313932 0.313347 0.31273 0.312085 0.311411 0.310713 0.309995 0.309261 0.308518 
0.307773 0.307034 0.306308 0.305605 0.304935 0.304306 0.30373 0.303216 0.302781 
0.302428 0.302166 0.301788 0.299786 0.28716 0.226663 0.240881 0.302705 0.313829 
0.314855 0.31448 0.313981 0.313453 0.312909 0.312338 0.311745 0.311127 0.310489 
0.309835 0.309169 0.308496 0.307824 0.307159 0.306508 0.30588 0.305283 0.304724 
0.304217 0.303767 0.30339 0.303091 0.302878 0.302559 0.30068 0.288388 0.228313 
0.241238 0.302425 0.31335 0.31435 0.313994 0.313521 0.313027 0.31252 0.311992 
0.311446 0.310879 0.310297 0.309701 0.309096 0.308488 0.307881 0.307282 0.306699 
0.306137 0.305606 0.305111 0.304664 0.304271 0.303947 0.303696 0.303527 0.30326 
0.301497 0.289531 0.2299 0.241659 0.302211 0.312927 0.313901 0.31356 0.313112 
0.312648 0.312176 0.311688 0.311184 0.310665 0.310132 0.309589 0.30904 0.30849 
0.307942 0.307404 0.306881 0.306379 0.305906 0.305469 0.305076 0.304734 0.304457 
0.304248 0.304118 0.303898 0.302244 0.290598 0.231431 0.242139 0.302056 0.312555 
0.313501 0.313174 0.312749 0.312313 0.311873 0.311421 0.310956 0.310479 0.309992 
0.309498 0.308999 0.308501 0.308007 0.307523 0.307054 0.306606 0.306186 0.3058 
0.305456 0.305159 0.304923 0.304753 0.304657 0.30448 0.302928 0.291596 0.232914 
0.242675 0.301954 0.31223 0.313146 0.312832 0.312428 0.312018 0.311606 0.311186 
0.310757 0.31032 0.309874 0.309424 0.308971 0.30852 0.308074 0.307639 0.307219 
0.30682 0.306447 0.306106 0.305806 0.30555 0.305352 0.305215 0.30515 0.305012 
0.303557 0.292534 0.234354 0.243261 0.301899 0.311948 0.312832 0.312529 0.312144 
0.311757 0.311372 0.310982 0.310586 0.310183 0.309775 0.309365 0.308953 0.308545 
0.308143 0.307752 0.307376 0.30702 0.30669 0.30639 0.306129 0.30591 0.305745 
0.305638 0.305601 0.305498 0.304135 0.293415 0.235758 0.243895 0.301886 0.311705 
0.312555 0.312261 0.311893 0.311528 0.311167 0.310805 0.310438 0.310068 0.309694 
0.309319 0.308945 0.308576 0.308213 0.307862 0.307526 0.307209 0.306917 0.306654 
0.306428 0.306241 0.306106 0.306027 0.306014 0.305943 0.304667 0.294247 0.237128 
0.244572 0.301912 0.311497 0.312311 0.312026 0.311674 0.311328 0.310989 0.310651 
0.310312 0.309971 0.309628 0.309286 0.308946 0.308611 0.308284 0.307969 0.307669 
0.307387 0.30713 0.3069 0.306704 0.306547 0.306439 0.306384 0.306393 0.306351 
0.305158 0.295034 0.238471 0.24529 0.301972 0.311321 0.312097 0.31182 0.311482 
0.311154 0.310835 0.31052 0.310205 0.30989 0.309575 0.309263 0.308954 0.308651 
0.308356 0.308073 0.307805 0.307555 0.307328 0.307128 0.306961 0.30683 0.306746 
0.306712 0.306741 0.306726 0.305611 0.29578 0.23979 0.246046 0.302063 0.311173 
0.311911 0.31164 0.311315 0.311003 0.310703 0.310408 0.310115 0.309824 0.309535 
0.309249 0.308968 0.308693 0.308428 0.308174 0.307935 0.307714 0.307515 0.307341 
0.307199 0.307092 0.307029 0.307015 0.307062 0.30707 0.306031 0.29649 0.241088 
0.246838 0.302182 0.311051 0.31175 0.311484 0.311171 0.310874 0.31059 0.310313 
0.31004 0.309772 0.309506 0.309244 0.308988 0.308739 0.3085 0.308272 0.308059 
0.307864 0.30769 0.30754 0.307421 0.307335 0.307291 0.307295 0.307357 0.307388 
0.306421 0.297166 0.242369 0.247663 0.302326 0.310952 0.311611 0.311349 0.311047 
0.310763 0.310494 0.310234 0.30998 0.309731 0.309486 0.309246 0.309013 0.308787 
0.308571 0.308367 0.308178 0.308006 0.307855 0.307726 0.307628 0.30756 0.307534 
0.307554 0.307631 0.307681 0.306784 0.297812 0.243635 0.248518 0.302491 0.310873 
0.311493 0.311234 0.310941 0.31067 0.310414 0.31017 0.309932 0.309701 0.309475 
0.309255 0.309042 0.308837 0.308643 0.30846 0.308292 0.308141 0.30801 0.307901 
0.307821 0.307771 0.30776 0.307794 0.307883 0.307953 0.307121 0.29843 0.244889 
0.249404 0.302677 0.310813 0.311393 0.311137 0.310853 0.310592 0.310349 0.310118 
0.309895 0.30968 0.309471 0.309269 0.309075 0.308889 0.308714 0.308551 0.308402 
0.308269 0.308157 0.308066 0.308002 0.307967 0.30797 0.308016 0.308118 0.308204 
0.307436 0.299023 0.246133 0.250316 0.30288 0.310769 0.311309 0.311055 0.310779 
0.310528 0.310296 0.310078 0.309869 0.309668 0.309474 0.309289 0.309111 0.308943 
0.308785 0.308639 0.308508 0.308392 0.308296 0.30822 0.308171 0.30815 0.308167 
0.308224 0.308335 0.308437 0.30773 0.299594 0.24737 0.251255 0.303098 0.310741 
0.31124 0.310988 0.310719 0.310477 0.310255 0.310048 0.309851 0.309664 0.309484 
0.309313 0.309151 0.308998 0.308856 0.308726 0.30861 0.308509 0.308428 0.308366 
0.308331 0.308322 0.30835 0.308417 0.308538 0.308654 0.308006 0.300143 0.248602 
0.252218 0.30333 0.310725 0.311185 0.310933 0.31067 0.310437 0.310224 0.310028 
0.309842 0.309666 0.309499 0.309342 0.309193 0.309054 0.308926 0.30881 0.308708 
0.308621 0.308553 0.308505 0.308481 0.308484 0.308522 0.308598 0.308728 0.308857 
0.308265 0.300674 0.249829 0.253205 0.303575 0.310721 0.311141 0.31089 0.310633 
0.310407 0.310203 0.310015 0.309839 0.309675 0.309519 0.309374 0.309237 0.309111 
0.308996 0.308893 0.308803 0.308729 0.308673 0.308636 0.308623 0.308636 0.308683 
0.308768 0.308905 0.309046 0.308509 0.301187 0.251054 0.254215 0.303829 0.310728 
0.311108 0.310858 0.310606 0.310387 0.31019 0.310011 0.309844 0.309689 0.309544 
0.309409 0.309284 0.309169 0.309065 0.308973 0.308896 0.308833 0.308787 0.30876 
0.308758 0.308779 0.308835 0.308927 0.309071 0.309223 0.308738 0.301683 0.252278 
0.255245 0.304093 0.310743 0.311085 0.310835 0.310588 0.310375 0.310184 0.310013 
0.309854 0.309708 0.309572 0.309447 0.309332 0.309227 0.309134 0.309053 0.308985 
0.308932 0.308897 0.308879 0.308885 0.308915 0.308978 0.309077 0.309227 0.30939 
0.308955 0.302165 0.253503 0.256297 0.304364 0.310767 0.311071 0.31082 0.310578 
0.31037 0.310186 0.310021 0.30987 0.309732 0.309604 0.309488 0.309382 0.309286 
0.309203 0.309131 0.309073 0.309029 0.309002 0.308993 0.309007 0.309044 0.309114 
0.309218 0.309374 0.309546 0.30916 0.302633 0.254729 0.257368 0.304642 0.310798 
0.311065 0.310814 0.310575 0.310372 0.310193 0.310035 0.30989 0.30976 0.30964 
0.309531 0.309433 0.309346 0.309271 0.309207 0.309158 0.309122 0.309103 0.309101 
0.309122 0.309166 0.309242 0.309352 0.309513 0.309694 0.309355 0.303088 0.255958 
0.258458 0.304926 0.310836 0.311066 0.310814 0.310578 0.31038 0.310206 0.310053 
0.309915 0.309791 0.309678 0.309576 0.309486 0.309406 0.309339 0.309283 0.30924 
0.309212 0.3092 0.309206 0.309233 0.309283 0.309364 0.30948 0.309645 0.309834 
0.309539 0.303531 0.25719 0.259567 0.305214 0.310879 0.311073 0.31082 0.310588 
0.310394 0.310224 0.310077 0.309943 0.309825 0.309718 0.309623 0.309539 0.309467 
0.309406 0.309357 0.309322 0.3093 0.309295 0.309306 0.309339 0.309395 0.309481 
0.3096 0.30977 0.309966 0.309715 0.303962 0.258428 0.260693 0.305505 0.310926 
0.311086 0.310832 0.310602 0.310412 0.310247 0.310103 0.309975 0.309862 0.309761 
0.309672 0.309594 0.309528 0.309473 0.30943 0.309401 0.309385 0.309386 0.309403 
0.309441 0.309501 0.309592 0.309716 0.309889 0.310092 0.309882 0.304383 0.25967 
0.261838 0.3058 0.310978 0.311104 0.310849 0.310622 0.310435 0.310273 0.310134 
0.31001 0.309902 0.309806 0.309722 0.30965 0.309589 0.30954 0.309503 0.309479 
0.309469 0.309474 0.309496 0.30954 0.309604 0.309699 0.309826 0.310002 0.310211 
0.310041 0.304794 0.260919 0.262999 0.306096 0.311034 0.311126 0.310871 0.310646 
0.310462 0.310303 0.310168 0.310048 0.309944 0.309853 0.309774 0.309706 0.30965 
0.309606 0.309574 0.309555 0.30955 0.30956 0.309587 0.309634 0.309703 0.309801 
0.309931 0.310111 0.310326 0.310194 0.305195 0.262174 0.264177 0.306393 0.311092 
0.311152 0.310896 0.310673 0.310492 0.310336 0.310204 0.310088 0.309988 0.309901 
0.309826 0.309763 0.309712 0.309672 0.309645 0.30963 0.309629 0.309644 0.309675 
0.309726 0.309798 0.309899 0.310032 0.310215 0.310435 0.31034 0.305586 0.263437 
0.265371 0.306691 0.311154 0.311182 0.310926 0.310704 0.310525 0.310372 0.310244 
0.310131 0.310034 0.309951 0.30988 0.309821 0.309773 0.309738 0.309715 0.309704 
0.309707 0.309726 0.30976 0.309815 0.30989 0.309994 0.31013 0.310315 0.310539 
0.31048 0.305969 0.264708 0.266582 0.306989 0.311217 0.311216 0.310958 0.310738 
0.310562 0.310411 0.310285 0.310175 0.310082 0.310002 0.309934 0.309879 0.309835 
0.309803 0.309784 0.309777 0.309784 0.309806 0.309843 0.309901 0.309979 0.310086 
0.310224 0.310411 0.31064 0.310614 0.306343 0.265987 0.267808 0.307286 0.311282 
0.311252 0.310993 0.310775 0.3106 0.310452 0.310329 0.310221 0.310131 0.310054 
0.30999 0.309937 0.309897 0.309869 0.309853 0.309849 0.309859 0.309884 0.309924 
0.309985 0.310065 0.310175 0.310315 0.310504 0.310737 0.310743 0.306709 0.267276 
0.26905 0.307581 0.311348 0.311291 0.311031 0.310814 0.310642 0.310495 0.310374 
0.310269 0.310182 0.310107 0.310046 0.309996 0.309959 0.309934 0.309921 0.30992 
0.309933 0.30996 0.310004 0.310067 0.310149 0.310261 0.310403 0.310594 0.31083 
0.310867 0.307067 0.268574 0.270308 0.307875 0.311416 0.311332 0.311072 0.310856 
0.310685 0.31054 0.310421 0.310319 0.310233 0.310161 0.310103 0.310056 0.310021 
0.309999 0.309988 0.30999 0.310005 0.310036 0.310081 0.310146 0.310231 0.310345 
0.310488 0.310681 0.31092 0.310986 0.307416 0.269883 0.271581 0.308167 0.311484 
0.311374 0.311114 0.310899 0.31073 0.310587 0.31047 0.310369 0.310286 0.310216 
0.31016 0.310116 0.310084 0.310063 0.310055 0.31006 0.310077 0.31011 0.310157 
0.310225 0.310311 0.310426 0.310571 0.310765 0.311007 0.311101 0.307758 0.271201 
0.27287 0.308455 0.311553 0.311419 0.311158 0.310944 0.310776 0.310635 0.310519 
0.310421 0.31034 0.310272 0.310218 0.310176 0.310146 0.310128 0.310122 0.310129 
0.310148 0.310183 0.310232 0.310301 0.310389 0.310506 0.310652 0.310847 0.311092 
0.311212 0.308092 0.272531 0.274173 0.308741 0.311622 0.311465 0.311204 0.310991 
0.310824 0.310684 0.31057 0.310474 0.310394 0.310329 0.310276 0.310236 0.310208 