# vtk DataFile Version 5.1
vtk output
ASCII
DATASET UNSTRUCTURED_GRID
POINTS 4929 double
0.1016 1.5 0 0.1016 1.45 0 0.1016 1.4 0 
0.1016 1.35 0 0.1016 1.3 0 0.1016 1.25 0 
0.1016 1.2 0 0.1016 1.15 0 0.1016 1.1 0 
0.1016 1.05 0 0.1016 1 0 0.1016 0.95 0 
0.1016 0.9 0 0.1016 0.85 0 0.1016 0.8 0 
0.1016 0.75 0 0.1016 0.7 0 0.1016 0.65 0 
0.1016 0.6 0 0.1016 0.55 0 0.1016 0.5 0 
0.1016 0.45 0 0.1016 0.4 0 0.1016 0.35 0 
0.1016 0.3 0 0.1016 0.25 0 0.1016 0.2 0 
0.1016 0.15 0 0.1016 0.1 0 0.1016 0.05 0 
0.1016 0 0 5.08 1.5 0 5.08 1.45 0 
5.08 1.4 0 5.08 1.35 0 5.08 1.3 0 
5.08 1.25 0 5.08 1.2 0 5.08 1.15 0 
5.08 1.1 0 5.08 1.05 0 5.08 1 0 
5.08 0.95 0 5.08 0.9 0 5.08 0.85 0 
5.08 0.8 0 5.08 0.75 0 5.08 0.7 0 
5.08 0.65 0 5.08 0.6 0 5.08 0.55 0 
5.08 0.5 0 5.08 0.45 0 5.08 0.4 0 
5.08 0.35 0 5.08 0.3 0 5.08 0.25 0 
5.08 0.2 0 5.08 0.15 0 5.08 0.1 0 
5.08 0.05 0 5.08 0 0 0.12737462728 1.5 0 
0.12737462728 1.45 0 0.12737462728 1.4 0 0.12737462728 1.35 0 
0.12737462728 1.3 0 0.12737462728 1.25 0 0.12737462728 1.2 0 
0.12737462728 1.15 0 0.12737462728 1.1 0 0.12737462728 1.05 0 
0.12737462728 1 0 0.12737462728 0.95 0 0.12737462728 0.9 0 
0.12737462728 0.85 0 0.12737462728 0.8 0 0.12737462728 0.75 0 
0.12737462728 0.7 0 0.12737462728 0.65 0 0.12737462728 0.6 0 
0.12737462728 0.55 0 0.12737462728 0.5 0 0.12737462728 0.45 0 
0.12737462728 0.4 0 0.12737462728 0.35 0 0.12737462728 0.3 0 
0.12737462728 0.25 0 0.12737462728 0.2 0 0.12737462728 0.15 0 
0.12737462728 0.1 0 0.12737462728 0.05 0 0.12737462728 0 0 
0.15441581276 1.5 0 0.15441581276 1.45 0 0.15441581276 1.4 0 
0.15441581276 1.35 0 0.15441581276 1.3 0 0.15441581276 1.25 0 
0.15441581276 1.2 0 0.15441581276 1.15 0 0.15441581276 1.1 0 
0.15441581276 1.05 0 0.15441581276 1 0 0.15441581276 0.95 0 
0.15441581276 0.9 0 0.15441581276 0.85 0 0.15441581276 0.8 0 
0.15441581276 0.75 0 0.15441581276 0.7 0 0.15441581276 0.65 0 
0.15441581276 0.6 0 0.15441581276 0.55 0 0.15441581276 0.5 0 
0.15441581276 0.45 0 0.15441581276 0.4 0 0.15441581276 0.35 0 
0.15441581276 0.3 0 0.15441581276 0.25 0 0.15441581276 0.2 0 
0.15441581276 0.15 0 0.15441581276 0.1 0 0.15441581276 0.05 0 
0.15441581276 0 0 0.18278579477 1.5 0 0.18278579477 1.45 0 
0.18278579477 1.4 0 0.18278579477 1.35 0 0.18278579477 1.3 0 
0.18278579477 1.25 0 0.18278579477 1.2 0 0.18278579477 1.15 0 
0.18278579477 1.1 0 0.18278579477 1.05 0 0.18278579477 1 0 
0.18278579477 0.95 0 0.18278579477 0.9 0 0.18278579477 0.85 0 
0.18278579477 0.8 0 0.18278579477 0.75 0 0.18278579477 0.7 0 
0.18278579477 0.65 0 0.18278579477 0.6 0 0.18278579477 0.55 0 
0.18278579477 0.5 0 0.18278579477 0.45 0 0.18278579477 0.4 0 
0.18278579477 0.35 0 0.18278579477 0.3 0 0.18278579477 0.25 0 
0.18278579477 0.2 0 0.18278579477 0.15 0 0.18278579477 0.1 0 
0.18278579477 0.05 0 0.18278579477 0 0 0.21254987001 1.5 0 
0.21254987001 1.45 0 0.21254987001 1.4 0 0.21254987001 1.35 0 
0.21254987001 1.3 0 0.21254987001 1.25 0 0.21254987001 1.2 0 
0.21254987001 1.15 0 0.21254987001 1.1 0 0.21254987001 1.05 0 
0.21254987001 1 0 0.21254987001 0.95 0 0.21254987001 0.9 0 
0.21254987001 0.85 0 0.21254987001 0.8 0 0.21254987001 0.75 0 
0.21254987001 0.7 0 0.21254987001 0.65 0 0.21254987001 0.6 0 
0.21254987001 0.55 0 0.21254987001 0.5 0 0.21254987001 0.45 0 
0.21254987001 0.4 0 0.21254987001 0.35 0 0.21254987001 0.3 0 
0.21254987001 0.25 0 0.21254987001 0.2 0 0.21254987001 0.15 0 
0.21254987001 0.1 0 0.21254987001 0.05 0 0.21254987001 0 0 
0.24377654385 1.5 0 0.24377654385 1.45 0 0.24377654385 1.4 0 
0.24377654385 1.35 0 0.24377654385 1.3 0 0.24377654385 1.25 0 
0.24377654385 1.2 0 0.24377654385 1.15 0 0.24377654385 1.1 0 
0.24377654385 1.05 0 0.24377654385 1 0 0.24377654385 0.95 0 
0.24377654385 0.9 0 0.24377654385 0.85 0 0.24377654385 0.8 0 
0.24377654385 0.75 0 0.24377654385 0.7 0 0.24377654385 0.65 0 
0.24377654385 0.6 0 0.24377654385 0.55 0 0.24377654385 0.5 0 
0.24377654385 0.45 0 0.24377654385 0.4 0 0.24377654385 0.35 0 
0.24377654385 0.3 0 0.24377654385 0.25 0 0.24377654385 0.2 0 
0.24377654385 0.15 0 0.24377654385 0.1 0 0.24377654385 0.05 0 
0.24377654385 0 0 0.27653768798 1.5 0 0.27653768798 1.45 0 
0.27653768798 1.4 0 0.27653768798 1.35 0 0.27653768798 1.3 0 
0.27653768798 1.25 0 0.27653768798 1.2 0 0.27653768798 1.15 0 
0.27653768798 1.1 0 0.27653768798 1.05 0 0.27653768798 1 0 
0.27653768798 0.95 0 0.27653768798 0.9 0 0.27653768798 0.85 0 
0.27653768798 0.8 0 0.27653768798 0.75 0 0.27653768798 0.7 0 
0.27653768798 0.65 0 0.27653768798 0.6 0 0.27653768798 0.55 0 
0.27653768798 0.5 0 0.27653768798 0.45 0 0.27653768798 0.4 0 
0.27653768798 0.35 0 0.27653768798 0.3 0 0.27653768798 0.25 0 
0.27653768798 0.2 0 0.27653768798 0.15 0 0.27653768798 0.1 0 
0.27653768798 0.05 0 0.27653768798 0 0 0.31090870586 1.5 0 
0.31090870586 1.45 0 0.31090870586 1.4 0 0.31090870586 1.35 0 
0.31090870586 1.3 0 0.31090870586 1.25 0 0.31090870586 1.2 0 
0.31090870586 1.15 0 0.31090870586 1.1 0 0.31090870586 1.05 0 
0.31090870586 1 0 0.31090870586 0.95 0 0.31090870586 0.9 0 
0.31090870586 0.85 0 0.31090870586 0.8 0 0.31090870586 0.75 0 
0.31090870586 0.7 0 0.31090870586 0.65 0 0.31090870586 0.6 0 
0.31090870586 0.55 0 0.31090870586 0.5 0 0.31090870586 0.45 0 
0.31090870586 0.4 0 0.31090870586 0.35 0 0.31090870586 0.3 0 
0.31090870586 0.25 0 0.31090870586 0.2 0 0.31090870586 0.15 0 
0.31090870586 0.1 0 0.31090870586 0.05 0 0.31090870586 0 0 
0.34696870625 1.5 0 0.34696870625 1.45 0 0.34696870625 1.4 0 
0.34696870625 1.35 0 0.34696870625 1.3 0 0.34696870625 1.25 0 
0.34696870625 1.2 0 0.34696870625 1.15 0 0.34696870625 1.1 0 
0.34696870625 1.05 0 0.34696870625 1 0 0.34696870625 0.95 0 
0.34696870625 0.9 0 0.34696870625 0.85 0 0.34696870625 0.8 0 
0.34696870625 0.75 0 0.34696870625 0.7 0 0.34696870625 0.65 0 
0.34696870625 0.6 0 0.34696870625 0.55 0 0.34696870625 0.5 0 
0.34696870625 0.45 0 0.34696870625 0.4 0 0.34696870625 0.35 0 
0.34696870625 0.3 0 0.34696870625 0.25 0 0.34696870625 0.2 0 
0.34696870625 0.15 0 0.34696870625 0.1 0 0.34696870625 0.05 0 
0.34696870625 0 0 0.3848006853 1.5 0 0.3848006853 1.45 0 
0.3848006853 1.4 0 0.3848006853 1.35 0 0.3848006853 1.3 0 
0.3848006853 1.25 0 0.3848006853 1.2 0 0.3848006853 1.15 0 
0.3848006853 1.1 0 0.3848006853 1.05 0 0.3848006853 1 0 
0.3848006853 0.95 0 0.3848006853 0.9 0 0.3848006853 0.85 0 
0.3848006853 0.8 0 0.3848006853 0.75 0 0.3848006853 0.7 0 
0.3848006853 0.65 0 0.3848006853 0.6 0 0.3848006853 0.55 0 
0.3848006853 0.5 0 0.3848006853 0.45 0 0.3848006853 0.4 0 
0.3848006853 0.35 0 0.3848006853 0.3 0 0.3848006853 0.25 0 
0.3848006853 0.2 0 0.3848006853 0.15 0 0.3848006853 0.1 0 
0.3848006853 0.05 0 0.3848006853 0 0 0.42449171754 1.5 0 
0.42449171754 1.45 0 0.42449171754 1.4 0 0.42449171754 1.35 0 
0.42449171754 1.3 0 0.42449171754 1.25 0 0.42449171754 1.2 0 
0.42449171754 1.15 0 0.42449171754 1.1 0 0.42449171754 1.05 0 
0.42449171754 1 0 0.42449171754 0.95 0 0.42449171754 0.9 0 
0.42449171754 0.85 0 0.42449171754 0.8 0 0.42449171754 0.75 0 
0.42449171754 0.7 0 0.42449171754 0.65 0 0.42449171754 0.6 0 
0.42449171754 0.55 0 0.42449171754 0.5 0 0.42449171754 0.45 0 
0.42449171754 0.4 0 0.42449171754 0.35 0 0.42449171754 0.3 0 
0.42449171754 0.25 0 0.42449171754 0.2 0 0.42449171754 0.15 0 
0.42449171754 0.1 0 0.42449171754 0.05 0 0.42449171754 0 0 
0.46613315636 1.5 0 0.46613315636 1.45 0 0.46613315636 1.4 0 
0.46613315636 1.35 0 0.46613315636 1.3 0 0.46613315636 1.25 0 
0.46613315636 1.2 0 0.46613315636 1.15 0 0.46613315636 1.1 0 
0.46613315636 1.05 0 0.46613315636 1 0 0.46613315636 0.95 0 
0.46613315636 0.9 0 0.46613315636 0.85 0 0.46613315636 0.8 0 
0.46613315636 0.75 0 0.46613315636 0.7 0 0.46613315636 0.65 0 
0.46613315636 0.6 0 0.46613315636 0.55 0 0.46613315636 0.5 0 
0.46613315636 0.45 0 0.46613315636 0.4 0 0.46613315636 0.35 0 
0.46613315636 0.3 0 0.46613315636 0.25 0 0.46613315636 0.2 0 
0.46613315636 0.15 0 0.46613315636 0.1 0 0.46613315636 0.05 0 
0.46613315636 0 0 0.5098208442 1.5 0 0.5098208442 1.45 0 
0.5098208442 1.4 0 0.5098208442 1.35 0 0.5098208442 1.3 0 
0.5098208442 1.25 0 0.5098208442 1.2 0 0.5098208442 1.15 0 
0.5098208442 1.1 0 0.5098208442 1.05 0 0.5098208442 1 0 
0.5098208442 0.95 0 0.5098208442 0.9 0 0.5098208442 0.85 0 
0.5098208442 0.8 0 0.5098208442 0.75 0 0.5098208442 0.7 0 
0.5098208442 0.65 0 0.5098208442 0.6 0 0.5098208442 0.55 0 
0.5098208442 0.5 0 0.5098208442 0.45 0 0.5098208442 0.4 0 
0.5098208442 0.35 0 0.5098208442 0.3 0 0.5098208442 0.25 0 
0.5098208442 0.2 0 0.5098208442 0.15 0 0.5098208442 0.1 0 
0.5098208442 0.05 0 0.5098208442 0 0 0.55565533319 1.5 0 
0.55565533319 1.45 0 0.55565533319 1.4 0 0.55565533319 1.35 0 
0.55565533319 1.3 0 0.55565533319 1.25 0 0.55565533319 1.2 0 
0.55565533319 1.15 0 0.55565533319 1.1 0 0.55565533319 1.05 0 
0.55565533319 1 0 0.55565533319 0.95 0 0.55565533319 0.9 0 
0.55565533319 0.85 0 0.55565533319 0.8 0 0.55565533319 0.75 0 
0.55565533319 0.7 0 0.55565533319 0.65 0 0.55565533319 0.6 0 
0.55565533319 0.55 0 0.55565533319 0.5 0 0.55565533319 0.45 0 
0.55565533319 0.4 0 0.55565533319 0.35 0 0.55565533319 0.3 0 
0.55565533319 0.25 0 0.55565533319 0.2 0 0.55565533319 0.15 0 
0.55565533319 0.1 0 0.55565533319 0.05 0 0.55565533319 0 0 
0.60374211656 1.5 0 0.60374211656 1.45 0 0.60374211656 1.4 0 
0.60374211656 1.35 0 0.60374211656 1.3 0 0.60374211656 1.25 0 
0.60374211656 1.2 0 0.60374211656 1.15 0 0.60374211656 1.1 0 
0.60374211656 1.05 0 0.60374211656 1 0 0.60374211656 0.95 0 
0.60374211656 0.9 0 0.60374211656 0.85 0 0.60374211656 0.8 0 
0.60374211656 0.75 0 0.60374211656 0.7 0 0.60374211656 0.65 0 
0.60374211656 0.6 0 0.60374211656 0.55 0 0.60374211656 0.5 0 
0.60374211656 0.45 0 0.60374211656 0.4 0 0.60374211656 0.35 0 
0.60374211656 0.3 0 0.60374211656 0.25 0 0.60374211656 0.2 0 
0.60374211656 0.15 0 0.60374211656 0.1 0 0.60374211656 0.05 0 
0.60374211656 0 0 0.65419187143 1.5 0 0.65419187143 1.45 0 
0.65419187143 1.4 0 0.65419187143 1.35 0 0.65419187143 1.3 0 
0.65419187143 1.25 0 0.65419187143 1.2 0 0.65419187143 1.15 0 
[...]
CELL_DATA 4740
FIELD FieldData 7
B_Stress_n_p_m2 1 4740 float
0.140296 0.169359 0.171289 0.183454 0.188826 0.190958 0.191713 0.191737 0.191499 
0.191215 0.190968 0.190783 0.190658 0.190582 0.190547 0.190547 0.190582 0.190658 
0.190783 0.190968 0.191215 0.191499 0.191737 0.191713 0.190958 0.188826 0.183454 
0.171289 0.169359 0.140296 0.282062 0.0835916 0.143164 0.170533 0.181138 0.188513 
0.192551 0.194688 0.195759 0.196233 0.196402 0.196433 0.196411 0.196381 0.196362 
0.196362 0.196381 0.196411 0.196433 0.196402 0.196233 0.195759 0.194688 0.192551 
0.188513 0.181138 0.170533 0.143164 0.0835916 0.282062 0.177406 0.116387 0.147712 
0.167149 0.175996 0.181313 0.184201 0.185689 0.18642 0.186746 0.186872 0.186907 
0.186907 0.186898 0.186892 0.186892 0.186898 0.186907 0.186907 0.186872 0.186746 
0.18642 0.185689 0.184201 0.181313 0.175996 0.167149 0.147712 0.116387 0.177406 
0.155751 0.134774 0.151178 0.165419 0.173623 0.178745 0.181783 0.183524 0.184504 
0.185044 0.185338 0.185496 0.18558 0.185623 0.185641 0.185641 0.185623 0.18558 
0.185496 0.185338 0.185044 0.184504 0.183524 0.181783 0.178745 0.173623 0.165419 
0.151178 0.134774 0.155751 0.155977 0.144795 0.154346 0.164822 0.172107 0.177145 
0.180434 0.182516 0.183815 0.184617 0.185109 0.185409 0.18559 0.185692 0.185738 
0.185738 0.185692 0.18559 0.185409 0.185109 0.184617 0.183815 0.182516 0.180434 
0.177145 0.172107 0.164822 0.154346 0.144795 0.155977 0.155421 0.151482 0.157577 
0.165109 0.171186 0.175792 0.179056 0.181287 0.182783 0.183775 0.184425 0.184848 
0.185115 0.185272 0.185345 0.185345 0.185272 0.185115 0.184848 0.184425 0.183775 
0.182783 0.181287 0.179056 0.175792 0.171186 0.165109 0.157577 0.151482 0.155421 
0.155476 0.1557 0.160144 0.165734 0.170739 0.174818 0.177911 0.180163 0.181763 
0.182881 0.183651 0.184172 0.184513 0.184718 0.184815 0.184815 0.184718 0.184513 
0.184172 0.183651 0.182881 0.181763 0.180163 0.177911 0.174818 0.170739 0.165734 
0.160144 0.1557 0.155476 0.156615 0.158398 0.16203 0.166424 0.170597 0.174182 
0.17705 0.179248 0.180884 0.182077 0.182929 0.183525 0.183924 0.184169 0.184285 
0.184285 0.184169 0.183924 0.183525 0.182929 0.182077 0.180884 0.179248 0.17705 
0.174182 0.170597 0.166424 0.16203 0.158398 0.156615 0.158125 0.160312 0.163471 
0.167101 0.170641 0.173791 0.176418 0.178514 0.180134 0.181357 0.182258 0.182904 
0.183346 0.183621 0.183753 0.183753 0.183621 0.183346 0.182904 0.182258 0.181357 
0.180134 0.178514 0.176418 0.173791 0.170641 0.167101 0.163471 0.160312 0.158125 
0.159571 0.161802 0.164633 0.167742 0.170796 0.173577 0.175967 0.177934 0.179503 
0.18072 0.18164 0.182314 0.182783 0.183078 0.18322 0.18322 0.183078 0.182783 
0.182314 0.18164 0.18072 0.179503 0.177934 0.175967 0.173577 0.170796 0.167742 
0.164633 0.161802 0.159571 0.160824 0.163018 0.165602 0.168337 0.171017 0.173489 
0.175657 0.177486 0.17898 0.180166 0.181081 0.181763 0.182244 0.18255 0.182699 
0.182699 0.18255 0.182244 0.181763 0.181081 0.180166 0.17898 0.177486 0.175657 
0.173489 0.171017 0.168337 0.165602 0.163018 0.160824 0.161871 0.164026 0.166421 
0.16888 0.17127 0.173486 0.175456 0.177146 0.178553 0.17969 0.180582 0.181256 
0.181738 0.182047 0.182198 0.182198 0.182047 0.181738 0.181256 0.180582 0.17969 
0.178553 0.177146 0.175456 0.173486 0.17127 0.16888 0.166421 0.164026 0.161871 
0.162735 0.164863 0.167116 0.169367 0.171532 0.173539 0.175335 0.176894 0.178209 
0.179286 0.180143 0.180798 0.181269 0.181575 0.181724 0.181724 0.181575 0.181269 
0.180798 0.180143 0.179286 0.178209 0.176894 0.175335 0.173539 0.171532 0.169367 
0.167116 0.164863 0.162735 0.163446 0.165558 0.167704 0.169799 0.171788 0.173624 
0.175272 0.176711 0.177934 0.178947 0.17976 0.180387 0.180842 0.181138 0.181284 
0.181284 0.181138 0.180842 0.180387 0.17976 0.178947 0.177934 0.176711 0.175272 
0.173624 0.171788 0.169799 0.167704 0.165558 0.163446 0.164031 0.166132 0.168199 
0.170176 0.172028 0.173726 0.175247 0.176579 0.177717 0.178665 0.17943 0.180024 
0.180458 0.180741 0.180881 0.180881 0.180741 0.180458 0.180024 0.17943 0.178665 
0.177717 0.176579 0.175247 0.173726 0.172028 0.170176 0.168199 0.166132 0.164031 
0.164513 0.166607 0.168615 0.170502 0.172246 0.173833 0.175248 0.176487 0.177546 
0.178431 0.179148 0.179707 0.180116 0.180384 0.180517 0.180517 0.180384 0.180116 
0.179707 0.179148 0.178431 0.177546 0.176487 0.175248 0.173833 0.172246 0.170502 
0.168615 0.166607 0.164513 0.164909 0.166999 0.168963 0.170781 0.172441 0.173937 
0.175265 0.176423 0.177412 0.178238 0.178909 0.179432 0.179816 0.180068 0.180192 
0.180192 0.180068 0.179816 0.179432 0.178909 0.178238 0.177412 0.176423 0.175265 
0.173937 0.172441 0.170781 0.168963 0.166999 0.164909 0.165236 0.167322 0.169252 
0.171017 0.172611 0.174035 0.17529 0.176379 0.177306 0.17808 0.178707 0.179196 
0.179555 0.17979 0.179907 0.179907 0.17979 0.179555 0.179196 0.178707 0.17808 
0.177306 0.176379 0.17529 0.174035 0.172611 0.171017 0.169252 0.167322 0.165236 
0.165505 0.167588 0.169493 0.171216 0.172758 0.174124 0.175319 0.176349 0.177223 
0.177949 0.178536 0.178994 0.179329 0.179548 0.179657 0.179657 0.179548 0.179329 
0.178994 0.178536 0.177949 0.177223 0.176349 0.175319 0.174124 0.172758 0.171216 
0.169493 0.167588 0.165505 0.165727 0.167808 0.169693 0.171383 0.172884 0.174202 
0.175347 0.176329 0.177157 0.177841 0.178393 0.178821 0.179135 0.17934 0.179441 
0.179441 0.17934 0.179135 0.178821 0.178393 0.177841 0.177157 0.176329 0.175347 
0.174202 0.172884 0.171383 0.169693 0.167808 0.165727 0.165911 0.16799 0.169859 
0.171524 0.172991 0.17427 0.175374 0.176314 0.177103 0.177751 0.178272 0.178674 
0.178968 0.17916 0.179254 0.179254 0.17916 0.178968 0.178674 0.178272 0.177751 
0.177103 0.176314 0.175374 0.17427 0.172991 0.171524 0.169859 0.16799 0.165911 
0.166065 0.168142 0.169999 0.171642 0.173081 0.174329 0.175399 0.176304 0.177059 
0.177676 0.178169 0.178549 0.178825 0.179004 0.179093 0.179093 0.179004 0.178825 
0.178549 0.178169 0.177676 0.177059 0.176304 0.175399 0.174329 0.173081 0.171642 
0.169999 0.168142 0.166065 0.166195 0.16827 0.170116 0.171742 0.173158 0.174379 
0.17542 0.176296 0.177021 0.177612 0.178081 0.178441 0.178701 0.17887 0.178953 
0.178953 0.17887 0.178701 0.178441 0.178081 0.177612 0.177021 0.176296 0.17542 
0.174379 0.173158 0.171742 0.170116 0.16827 0.166195 0.166306 0.16838 0.170217 
0.171827 0.173224 0.174423 0.175439 0.176289 0.176989 0.177556 0.178004 0.178346 
0.178592 0.178752 0.17883 0.17883 0.178752 0.178592 0.178346 0.178004 0.177556 
0.176989 0.176289 0.175439 0.174423 0.173224 0.171827 0.170217 0.16838 0.166306 
0.166404 0.168475 0.170304 0.171902 0.173282 0.17446 0.175455 0.176282 0.17696 
0.177506 0.177936 0.178262 0.178496 0.178647 0.178721 0.178721 0.178647 0.178496 
0.178262 0.177936 0.177506 0.17696 0.176282 0.175455 0.17446 0.173282 0.171902 
0.170304 0.168475 0.166404 0.166492 0.168561 0.170383 0.171969 0.173333 0.174494 
0.175468 0.176275 0.176934 0.177461 0.177873 0.178185 0.178408 0.178551 0.178622 
0.178622 0.178551 0.178408 0.178185 0.177873 0.177461 0.176934 0.176275 0.175468 
0.174494 0.173333 0.171969 0.170383 0.168561 0.166492 0.166574 0.168641 0.170455 
0.17203 0.17338 0.174524 0.17548 0.176268 0.176908 0.177418 0.177815 0.178113 
0.178326 0.178462 0.178529 0.178529 0.178462 0.178326 0.178113 0.177815 0.177418 
0.176908 0.176268 0.17548 0.174524 0.17338 0.17203 0.170455 0.168641 0.166574 
0.166653 0.168717 0.170524 0.172088 0.173425 0.174552 0.175491 0.176261 0.176883 
0.177376 0.177758 0.178044 0.178247 0.178376 0.178439 0.178439 0.178376 0.178247 
0.178044 0.177758 0.177376 0.176883 0.176261 0.175491 0.174552 0.173425 0.172088 
0.170524 0.168717 0.166653 0.166731 0.168792 0.170592 0.172145 0.173468 0.17458 
0.175501 0.176253 0.176858 0.177334 0.177701 0.177975 0.178168 0.178292 0.178351 
0.178351 0.178292 0.178168 0.177975 0.177701 0.177334 0.176858 0.176253 0.175501 
0.17458 0.173468 0.172145 0.170592 0.168792 0.166731 0.16681 0.168868 0.170661 
0.172203 0.173512 0.174607 0.17551 0.176244 0.176831 0.177291 0.177644 0.177905 
0.178089 0.178206 0.178262 0.178262 0.178206 0.178089 0.177905 0.177644 0.177291 
0.176831 0.176244 0.17551 0.174607 0.173512 0.172203 0.170661 0.168868 0.16681 
0.166893 0.168948 0.170733 0.172263 0.173556 0.174634 0.175519 0.176235 0.176803 
0.177246 0.177584 0.177833 0.178007 0.178117 0.178171 0.178171 0.178117 0.178007 
0.177833 0.177584 0.177246 0.176803 0.176235 0.175519 0.174634 0.173556 0.172263 
0.170733 0.168948 0.166893 0.166981 0.169032 0.170809 0.172326 0.173603 0.174663 
0.175528 0.176224 0.176773 0.177199 0.177521 0.177757 0.177921 0.178025 0.178075 
0.178075 0.178025 0.177921 0.177757 0.177521 0.177199 0.176773 0.176224 0.175528 
0.174663 0.173603 0.172326 0.170809 0.169032 0.166981 0.167076 0.169123 0.170891 
0.172394 0.173654 0.174693 0.175537 0.176212 0.176741 0.177147 0.177453 0.177676 
0.17783 0.177926 0.177972 0.177972 0.177926 0.17783 0.177676 0.177453 0.177147 
0.176741 0.176212 0.175537 0.174693 0.173654 0.172394 0.170891 0.169123 0.167076 
0.16718 0.169223 0.17098 0.172467 0.173708 0.174726 0.175547 0.176198 0.176705 
0.177092 0.17738 0.177588 0.177731 0.17782 0.177863 0.177863 0.17782 0.177731 
0.177588 0.17738 0.177092 0.176705 0.176198 0.175547 0.174726 0.173708 0.172467 
0.17098 0.169223 0.16718 0.167295 0.169332 0.171077 0.172548 0.173767 0.174761 
0.175557 0.176182 0.176665 0.177031 0.1773 0.177493 0.177625 0.177706 0.177745 
0.177745 0.177706 0.177625 0.177493 0.1773 0.177031 0.176665 0.176182 0.175557 
0.174761 0.173767 0.172548 0.171077 0.169332 0.167295 0.167423 0.169454 0.171185 
0.172637 0.173832 0.174799 0.175566 0.176164 0.176622 0.176963 0.177213 0.17739 
0.177509 0.177582 0.177617 0.177617 0.177582 0.177509 0.17739 0.177213 0.176963 
0.176622 0.176164 0.175566 0.174799 0.173832 0.172637 0.171185 0.169454 0.167423 
0.167565 0.169589 0.171306 0.172735 0.173903 0.174839 0.175576 0.176144 0.176572 
0.176889 0.177117 0.177277 0.177383 0.177447 0.177478 0.177478 0.177447 0.177383 
0.177277 0.177117 0.176889 0.176572 0.176144 0.175576 0.174839 0.173903 0.172735 
0.171306 0.169589 0.167565 0.167725 0.169741 0.17144 0.172844 0.173981 0.174884 
0.175585 0.176119 0.176516 0.176806 0.177011 0.177152 0.177245 0.1773 0.177326 
0.177326 0.1773 0.177245 0.177152 0.177011 0.176806 0.176516 0.176119 0.175585 
0.174884 0.173981 0.172844 0.17144 0.169741 0.167725 0.167907 0.169913 0.171591 
0.172966 0.174067 0.174931 0.175593 0.17609 0.176453 0.176713 0.176893 0.177015 
0.177094 0.17714 0.177161 0.177161 0.17714 0.177094 0.177015 0.176893 0.176713 
0.176453 0.17609 0.175593 0.174931 0.174067 0.172966 0.171591 0.169913 0.167907 
0.168113 0.170108 0.171762 0.173102 0.174162 0.174981 0.175599 0.176054 0.17638 
0.176608 0.176763 0.176864 0.176928 0.176965 0.176981 0.176981 0.176965 0.176928 
0.176864 0.176763 0.176608 0.17638 0.176054 0.175599 0.174981 0.174162 0.173102 
0.171762 0.170108 0.168113 0.168349 0.17033 0.171955 0.173254 0.174266 0.175034 
0.175602 0.17601 0.176295 0.176489 0.176616 0.176697 0.176746 0.176773 0.176785 
0.176785 0.176773 0.176746 0.176697 0.176616 0.176489 0.176295 0.17601 0.175602 
0.175034 0.174266 0.173254 0.171955 0.17033 0.168349 0.168623 0.170587 0.172176 
0.173425 0.17438 0.175088 0.175599 0.175955 0.176196 0.176354 0.176453 0.176512 
0.176546 0.176564 0.176571 0.176571 0.176564 0.176546 0.176512 0.176453 0.176354 
0.176196 0.175955 0.175599 0.175088 0.17438 0.173425 0.172176 0.170587 0.168623 
0.168942 0.170884 0.172428 0.173617 0.174503 0.175142 0.175587 0.175886 0.17608 
0.176199 0.176269 0.176308 0.176327 0.176336 0.176339 0.176339 0.176336 0.176327 
0.176308 0.176269 0.176199 0.17608 0.175886 0.175587 0.175142 0.174503 0.173617 
0.172428 0.170884 0.168942 0.169319 0.171232 0.172719 0.173831 0.174634 0.17519 
0.175561 0.175798 0.175941 0.176022 0.176063 0.176082 0.176088 0.176088 0.176088 
0.176088 0.176088 0.176088 0.176082 0.176063 0.176022 0.175941 0.175798 0.175561 
0.17519 0.174634 0.173831 0.172719 0.171232 0.169319 0.169771 0.171644 0.173054 
0.174069 0.174767 0.175227 0.175514 0.175683 0.175775 0.175818 0.175833 0.175833 
0.175827 0.175821 0.175817 0.175817 0.175821 0.175827 0.175833 0.175833 0.175818 
0.175775 0.175683 0.175514 0.175227 0.174767 0.174069 0.173054 0.171644 0.169771 
0.170323 0.172138 0.17344 0.174325 0.174894 0.17524 0.175436 0.175535 0.175576 
0.175585 0.175577 0.175562 0.175548 0.175537 0.175531 0.175531 0.175537 0.175548 
0.175562 0.175577 0.175585 0.175576 0.175535 0.175436 0.17524 0.174894 0.174325 
0.17344 0.172138 0.170323 0.171021 0.172741 0.173882 0.174588 0.174996 0.175212 
0.175311 0.175343 0.175339 0.17532 0.175295 0.175271 0.175252 0.175239 0.175232 
0.175232 0.175239 0.175252 0.175271 0.175295 0.17532 0.175339 0.175343 0.175311 
0.175212 0.174996 0.174588 0.173882 0.172741 0.171021 0.171958 0.173491 0.174362 
0.174814 0.175023 0.175099 0.175108 0.175085 0.175052 0.175018 0.174987 0.174963 
0.174944 0.174932 0.174926 0.174926 0.174932 0.174944 0.174963 0.174987 0.175018 
0.175052 0.175085 0.175108 0.175099 0.175023 0.174814 0.174362 0.173491 0.171958 
0.173111 0.174213 0.174688 0.174865 0.174909 0.174897 0.174867 0.174832 0.174801 
0.174776 0.174755 0.17474 0.17473 0.174723 0.17472 0.17472 0.174723 0.17473 
0.17474 0.174755 0.174776 0.174801 0.174832 0.174867 0.174897 0.174909 0.174865 
0.174688 0.174213 0.173111 1239.03 2174.74 2356.18 2473.89 2531.51 2549.74 
2552.63 2549.25 2544.2 2539.59 2536.05 2533.61 2532.05 2531.16 2530.75 
2530.75 2531.16 2532.05 2533.61 2536.05 2539.59 2544.2 2549.25 2552.63 
2549.74 2531.51 2473.89 2356.18 2174.74 1239.03 985.909 1871.23 2126.92 
2245.52 2299.6 2315.77 2316.68 2312.03 2306.26 2301.25 2297.51 2294.96 
2293.35 2292.43 2292.02 2292.02 2292.43 2293.35 2294.96 2297.51 2301.25 
2306.26 2312.03 2316.68 2315.77 2299.6 2245.52 2126.92 1871.23 985.909 
923.534 1641.73 1920.45 2045.59 2099.12 2114.66 2114.74 2109.48 2103.36 
2098.15 2094.29 2091.68 2090.04 2089.1 2088.68 2088.68 2089.1 2090.04 
2091.68 2094.29 2098.15 2103.36 2109.48 2114.74 2114.66 2099.12 2045.59 
1920.45 1641.73 923.534 914.76 1486.84 1756.96 1882.02 1935.16 1951.2 
1951.73 1946.88 1941.09 1936.12 1932.42 1929.9 1928.31 1927.41 1927 
1927 1927.41 1928.31 1929.9 1932.42 1936.12 1941.09 1946.88 1951.73 
1951.2 1935.16 1882.02 1756.96 1486.84 914.76 897.059 1388.11 1630.99 
1747.33 1798.59 1815.48 1817.31 1813.61 1808.7 1804.32 1801 1798.71 
1797.25 1796.4 1796.02 1796.02 1796.4 1797.25 1798.71 1801 1804.32 
1808.7 1813.61 1817.31 1815.48 1798.59 1747.33 1630.99 1388.11 897.059 
847.083 1315.14 1528.33 1633.34 1682.51 1700.79 1704.6 1702.61 1698.95 
1695.41 1692.62 1690.63 1689.34 1688.58 1688.24 1688.24 1688.58 1689.34 
1690.63 1692.62 1695.41 1698.95 1702.61 1704.6 1700.79 1682.51 1633.34 
1528.33 1315.14 847.083 765.242 1245.54 1440.44 1539.19 1587.72 1607.93 
1614.01 1613.85 1611.49 1608.81 1606.53 1604.85 1603.72 1603.05 1602.74 
1602.74 1603.05 1603.72 1604.85 1606.53 1608.81 1611.49 1613.85 1614.01 
1607.93 1587.72 1539.19 1440.44 1245.54 765.242 747.193 1214.08 1384.79 
1483.74 1531.53 1552.13 1559.14 1559.75 1557.97 1555.67 1553.63 1552.09 
1551.04 1550.4 1550.1 1550.1 1550.4 1551.04 1552.09 1553.63 1555.67 
1557.97 1559.75 1559.14 1552.13 1531.53 1483.74 1384.79 1214.08 747.193 
0.360779 0.366401 0.371472 0.376025 0.380093 0.383703 0.386881 0.38965 0.39203 
0.394038 0.395689 0.396995 0.397966 0.39861 0.39893 0.39893 0.39861 0.397966 
0.396995 0.395689 0.394038 0.39203 0.38965 0.386881 0.383703 0.380093 0.376025 
0.371472 0.366401 0.360779 0.360564 0.366184 0.371252 0.375802 0.379865 0.383472 
0.386646 0.389412 0.391788 0.393793 0.395442 0.396746 0.397715 0.398357 0.398677 
0.398677 0.398357 0.397715 0.396746 0.395442 0.393793 0.391788 0.389412 0.386646 
0.383472 0.379865 0.375802 0.371252 0.366184 0.360564 0.36049 0.366108 0.371174 
0.375721 0.379782 0.383386 0.386558 0.38932 0.391694 0.393697 0.395343 0.396645 
0.397613 0.398255 0.398574 0.398574 0.398255 0.397613 0.396645 0.395343 0.393697 
0.391694 0.38932 0.386558 0.383386 0.379782 0.375721 0.371174 0.366108 0.36049 
0.360384 0.365999 0.371062 0.375606 0.379664 0.383264 0.386432 0.389192 0.391562 
0.393562 0.395206 0.396506 0.397472 0.398113 0.398431 0.398431 0.398113 0.397472 
0.396506 0.395206 0.393562 0.391562 0.389192 0.386432 0.383264 0.379664 0.375606 
0.371062 0.365999 0.360384 0.36029 0.365903 0.370963 0.375504 0.379559 0.383155 
0.38632 0.389076 0.391443 0.39344 0.395081 0.396379 0.397344 0.397983 0.398302 
0.398302 0.397983 0.397344 0.396379 0.395081 0.39344 0.391443 0.389076 0.38632 
0.383155 0.379559 0.375504 0.370963 0.365903 0.36029 0.360198 0.365808 0.370865 
0.375403 0.379454 0.383047 0.386208 0.38896 0.391325 0.393318 0.394957 0.396252 
0.397216 0.397854 0.398171 0.398171 0.397854 0.397216 0.396252 0.394957 0.393318 
0.391325 0.38896 0.386208 0.383047 0.379454 0.375403 0.370865 0.365808 0.360198 
0.360109 0.365717 0.370771 0.375306 0.379353 0.382942 0.3861 0.388848 0.391209 
0.393199 0.394835 0.396129 0.39709 0.397727 0.398044 0.398044 0.397727 0.39709 
0.396129 0.394835 0.393199 0.391209 0.388848 0.3861 0.382942 0.379353 0.375306 
0.370771 0.365717 0.360109 0.360024 0.365629 0.37068 0.375211 0.379255 0.38284 
0.385993 0.388738 0.391095 0.393082 0.394715 0.396006 0.396966 0.397602 0.397918 
0.397918 0.397602 0.396966 0.396006 0.394715 0.393082 0.391095 0.388738 0.385993 
0.38284 0.379255 0.375211 0.37068 0.365629 0.360024 0.359941 0.365544 0.370592 
0.37512 0.37916 0.382741 0.38589 0.388631 0.390984 0.392968 0.394598 0.395887 
0.396845 0.397479 0.397795 0.397795 0.397479 0.396845 0.395887 0.394598 0.392968 
0.390984 0.388631 0.38589 0.382741 0.37916 0.37512 0.370592 0.365544 0.359941 
0.359862 0.365463 0.370507 0.375031 0.379067 0.382644 0.385789 0.388525 0.390875 
0.392855 0.394482 0.395769 0.396725 0.397358 0.397674 0.397674 0.397358 0.396725 
0.395769 0.394482 0.392855 0.390875 0.388525 0.385789 0.382644 0.379067 0.375031 
0.370507 0.365463 0.359862 0.359786 0.365384 0.370426 0.374946 0.378977 0.38255 
0.38569 0.388422 0.390768 0.392745 0.394369 0.395653 0.396607 0.39724 0.397554 
0.397554 0.39724 0.396607 0.395653 0.394369 0.392745 0.390768 0.388422 0.38569 
0.38255 0.378977 0.374946 0.370426 0.365384 0.359786 0.359713 0.365309 0.370347 
0.374863 0.37889 0.382458 0.385594 0.388321 0.390663 0.392636 0.394257 0.395539 
0.396492 0.397123 0.397437 0.397437 0.397123 0.396492 0.395539 0.394257 0.392636 
0.390663 0.388321 0.385594 0.382458 0.37889 0.374863 0.370347 0.365309 0.359713 
0.359643 0.365236 0.370271 0.374783 0.378805 0.382368 0.385499 0.388222 0.39056 
0.392529 0.394148 0.395427 0.396378 0.397008 0.397322 0.397322 0.397008 0.396378 
0.395427 0.394148 0.392529 0.39056 0.388222 0.385499 0.382368 0.378805 0.374783 
0.370271 0.365236 0.359643 0.359576 0.365167 0.370198 0.374706 0.378723 0.382281 
0.385407 0.388125 0.390458 0.392424 0.39404 0.395317 0.396266 0.396895 0.397209 
0.397209 0.396895 0.396266 0.395317 0.39404 0.392424 0.390458 0.388125 0.385407 
0.382281 0.378723 0.374706 0.370198 0.365167 0.359576 0.359513 0.365101 0.370128 
0.374631 0.378644 0.382196 0.385317 0.38803 0.390359 0.392321 0.393934 0.395209 
0.396156 0.396784 0.397097 0.397097 0.396784 0.396156 0.395209 0.393934 0.392321 
0.390359 0.38803 0.385317 0.382196 0.378644 0.374631 0.370128 0.365101 0.359513 
0.359452 0.365038 0.370061 0.374559 0.378566 0.382113 0.385228 0.387936 0.390261 
0.392219 0.393829 0.395102 0.396048 0.396675 0.396988 0.396988 0.396675 0.396048 
0.395102 0.393829 0.392219 0.390261 0.387936 0.385228 0.382113 0.378566 0.374559 
0.370061 0.365038 0.359452 0.359395 0.364978 0.369997 0.37449 0.378491 0.382032 
0.385141 0.387844 0.390164 0.392119 0.393726 0.394997 0.395942 0.396568 0.396881 
0.396881 0.396568 0.395942 0.394997 0.393726 0.392119 0.390164 0.387844 0.385141 
0.382032 0.378491 0.37449 0.369997 0.364978 0.359395 0.359341 0.364921 0.369936 
0.374424 0.378419 0.381953 0.385056 0.387754 0.390069 0.39202 0.393624 0.394893 