# vtk DataFile Version 5.1
vtk output
ASCII
DATASET UNSTRUCTURED_GRID
POINTS 9536 double
-10.1 1.4499999993 0 -10.049999999 1.4499999993 0 -10.049999999 1.5 0 
-9.9999999985 1.4499999993 0 -9.9999999985 1.5 0 -9.9499999978 1.4499999993 0 
-9.9499999978 1.5 0 -9.899999997 1.4499999993 0 -9.899999997 1.5 0 
-9.8499999963 1.4499999993 0 -9.8499999963 1.5 0 -9.7999999955 1.4499999993 0 
-9.7999999955 1.5 0 -9.7499999948 1.4499999993 0 -9.7499999948 1.5 0 
-9.699999994 1.4499999993 0 -9.699999994 1.5 0 -9.6499999933 1.4499999993 0 
-9.6499999933 1.5 0 -9.5999999925 1.4499999993 0 -9.5999999925 1.5 0 
-9.5499999918 1.4499999993 0 -9.5499999918 1.5 0 -9.4999999911 1.4499999993 0 
-9.4999999911 1.5 0 -9.4499999903 1.4499999993 0 -9.4499999903 1.5 0 
-9.3999999896 1.4499999993 0 -9.3999999896 1.5 0 -9.3499999888 1.4499999993 0 
-9.3499999888 1.5 0 -9.2999999881 1.4499999993 0 -9.2999999881 1.5 0 
-9.2499999873 1.4499999993 0 -9.2499999873 1.5 0 -9.1999999866 1.4499999993 0 
-9.1999999866 1.5 0 -9.1499999858 1.4499999993 0 -9.1499999858 1.5 0 
-9.0999999851 1.4499999993 0 -9.0999999851 1.5 0 -9.0499999844 1.4499999993 0 
-9.0499999844 1.5 0 -8.9999999836 1.4499999993 0 -8.9999999836 1.5 0 
-8.9499999829 1.4499999993 0 -8.9499999829 1.5 0 -8.8999999821 1.4499999993 0 
-8.8999999821 1.5 0 -8.8499999814 1.4499999993 0 -8.8499999814 1.5 0 
-8.7999999806 1.4499999993 0 -8.7999999806 1.5 0 -8.7499999799 1.4499999993 0 
-8.7499999799 1.5 0 -8.6999999791 1.4499999993 0 -8.6999999791 1.5 0 
-8.6499999784 1.4499999993 0 -8.6499999784 1.5 0 -8.5999999776 1.4499999993 0 
-8.5999999776 1.5 0 -8.5499999769 1.4499999993 0 -8.5499999769 1.5 0 
-8.4999999762 1.4499999993 0 -8.4999999762 1.5 0 -8.4499999754 1.4499999993 0 
-8.4499999754 1.5 0 -8.3999999747 1.4499999993 0 -8.3999999747 1.5 0 
-8.3499999739 1.4499999993 0 -8.3499999739 1.5 0 -8.2999999732 1.4499999993 0 
-8.2999999732 1.5 0 -8.2499999724 1.4499999993 0 -8.2499999724 1.5 0 
-8.1999999717 1.4499999993 0 -8.1999999717 1.5 0 -8.1499999709 1.4499999993 0 
-8.1499999709 1.5 0 -8.0999999702 1.4499999993 0 -8.0999999702 1.5 0 
-8.0499999695 1.4499999993 0 -8.0499999695 1.5 0 -7.9999999687 1.4499999993 0 
-7.9999999687 1.5 0 -7.949999968 1.4499999993 0 -7.949999968 1.5 0 
-7.8999999672 1.4499999993 0 -7.8999999672 1.5 0 -7.8499999665 1.4499999993 0 
-7.8499999665 1.5 0 -7.7999999657 1.4499999993 0 -7.7999999657 1.5 0 
-7.749999965 1.4499999993 0 -7.749999965 1.5 0 -7.6999999642 1.4499999993 0 
-7.6999999642 1.5 0 -7.6499999635 1.4499999993 0 -7.6499999635 1.5 0 
-7.5999999627 1.4499999993 0 -7.5999999627 1.5 0 -7.549999962 1.4499999993 0 
-7.549999962 1.5 0 -7.4999999613 1.4499999993 0 -7.4999999613 1.5 0 
-7.4499999605 1.4499999993 0 -7.4499999605 1.5 0 -7.3999999598 1.4499999993 0 
-7.3999999598 1.5 0 -7.349999959 1.4499999993 0 -7.349999959 1.5 0 
-7.2999999583 1.4499999993 0 -7.2999999583 1.5 0 -7.2499999575 1.4499999993 0 
-7.2499999575 1.5 0 -7.1999999568 1.4499999993 0 -7.1999999568 1.5 0 
-7.149999956 1.4499999993 0 -7.149999956 1.5 0 -7.0999999553 1.4499999993 0 
-7.0999999553 1.5 0 -7.0499999546 1.4499999993 0 -7.0499999546 1.5 0 
-6.9999999538 1.4499999993 0 -6.9999999538 1.5 0 -6.9499999531 1.4499999993 0 
-6.9499999531 1.5 0 -6.8999999523 1.4499999993 0 -6.8999999523 1.5 0 
-6.8499999516 1.4499999993 0 -6.8499999516 1.5 0 -6.7999999508 1.4499999993 0 
-6.7999999508 1.5 0 -6.7499999501 1.4499999993 0 -6.7499999501 1.5 0 
-6.6999999493 1.4499999993 0 -6.6999999493 1.5 0 -6.6499999486 1.4499999993 0 
-6.6499999486 1.5 0 -6.5999999478 1.4499999993 0 -6.5999999478 1.5 0 
-6.5499999471 1.4499999993 0 -6.5499999471 1.5 0 -6.4999999464 1.4499999993 0 
-6.4999999464 1.5 0 -6.4499999456 1.4499999993 0 -6.4499999456 1.5 0 
-6.3999999449 1.4499999993 0 -6.3999999449 1.5 0 -6.3499999441 1.4499999993 0 
-6.3499999441 1.5 0 -6.2999999434 1.4499999993 0 -6.2999999434 1.5 0 
-6.2499999426 1.4499999993 0 -6.2499999426 1.5 0 -6.1999999419 1.4499999993 0 
-6.1999999419 1.5 0 -6.1499999411 1.4499999993 0 -6.1499999411 1.5 0 
-6.0999999404 1.4499999993 0 -6.0999999404 1.5 0 -6.0499999397 1.4499999993 0 
-6.0499999397 1.5 0 -5.9999999389 1.4499999993 0 -5.9999999389 1.5 0 
-5.9499999382 1.4499999993 0 -5.9499999382 1.5 0 -5.8999999374 1.4499999993 0 
-5.8999999374 1.5 0 -5.8499999367 1.4499999993 0 -5.8499999367 1.5 0 
-5.7999999359 1.4499999993 0 -5.7999999359 1.5 0 -5.7499999352 1.4499999993 0 
-5.7499999352 1.5 0 -5.6999999344 1.4499999993 0 -5.6999999344 1.5 0 
-5.6499999337 1.4499999993 0 -5.6499999337 1.5 0 -5.5999999329 1.4499999993 0 
-5.5999999329 1.5 0 -5.5499999322 1.4499999993 0 -5.5499999322 1.5 0 
-5.4999999315 1.4499999993 0 -5.4999999315 1.5 0 -5.4499999307 1.4499999993 0 
-5.4499999307 1.5 0 -5.39999993 1.4499999993 0 -5.39999993 1.5 0 
-5.3499999292 1.4499999993 0 -5.3499999292 1.5 0 -5.2999999285 1.4499999993 0 
-5.2999999285 1.5 0 -5.2499999277 1.4499999993 0 -5.2499999277 1.5 0 
-5.199999927 1.4499999993 0 -5.199999927 1.5 0 -5.1499999262 1.4499999993 0 
-5.1499999262 1.5 0 -5.0999999255 1.4499999993 0 -5.0999999255 1.5 0 
-5.0499999247 1.4499999993 0 -5.0499999247 1.5 0 -4.999999924 1.4499999993 0 
-4.999999924 1.5 0 -4.9499999233 1.4499999993 0 -4.9499999233 1.5 0 
-4.8999999225 1.4499999993 0 -4.8999999225 1.5 0 -4.8499999218 1.4499999993 0 
-4.8499999218 1.5 0 -4.799999921 1.4499999993 0 -4.799999921 1.5 0 
-4.7499999203 1.4499999993 0 -4.7499999203 1.5 0 -4.6999999195 1.4499999993 0 
-4.6999999195 1.5 0 -4.6499999188 1.4499999993 0 -4.6499999188 1.5 0 
-4.599999918 1.4499999993 0 -4.599999918 1.5 0 -4.5499999173 1.4499999993 0 
-4.5499999173 1.5 0 -4.4999999166 1.4499999993 0 -4.4999999166 1.5 0 
-4.4499999158 1.4499999993 0 -4.4499999158 1.5 0 -4.3999999151 1.4499999993 0 
-4.3999999151 1.5 0 -4.3499999143 1.4499999993 0 -4.3499999143 1.5 0 
-4.2999999136 1.4499999993 0 -4.2999999136 1.5 0 -4.2499999128 1.4499999993 0 
-4.2499999128 1.5 0 -4.1999999121 1.4499999993 0 -4.1999999121 1.5 0 
-4.1499999113 1.4499999993 0 -4.1499999113 1.5 0 -4.0999999106 1.4499999993 0 
-4.0999999106 1.5 0 -4.0499999098 1.4499999993 0 -4.0499999098 1.5 0 
-3.9999999091 1.4499999993 0 -3.9999999091 1.5 0 -3.9499999084 1.4499999993 0 
-3.9499999084 1.5 0 -3.8999999076 1.4499999993 0 -3.8999999076 1.5 0 
-3.8499999069 1.4499999993 0 -3.8499999069 1.5 0 -3.7999999061 1.4499999993 0 
-3.7999999061 1.5 0 -3.7499999054 1.4499999993 0 -3.7499999054 1.5 0 
-3.6999999046 1.4499999993 0 -3.6999999046 1.5 0 -3.6499999039 1.4499999993 0 
-3.6499999039 1.5 0 -3.5999999031 1.4499999993 0 -3.5999999031 1.5 0 
-3.5499999024 1.4499999993 0 -3.5499999024 1.5 0 -3.4999999017 1.4499999993 0 
-3.4999999017 1.5 0 -3.4499999009 1.4499999993 0 -3.4499999009 1.5 0 
-3.3999999002 1.4499999993 0 -3.3999999002 1.5 0 -3.3499998994 1.4499999993 0 
-3.3499998994 1.5 0 -3.2999998987 1.4499999993 0 -3.2999998987 1.5 0 
-3.2499998979 1.4499999993 0 -3.2499998979 1.5 0 -3.1999998972 1.4499999993 0 
-3.1999998972 1.5 0 -3.1499998964 1.4499999993 0 -3.1499998964 1.5 0 
-3.0999998957 1.4499999993 0 -3.0999998957 1.5 0 -3.0499998949 1.4499999993 0 
-3.0499998949 1.5 0 -2.9999998942 1.4499999993 0 -2.9999998942 1.5 0 
-2.9499998935 1.4499999993 0 -2.9499998935 1.5 0 -2.8999998927 1.4499999993 0 
-2.8999998927 1.5 0 -2.849999892 1.4499999993 0 -2.849999892 1.5 0 
-2.7999998912 1.4499999993 0 -2.7999998912 1.5 0 -2.7499998905 1.4499999993 0 
-2.7499998905 1.5 0 -2.6999998897 1.4499999993 0 -2.6999998897 1.5 0 
-2.649999889 1.4499999993 0 -2.649999889 1.5 0 -2.5999998882 1.4499999993 0 
-2.5999998882 1.5 0 -2.5499998875 1.4499999993 0 -2.5499998875 1.5 0 
-2.4999998868 1.4499999993 0 -2.4999998868 1.5 0 -2.449999886 1.4499999993 0 
-2.449999886 1.5 0 -2.3999998853 1.4499999993 0 -2.3999998853 1.5 0 
-2.3499998845 1.4499999993 0 -2.3499998845 1.5 0 -2.2999998838 1.4499999993 0 
-2.2999998838 1.5 0 -2.249999883 1.4499999993 0 -2.249999883 1.5 0 
-2.1999998823 1.4499999993 0 -2.1999998823 1.5 0 -2.1499998815 1.4499999993 0 
-2.1499998815 1.5 0 -2.0999998808 1.4499999993 0 -2.0999998808 1.5 0 
-2.04999988 1.4499999993 0 -2.04999988 1.5 0 -1.9999998793 1.4499999993 0 
-1.9999998793 1.5 0 -1.9499998786 1.4499999993 0 -1.9499998786 1.5 0 
-1.8999998778 1.4499999993 0 -1.8999998778 1.5 0 -1.8499998771 1.4499999993 0 
-1.8499998771 1.5 0 -1.7999998763 1.4499999993 0 -1.7999998763 1.5 0 
-1.7499998756 1.4499999993 0 -1.7499998756 1.5 0 -1.6999998748 1.4499999993 0 
-1.6999998748 1.5 0 -1.6499998741 1.4499999993 0 -1.6499998741 1.5 0 
-1.5999998733 1.4499999993 0 -1.5999998733 1.5 0 -1.5499998726 1.4499999993 0 
-1.5499998726 1.5 0 -1.4999998719 1.4499999993 0 -1.4999998719 1.5 0 
-1.4499998711 1.4499999993 0 -1.4499998711 1.5 0 -1.3999998704 1.4499999993 0 
-1.3999998704 1.5 0 -1.3499998696 1.4499999993 0 -1.3499998696 1.5 0 
-1.2999998689 1.4499999993 0 -1.2999998689 1.5 0 -1.2499998681 1.4499999993 0 
-1.2499998681 1.5 0 -1.1999998674 1.4499999993 0 -1.1999998674 1.5 0 
-1.1499998666 1.4499999993 0 -1.1499998666 1.5 0 -1.0999998659 1.4499999993 0 
-1.0999998659 1.5 0 -1.0499998651 1.4499999993 0 -1.0499998651 1.5 0 
-0.9999998644 1.4499999993 0 -0.9999998644 1.5 0 -0.94999986365 1.4499999993 0 
-0.94999986365 1.5 0 -0.89999986291 1.4499999993 0 -0.89999986291 1.5 0 
-0.84999986216 1.4499999993 0 -0.84999986216 1.5 0 -0.79999986142 1.4499999993 0 
-0.79999986142 1.5 0 -0.74999986067 1.4499999993 0 -0.74999986067 1.5 0 
-0.69999985993 1.4499999993 0 -0.69999985993 1.5 0 -0.64999985918 1.4499999993 0 
-0.64999985918 1.5 0 -0.59999985844 1.4499999993 0 -0.59999985844 1.5 0 
-0.54999985769 1.4499999993 0 -0.54999985769 1.5 0 -0.49999985695 1.4499999993 0 
-0.49999985695 1.5 0 -0.4499998562 1.4499999993 0 -0.4499998562 1.5 0 
-0.39999985546 1.4499999993 0 -0.39999985546 1.5 0 -0.34999985471 1.4499999993 0 
-0.34999985471 1.5 0 -0.29999985397 1.4499999993 0 -0.29999985397 1.5 0 
-0.24999985322 1.4499999993 0 -0.24999985322 1.5 0 -0.19999985248 1.4499999993 0 
-0.19999985248 1.5 0 -0.15611771322 1.4499999993 0 -0.12748126461 1.5 0 
[...]
CELL_DATA 9090
FIELD FieldData 4
Water_Depth_m 1 9090 float
0.339915 0.339736 0.33955 0.339361 0.339171 0.338984 0.338802 0.338626 0.338459 
0.3383 0.338151 0.338012 0.337882 0.337761 0.33765 0.337546 0.337451 0.337363 
0.337282 0.337207 0.337138 0.337076 0.337019 0.336968 0.336922 0.336883 0.336849 
0.336822 0.3368 0.336785 0.336777 0.336775 0.33678 0.336792 0.336811 0.336837 
0.33687 0.336911 0.336959 0.337014 0.337076 0.337146 0.337222 0.337305 0.337395 
0.337491 0.337592 0.337699 0.33781 0.337925 0.338044 0.338166 0.33829 0.338415 
0.338541 0.338667 0.338792 0.338916 0.339038 0.339156 0.33927 0.339381 0.339485 
0.339585 0.339677 0.339763 0.339841 0.339912 0.339973 0.340026 0.340068 0.340101 
0.340123 0.340134 0.340135 0.340123 0.3401 0.340064 0.340016 0.339956 0.339884 
0.3398 0.339705 0.339599 0.339483 0.33936 0.339231 0.339099 0.338965 0.338832 
0.338704 0.338583 0.338474 0.338378 0.338298 0.338237 0.338195 0.338174 0.338175 
0.338198 0.338242 0.338305 0.338385 0.33848 0.338589 0.338707 0.338832 0.338962 
0.339093 0.339222 0.339348 0.339468 0.339579 0.339681 0.339772 0.33985 0.339916 
0.339968 0.340008 0.340035 0.34005 0.340053 0.340047 0.340032 0.34001 0.339981 
0.339948 0.339912 0.339873 0.339835 0.339798 0.339762 0.339729 0.339699 0.339672 
0.339649 0.33963 0.339612 0.339597 0.339583 0.339569 0.339554 0.339539 0.339521 
0.339501 0.339477 0.339451 0.339422 0.33939 0.339355 0.339319 0.33928 0.339242 
0.339204 0.339168 0.339133 0.339101 0.339072 0.339046 0.339026 0.33901 0.338998 
0.33899 0.338988 0.33899 0.338996 0.339007 0.339022 0.339041 0.339064 0.339091 
0.339124 0.339162 0.339206 0.339257 0.339314 0.339381 0.339458 0.339548 0.339651 
0.339769 0.339904 0.34006 0.340237 0.34044 0.340671 0.340933 0.341224 0.341551 
0.341916 0.342319 0.342763 0.343251 0.343768 0.344333 0.344927 0.345564 0.34622 
0.346952 0.34891 0.349679 0.35156 0.352161 0.352707 0.353215 0.353684 0.354115 
0.354509 0.354867 0.355192 0.355485 0.35575 0.355989 0.356205 0.356399 0.356574 
0.356732 0.356875 0.357003 0.357119 0.357225 0.35732 0.357407 0.357485 0.357557 
0.357622 0.357682 0.357737 0.357787 0.357833 0.357876 0.357916 0.357952 0.357986 
0.358018 0.358048 0.358076 0.358102 0.358127 0.35815 0.358172 0.358194 0.358214 
0.358233 0.358252 0.35827 0.358287 0.358304 0.35832 0.358336 0.358351 0.358366 
0.358381 0.358395 0.35841 0.358424 0.358437 0.358451 0.358464 0.358478 0.358491 
0.358504 0.358517 0.358529 0.358542 0.358555 0.358567 0.35858 0.358592 0.358604 
0.358617 0.358629 0.358641 0.358654 0.358666 0.358678 0.35869 0.358702 0.358714 
0.358726 0.358738 0.35875 0.358762 0.358774 0.358786 0.358798 0.35881 0.358822 
0.358834 0.358846 0.358858 0.35887 0.358882 0.358893 0.358889 0.358872 0.357567 
0.355089 0.351892 0.339914 0.339733 0.339545 0.339354 0.339163 0.338975 0.338792 
0.338616 0.338448 0.33829 0.338141 0.338002 0.337873 0.337753 0.337642 0.33754 
0.337445 0.337357 0.337276 0.337202 0.337133 0.337071 0.337014 0.336963 0.336918 
0.336878 0.336844 0.336817 0.336795 0.33678 0.336771 0.336769 0.336774 0.336785 
0.336804 0.33683 0.336863 0.336903 0.336951 0.337006 0.337069 0.337138 0.337215 
0.337298 0.337388 0.337484 0.337585 0.337692 0.337804 0.337919 0.338039 0.338161 
0.338286 0.338412 0.338538 0.338665 0.338791 0.338916 0.339038 0.339157 0.339273 
0.339384 0.339489 0.339589 0.339683 0.33977 0.339849 0.33992 0.339982 0.340035 
0.340078 0.340112 0.340134 0.340146 0.340146 0.340134 0.340111 0.340075 0.340027 
0.339966 0.339893 0.339808 0.339711 0.339603 0.339486 0.339361 0.339229 0.339094 
0.338957 0.338822 0.338692 0.338569 0.338458 0.33836 0.338279 0.338217 0.338175 
0.338154 0.338156 0.338179 0.338224 0.338288 0.33837 0.338468 0.338578 0.338699 
0.338826 0.338959 0.339092 0.339224 0.339352 0.339474 0.339587 0.33969 0.339782 
0.339862 0.339928 0.339981 0.34002 0.340046 0.34006 0.340063 0.340056 0.340039 
0.340015 0.339985 0.339951 0.339913 0.339874 0.339834 0.339796 0.339759 0.339726 
0.339696 0.33967 0.339647 0.339627 0.33961 0.339596 0.339583 0.33957 0.339556 
0.339541 0.339523 0.339503 0.339481 0.339454 0.339425 0.339392 0.339356 0.339319 
0.339281 0.339242 0.339203 0.339165 0.33913 0.339097 0.339068 0.339043 0.339022 
0.339005 0.338993 0.338986 0.338984 0.338986 0.338993 0.339003 0.339018 0.339037 
0.339061 0.339088 0.339121 0.339157 0.3392 0.33925 0.339308 0.339374 0.33945 
0.339537 0.339637 0.339753 0.339887 0.340041 0.340216 0.340416 0.340642 0.340898 
0.341189 0.341513 0.341875 0.342275 0.342716 0.343195 0.34372 0.344281 0.344882 
0.34551 0.346167 0.346853 0.348936 0.349637 0.35158 0.352169 0.352719 0.35323 
0.353701 0.354134 0.354528 0.354886 0.355211 0.355503 0.355768 0.356006 0.35622 
0.356413 0.356587 0.356744 0.356886 0.357013 0.357129 0.357233 0.357327 0.357413 
0.357491 0.357562 0.357627 0.357686 0.357741 0.357791 0.357837 0.357879 0.357918 
0.357955 0.357988 0.35802 0.35805 0.358077 0.358103 0.358128 0.358151 0.358173 
0.358194 0.358215 0.358234 0.358252 0.35827 0.358288 0.358304 0.35832 0.358336 
0.358352 0.358367 0.358381 0.358396 0.35841 0.358424 0.358438 0.358451 0.358464 
0.358478 0.358491 0.358504 0.358517 0.358529 0.358542 0.358555 0.358567 0.35858 
0.358592 0.358604 0.358617 0.358629 0.358641 0.358654 0.358666 0.358678 0.35869 
0.358702 0.358714 0.358726 0.358738 0.35875 0.358762 0.358774 0.358786 0.358798 
0.35881 0.358822 0.358834 0.358846 0.358858 0.35887 0.358882 0.358893 0.358889 
0.358872 0.357567 0.355089 0.351892 0.339912 0.339726 0.339534 0.33934 0.339146 
0.338955 0.338771 0.338594 0.338426 0.338268 0.338121 0.337983 0.337856 0.337737 
0.337628 0.337526 0.337433 0.337346 0.337266 0.337192 0.337124 0.337062 0.337005 
0.336954 0.336908 0.336868 0.336834 0.336806 0.336784 0.336769 0.33676 0.336757 
0.336761 0.336772 0.336791 0.336816 0.336849 0.336889 0.336936 0.336991 0.337054 
0.337123 0.3372 0.337283 0.337373 0.337469 0.337571 0.337679 0.337791 0.337908 
0.338028 0.338151 0.338277 0.338405 0.338533 0.338661 0.338789 0.338915 0.339039 
0.33916 0.339277 0.339389 0.339497 0.339599 0.339694 0.339783 0.339863 0.339936 
0.339999 0.340054 0.340098 0.340133 0.340156 0.340168 0.340169 0.340157 0.340133 
0.340097 0.340048 0.339985 0.33991 0.339822 0.339723 0.339611 0.33949 0.339361 
0.339225 0.339085 0.338943 0.338803 0.338668 0.338541 0.338426 0.338325 0.338241 
0.338177 0.338134 0.338114 0.338116 0.338141 0.338187 0.338255 0.33834 0.338442 
0.338557 0.338682 0.338815 0.338952 0.339091 0.339228 0.33936 0.339486 0.339603 
0.33971 0.339804 0.339885 0.339952 0.340005 0.340044 0.340069 0.340082 0.340083 
0.340073 0.340054 0.340027 0.339994 0.339956 0.339916 0.339874 0.339832 0.339792 
0.339754 0.339719 0.339689 0.339663 0.33964 0.339622 0.339607 0.339594 0.339582 
0.339571 0.339559 0.339545 0.339528 0.339509 0.339487 0.33946 0.33943 0.339396 
0.33936 0.339321 0.339281 0.339241 0.3392 0.339161 0.339124 0.339091 0.33906 
0.339034 0.339013 0.338996 0.338984 0.338978 0.338976 0.338978 0.338985 0.338997 
0.339012 0.339031 0.339054 0.339081 0.339112 0.339149 0.33919 0.339238 0.339294 
0.339357 0.339431 0.339515 0.339612 0.339724 0.339853 0.340002 0.340171 0.340365 
0.340586 0.340835 0.341118 0.341435 0.341789 0.342183 0.342617 0.343092 0.34361 
0.344171 0.344771 0.345403 0.346067 0.346758 0.348887 0.349599 0.351586 0.352185 
0.352743 0.35326 0.353736 0.354172 0.354567 0.354926 0.355249 0.35554 0.355803 
0.356039 0.356251 0.356442 0.356614 0.356768 0.356907 0.357033 0.357147 0.357249 
0.357342 0.357427 0.357503 0.357573 0.357637 0.357695 0.357749 0.357798 0.357843 
0.357885 0.357923 0.357959 0.357993 0.358024 0.358053 0.35808 0.358106 0.35813 
0.358153 0.358175 0.358196 0.358216 0.358235 0.358254 0.358271 0.358289 0.358305 
0.358321 0.358337 0.358352 0.358367 0.358382 0.358396 0.35841 0.358424 0.358438 
0.358451 0.358465 0.358478 0.358491 0.358504 0.358517 0.35853 0.358542 0.358555 
0.358567 0.35858 0.358592 0.358605 0.358617 0.358629 0.358641 0.358654 0.358666 
0.358678 0.35869 0.358702 0.358714 0.358726 0.358738 0.35875 0.358762 0.358774 
0.358786 0.358798 0.35881 0.358822 0.358834 0.358846 0.358858 0.35887 0.358882 
0.358893 0.358889 0.358872 0.357567 0.355089 0.351892 0.339909 0.339716 0.339517 
0.339317 0.339119 0.338925 0.338739 0.338561 0.338393 0.338237 0.33809 0.337955 
0.337829 0.337713 0.337606 0.337507 0.337415 0.337329 0.33725 0.337177 0.33711 
0.337048 0.336991 0.33694 0.336894 0.336854 0.33682 0.336791 0.336769 0.336752 
0.336742 0.336739 0.336743 0.336753 0.336771 0.336795 0.336828 0.336867 0.336914 
0.336969 0.337031 0.3371 0.337177 0.33726 0.337351 0.337448 0.33755 0.337659 
0.337772 0.33789 0.338012 0.338137 0.338264 0.338394 0.338524 0.338655 0.338785 
0.338913 0.339039 0.339163 0.339283 0.339398 0.339508 0.339613 0.339711 0.339802 
0.339885 0.33996 0.340025 0.340082 0.340128 0.340164 0.340189 0.340202 0.340203 
0.340191 0.340167 0.340129 0.340079 0.340014 0.339936 0.339845 0.339741 0.339624 
0.339497 0.339361 0.339218 0.33907 0.338921 0.338774 0.338631 0.338498 0.338376 
0.338271 0.338183 0.338117 0.338073 0.338052 0.338055 0.338082 0.338132 0.338204 
0.338295 0.338402 0.338524 0.338657 0.338797 0.338942 0.339089 0.339233 0.339373 
0.339505 0.339628 0.339739 0.339837 0.339921 0.339989 0.340043 0.340081 0.340105 
0.340115 0.340112 0.340099 0.340075 0.340044 0.340006 0.339964 0.339919 0.339873 
0.339828 0.339785 0.339745 0.339709 0.339678 0.339652 0.339631 0.339614 0.339601 
0.33959 0.339581 0.339573 0.339563 0.339551 0.339537 0.339518 0.339496 0.339469 
0.339438 0.339403 0.339365 0.339324 0.339282 0.339239 0.339196 0.339155 0.339116 
0.33908 0.339049 0.339022 0.339 0.338983 0.338971 0.338965 0.338964 0.338967 
0.338975 0.338986 0.339002 0.339021 0.339043 0.33907 0.3391 0.339135 0.339175 
0.339221 0.339273 0.339333 0.339403 0.339483 0.339575 0.339681 0.339803 0.339944 
0.340105 0.34029 0.340501 0.340741 0.341012 0.341318 0.341661 0.342044 0.342468 
0.342935 0.343446 0.344003 0.344602 0.345239 0.345911 0.346614 0.348807 0.349542 
0.351595 0.35221 0.352781 0.353308 0.353791 0.35423 0.354627 0.354985 0.355307 
0.355596 0.355856 0.356088 0.356297 0.356484 0.356653 0.356804 0.35694 0.357063 
0.357174 0.357274 0.357364 0.357447 0.357521 0.35759 0.357652 0.357709 0.357761 
0.357809 0.357853 0.357894 0.357931 0.357966 0.357999 0.358029 0.358058 0.358085 
0.35811 0.358134 0.358157 0.358178 0.358199 0.358219 0.358238 0.358256 0.358273 
0.35829 0.358307 0.358323 0.358338 0.358353 0.358368 0.358383 0.358397 0.358411 
0.358425 0.358438 0.358452 0.358465 0.358478 0.358491 0.358504 0.358517 0.35853 
0.358542 0.358555 0.358568 0.35858 0.358592 0.358605 0.358617 0.358629 0.358642 
0.358654 0.358666 0.358678 0.35869 0.358702 0.358714 0.358726 0.358738 0.35875 
0.358762 0.358774 0.358786 0.358798 0.35881 0.358822 0.358834 0.358846 0.358858 
0.35887 0.358882 0.358893 0.358889 0.358872 0.357567 0.355089 0.351892 0.339904 
0.339701 0.339493 0.339286 0.339081 0.338883 0.338694 0.338516 0.338349 0.338194 
0.33805 0.337918 0.337795 0.337682 0.337578 0.337481 0.337392 0.337308 0.337231 
0.337159 0.337092 0.33703 0.336974 0.336922 0.336876 0.336836 0.336801 0.336771 
0.336748 0.336731 0.33672 0.336716 0.336718 0.336728 0.336744 0.336768 0.336799 
0.336838 0.336885 0.336939 0.337001 0.33707 0.337146 0.33723 0.337321 0.337419 
0.337523 0.337632 0.337747 0.337867 0.33799 0.338117 0.338247 0.338379 0.338512 
0.338646 0.338779 0.33891 0.33904 0.339167 0.33929 0.339409 0.339523 0.339631 
0.339732 0.339826 0.339913 0.339991 0.34006 0.340119 0.340168 0.340205 0.340232 
0.340246 0.340248 0.340236 0.340212 0.340173 0.34012 0.340053 0.339972 0.339875 
0.339765 0.339642 0.339507 0.339362 0.339209 0.339051 0.338891 0.338733 0.338581 
0.338438 0.338308 0.338196 0.338104 0.338034 0.337988 0.337967 0.337972 0.338002 
0.338057 0.338134 0.338232 0.338348 0.338479 0.338622 0.338773 0.338929 0.339086 
0.339241 0.339391 0.339532 0.339662 0.339779 0.339882 0.339969 0.34004 0.340094 
0.340131 0.340153 0.34016 0.340153 0.340134 0.340105 0.340067 0.340023 0.339974 
0.339923 0.339872 0.339822 0.339774 0.339731 0.339694 0.339662 0.339637 0.339617 
0.339603 0.339593 0.339586 0.339581 0.339575 0.339569 0.33956 0.339548 0.339531 
0.339509 0.339482 0.33945 0.339413 0.339372 0.339328 0.339282 0.339236 0.33919 
0.339145 0.339104 0.339066 0.339032 0.339004 0.338982 0.338965 0.338953 0.338948 
0.338947 0.338952 0.33896 0.338973 0.338989 0.339008 0.33903 0.339056 0.339085 
0.339118 0.339156 0.339198 0.339247 0.339303 0.339367 0.339441 0.339526 0.339624 
0.339737 0.339868 0.340019 0.340192 0.34039 0.340615 0.340872 0.341162 0.34149 
0.341857 0.342267 0.342722 0.343223 0.343773 0.344371 0.345013 0.345695 0.346414 
0.348694 0.349462 0.351608 0.352245 0.352834 0.353375 0.353866 0.35431 0.354709 
0.355066 0.355386 0.355671 0.355927 0.356155 0.356359 0.356541 0.356705 0.356852 
0.356983 0.357102 0.357209 0.357306 0.357394 0.357473 0.357545 0.357611 0.357671 
0.357726 0.357776 0.357823 0.357865 0.357905 0.357942 0.357976 0.358007 0.358037 
0.358065 0.358091 0.358116 0.358139 0.358161 0.358182 0.358202 0.358222 0.35824 
0.358258 0.358276 0.358292 0.358308 0.358324 0.35834 0.358355 0.358369 0.358384 
0.358398 0.358412 0.358426 0.358439 0.358453 0.358466 0.358479 0.358492 0.358505 
0.358517 0.35853 0.358543 0.358555 0.358568 0.35858 0.358593 0.358605 0.358617 
0.358629 0.358642 0.358654 0.358666 0.358678 0.35869 0.358702 0.358714 0.358726 
0.358739 0.358751 0.358763 0.358775 0.358786 0.358798 0.35881 0.358822 0.358834 
0.358846 0.358858 0.35887 0.358882 0.358893 0.358889 0.358872 0.357567 0.355089 
0.351892 0.339897 0.33968 0.339461 0.339244 0.339032 0.338829 0.338638 0.338459 
0.338293 0.338141 0.338001 0.337872 0.337754 0.337646 0.337545 0.337452 0.337365 
0.337284 0.337208 0.337137 0.337071 0.33701 0.336953 0.336902 0.336855 0.336814 
0.336778 0.336748 0.336723 0.336705 0.336693 0.336687 0.336688 0.336697 0.336712 
0.336735 0.336765 0.336803 0.336848 0.336902 0.336963 0.337032 0.337109 0.337193 
0.337284 0.337383 0.337488 0.337599 0.337715 0.337837 0.337963 0.338093 0.338225 
0.33836 0.338497 0.338634 0.338771 0.338907 0.33904 0.339172 0.339299 0.339422 
0.33954 0.339653 0.339758 0.339857 0.339947 0.340029 0.340102 0.340164 0.340216 
0.340257 0.340285 0.340301 0.340304 0.340293 0.340267 0.340228 0.340173 0.340102 
0.340016 0.339914 0.339796 0.339664 0.339519 0.339362 0.339197 0.339025 0.338852 
0.33868 0.338515 0.33836 0.33822 0.3381 0.338001 0.337927 0.337879 0.337859 
0.337866 0.3379 0.337961 0.338045 0.338152 0.338279 0.338422 0.338578 0.338743 
0.338913 0.339084 0.339252 0.339413 0.339566 0.339706 0.339831 0.33994 0.340032 
0.340105 0.340159 0.340196 0.340214 0.340217 0.340204 0.340178 0.340142 0.340096 
0.340043 0.339987 0.339928 0.339869 0.339812 0.33976 0.339713 0.339673 0.33964 
0.339616 0.339598 0.339587 0.339582 0.33958 0.33958 0.33958 0.339578 0.339573 
0.339564 0.339549 0.339527 0.3395 0.339466 0.339426 0.339382 0.339334 0.339284 
0.339232 0.339182 0.339133 0.339088 0.339047 0.339011 0.338981 0.338958 0.338941 
0.33893 0.338926 0.338927 0.338932 0.338942 0.338956 0.338973 0.338992 0.339015 
0.339039 0.339067 0.339098 0.339132 0.339171 0.339215 0.339265 0.339323 0.339389 
0.339466 0.339555 0.339657 0.339776 0.339913 0.340071 0.340253 0.340461 0.340698 
0.340969 0.341276 0.341624 0.342014 0.342452 0.342937 0.343477 0.34407 0.344715 
0.345409 0.34615 0.348543 0.349357 0.351626 0.352294 0.352907 0.353463 0.353965 
0.354414 0.354814 0.35517 0.355486 0.355766 0.356016 0.356238 0.356435 0.356612 
0.356769 0.35691 0.357037 0.357151 0.357253 0.357346 0.35743 0.357505 0.357574 
0.357637 0.357695 0.357747 0.357796 0.35784 0.357881 0.357919 0.357954 0.357987 
0.358017 0.358046 0.358073 0.358098 0.358122 0.358145 0.358167 0.358187 0.358207 
0.358226 0.358244 0.358261 0.358278 0.358295 0.358311 0.358326 0.358342 0.358356 
0.358371 0.358385 0.358399 0.358413 0.358427 0.35844 0.358453 0.358467 0.358479 
0.358492 0.358505 0.358518 0.358531 0.358543 0.358556 0.358568 0.35858 0.358593 
0.358605 0.358617 0.35863 0.358642 0.358654 0.358666 0.358678 0.35869 0.358702 
0.358714 0.358727 0.358739 0.358751 0.358763 0.358775 0.358787 0.358799 0.35881 
0.358822 0.358834 0.358846 0.358858 0.35887 0.358882 0.358893 0.358889 0.358872 
0.357567 0.355089 0.351892 0.339887 0.339653 0.33942 0.339191 0.338972 0.338764 
0.338571 0.338393 0.33823 0.338081 0.337946 0.337823 0.33771 0.337607 0.33751 
0.337421 0.337337 0.337258 0.337184 0.337114 0.337049 0.336988 0.336931 0.336879 
0.336832 0.33679 0.336753 0.336722 0.336696 0.336676 0.336662 0.336655 0.336655 
0.336661 0.336675 0.336697 0.336725 0.336762 0.336807 0.336859 0.33692 0.336988 
0.337065 0.337149 0.337241 0.33734 0.337446 0.337559 0.337677 0.337801 0.33793 
0.338063 0.338199 0.338338 0.338478 0.338619 0.338761 0.338901 0.33904 0.339176 
0.339309 0.339437 0.33956 0.339678 0.339789 0.339892 0.339987 0.340074 0.340151 
0.340218 0.340273 0.340317 0.340348 0.340366 0.34037 0.34036 0.340334 0.340293 
0.340236 0.340161 0.34007 0.33996 0.339834 0.339691 0.339534 0.339363 0.339181 
0.338993 0.338803 0.338614 0.338433 0.338263 0.33811 0.337979 0.337873 0.337794 
0.337745 0.337725 0.337735 0.337775 0.337842 0.337936 0.338054 0.338194 0.338352 
0.338524 0.338705 0.338892 0.33908 0.339265 0.339442 0.339608 0.33976 0.339895 
0.340012 0.340109 0.340185 0.34024 0.340275 0.34029 0.340286 0.340267 0.340232 
0.340186 0.34013 0.340067 0.34 0.339931 0.339863 0.339798 0.339739 0.339687 
0.339645 0.339611 0.339588 0.339574 0.339567 0.339568 0.339572 0.339579 0.339586 
0.33959 0.33959 0.339584 0.339572 0.339551 0.339523 0.339487 0.339444 0.339395 
0.339341 0.339285 0.339228 0.339171 0.339117 0.339067 0.339023 0.338984 0.338953 
0.338929 0.338912 0.338902 0.338899 0.338902 0.33891 0.338922 0.338937 0.338955 
0.338975 0.338997 0.339021 0.339047 0.339075 0.339106 0.339141 0.339179 0.339223 
0.339273 0.339331 0.339397 0.339475 0.339564 0.339668 0.33979 0.33993 0.340092 
0.340279 0.340494 0.34074 0.341021 0.341343 0.341708 0.342121 0.342586 0.343108 
0.343692 0.344337 0.345044 0.34581 0.348345 0.34922 0.351654 0.352361 0.353002 
0.353578 0.354091 0.354545 0.354945 0.355297 0.355608 0.355882 0.356124 0.356338 
0.356527 0.356696 0.356846 0.35698 0.3571 0.357208 0.357305 0.357393 0.357472 
0.357544 0.357609 0.357668 0.357723 0.357772 0.357818 0.35786 0.357899 0.357935 
0.357969 0.358 0.358029 0.358057 0.358083 0.358107 0.35813 0.358152 0.358173 
0.358193 0.358212 0.35823 0.358248 0.358265 0.358282 0.358298 0.358313 0.358329 
0.358344 0.358358 0.358373 0.358387 0.358401 0.358414 0.358428 0.358441 0.358454 
0.358467 0.35848 0.358493 0.358506 0.358518 0.358531 0.358544 0.358556 0.358568 
0.358581 0.358593 0.358605 0.358618 0.35863 0.358642 0.358654 0.358666 0.358678 
0.35869 0.358703 0.358715 0.358727 0.358739 0.358751 0.358763 0.358775 0.358787 
0.358799 0.358811 0.358822 0.358834 0.358846 0.358858 0.35887 0.358882 0.358893 
0.358889 0.358872 0.357567 0.355089 0.351892 0.339875 0.339622 0.339373 0.339133 
0.338906 0.338694 0.338501 0.338325 0.338166 0.338024 0.337894 0.337777 0.33767 
0.337571 0.337479 0.337392 0.337311 0.337234 0.337161 0.337092 0.337027 0.336966 
0.336909 0.336856 0.336808 0.336765 0.336727 0.336694 0.336667 0.336645 0.33663 
0.336621 0.336619 0.336624 0.336636 0.336656 0.336683 0.336718 0.336762 0.336813 
0.336873 0.336941 0.337017 0.337101 0.337193 0.337293 0.3374 0.337514 0.337634 
0.33776 0.337892 0.338028 0.338168 0.338311 0.338456 0.338602 0.338748 0.338894 
0.339038 0.33918 0.339318 0.339452 0.339582 0.339705 0.339822 0.339931 0.340032 
0.340124 0.340206 0.340278 0.340338 0.340386 0.34042 0.340441 0.340446 0.340437 
0.340411 0.340369 0.340309 0.34023 0.340132 0.340015 0.339879 0.339724 0.339551 
0.339363 0.339163 0.338955 0.338743 0.338533 0.338332 0.338144 0.337976 0.337832 
0.337718 0.337634 0.337583 0.337565 0.337579 0.337625 0.3377 0.337804 0.337936 
0.338092 0.338268 0.338459 0.338661 0.338868 0.339077 0.339281 0.339476 0.339659 
0.339825 0.339973 0.340099 0.340202 0.340281 0.340337 0.34037 0.34038 0.34037 