# vtk DataFile Version 5.1
vtk output
ASCII
DATASET UNSTRUCTURED_GRID
POINTS 10043 double
-10.1 1.4499999993 0 -10.049999999 1.4499999993 0 -10.049999999 1.5 0 
-9.9999999985 1.4499999993 0 -9.9999999985 1.5 0 -9.9499999978 1.4499999993 0 
-9.9499999978 1.5 0 -9.899999997 1.4499999993 0 -9.899999997 1.5 0 
-9.8499999963 1.4499999993 0 -9.8499999963 1.5 0 -9.7999999955 1.4499999993 0 
-9.7999999955 1.5 0 -9.7499999948 1.4499999993 0 -9.7499999948 1.5 0 
-9.699999994 1.4499999993 0 -9.699999994 1.5 0 -9.6499999933 1.4499999993 0 
-9.6499999933 1.5 0 -9.5999999925 1.4499999993 0 -9.5999999925 1.5 0 
-9.5499999918 1.4499999993 0 -9.5499999918 1.5 0 -9.4999999911 1.4499999993 0 
-9.4999999911 1.5 0 -9.4499999903 1.4499999993 0 -9.4499999903 1.5 0 
-9.3999999896 1.4499999993 0 -9.3999999896 1.5 0 -9.3499999888 1.4499999993 0 
-9.3499999888 1.5 0 -9.2999999881 1.4499999993 0 -9.2999999881 1.5 0 
-9.2499999873 1.4499999993 0 -9.2499999873 1.5 0 -9.1999999866 1.4499999993 0 
-9.1999999866 1.5 0 -9.1499999858 1.4499999993 0 -9.1499999858 1.5 0 
-9.0999999851 1.4499999993 0 -9.0999999851 1.5 0 -9.0499999844 1.4499999993 0 
-9.0499999844 1.5 0 -8.9999999836 1.4499999993 0 -8.9999999836 1.5 0 
-8.9499999829 1.4499999993 0 -8.9499999829 1.5 0 -8.8999999821 1.4499999993 0 
-8.8999999821 1.5 0 -8.8499999814 1.4499999993 0 -8.8499999814 1.5 0 
-8.7999999806 1.4499999993 0 -8.7999999806 1.5 0 -8.7499999799 1.4499999993 0 
-8.7499999799 1.5 0 -8.6999999791 1.4499999993 0 -8.6999999791 1.5 0 
-8.6499999784 1.4499999993 0 -8.6499999784 1.5 0 -8.5999999776 1.4499999993 0 
-8.5999999776 1.5 0 -8.5499999769 1.4499999993 0 -8.5499999769 1.5 0 
-8.4999999762 1.4499999993 0 -8.4999999762 1.5 0 -8.4499999754 1.4499999993 0 
-8.4499999754 1.5 0 -8.3999999747 1.4499999993 0 -8.3999999747 1.5 0 
-8.3499999739 1.4499999993 0 -8.3499999739 1.5 0 -8.2999999732 1.4499999993 0 
-8.2999999732 1.5 0 -8.2499999724 1.4499999993 0 -8.2499999724 1.5 0 
-8.1999999717 1.4499999993 0 -8.1999999717 1.5 0 -8.1499999709 1.4499999993 0 
-8.1499999709 1.5 0 -8.0999999702 1.4499999993 0 -8.0999999702 1.5 0 
-8.0499999695 1.4499999993 0 -8.0499999695 1.5 0 -7.9999999687 1.4499999993 0 
-7.9999999687 1.5 0 -7.949999968 1.4499999993 0 -7.949999968 1.5 0 
-7.8999999672 1.4499999993 0 -7.8999999672 1.5 0 -7.8499999665 1.4499999993 0 
-7.8499999665 1.5 0 -7.7999999657 1.4499999993 0 -7.7999999657 1.5 0 
-7.749999965 1.4499999993 0 -7.749999965 1.5 0 -7.6999999642 1.4499999993 0 
-7.6999999642 1.5 0 -7.6499999635 1.4499999993 0 -7.6499999635 1.5 0 
-7.5999999627 1.4499999993 0 -7.5999999627 1.5 0 -7.549999962 1.4499999993 0 
-7.549999962 1.5 0 -7.4999999613 1.4499999993 0 -7.4999999613 1.5 0 
-7.4499999605 1.4499999993 0 -7.4499999605 1.5 0 -7.3999999598 1.4499999993 0 
-7.3999999598 1.5 0 -7.349999959 1.4499999993 0 -7.349999959 1.5 0 
-7.2999999583 1.4499999993 0 -7.2999999583 1.5 0 -7.2499999575 1.4499999993 0 
-7.2499999575 1.5 0 -7.1999999568 1.4499999993 0 -7.1999999568 1.5 0 
-7.149999956 1.4499999993 0 -7.149999956 1.5 0 -7.0999999553 1.4499999993 0 
-7.0999999553 1.5 0 -7.0499999546 1.4499999993 0 -7.0499999546 1.5 0 
-6.9999999538 1.4499999993 0 -6.9999999538 1.5 0 -6.9499999531 1.4499999993 0 
-6.9499999531 1.5 0 -6.8999999523 1.4499999993 0 -6.8999999523 1.5 0 
-6.8499999516 1.4499999993 0 -6.8499999516 1.5 0 -6.7999999508 1.4499999993 0 
-6.7999999508 1.5 0 -6.7499999501 1.4499999993 0 -6.7499999501 1.5 0 
-6.6999999493 1.4499999993 0 -6.6999999493 1.5 0 -6.6499999486 1.4499999993 0 
-6.6499999486 1.5 0 -6.5999999478 1.4499999993 0 -6.5999999478 1.5 0 
-6.5499999471 1.4499999993 0 -6.5499999471 1.5 0 -6.4999999464 1.4499999993 0 
-6.4999999464 1.5 0 -6.4499999456 1.4499999993 0 -6.4499999456 1.5 0 
-6.3999999449 1.4499999993 0 -6.3999999449 1.5 0 -6.3499999441 1.4499999993 0 
-6.3499999441 1.5 0 -6.2999999434 1.4499999993 0 -6.2999999434 1.5 0 
-6.2499999426 1.4499999993 0 -6.2499999426 1.5 0 -6.1999999419 1.4499999993 0 
-6.1999999419 1.5 0 -6.1499999411 1.4499999993 0 -6.1499999411 1.5 0 
-6.0999999404 1.4499999993 0 -6.0999999404 1.5 0 -6.0499999397 1.4499999993 0 
-6.0499999397 1.5 0 -5.9999999389 1.4499999993 0 -5.9999999389 1.5 0 
-5.9499999382 1.4499999993 0 -5.9499999382 1.5 0 -5.8999999374 1.4499999993 0 
-5.8999999374 1.5 0 -5.8499999367 1.4499999993 0 -5.8499999367 1.5 0 
-5.7999999359 1.4499999993 0 -5.7999999359 1.5 0 -5.7499999352 1.4499999993 0 
-5.7499999352 1.5 0 -5.6999999344 1.4499999993 0 -5.6999999344 1.5 0 
-5.6499999337 1.4499999993 0 -5.6499999337 1.5 0 -5.5999999329 1.4499999993 0 
-5.5999999329 1.5 0 -5.5499999322 1.4499999993 0 -5.5499999322 1.5 0 
-5.4999999315 1.4499999993 0 -5.4999999315 1.5 0 -5.4499999307 1.4499999993 0 
-5.4499999307 1.5 0 -5.39999993 1.4499999993 0 -5.39999993 1.5 0 
-5.3499999292 1.4499999993 0 -5.3499999292 1.5 0 -5.2999999285 1.4499999993 0 
-5.2999999285 1.5 0 -5.2499999277 1.4499999993 0 -5.2499999277 1.5 0 
-5.199999927 1.4499999993 0 -5.199999927 1.5 0 -5.1499999262 1.4499999993 0 
-5.1499999262 1.5 0 -5.0999999255 1.4499999993 0 -5.0999999255 1.5 0 
-5.0499999247 1.4499999993 0 -5.0499999247 1.5 0 -4.999999924 1.4499999993 0 
-4.999999924 1.5 0 -4.9499999233 1.4499999993 0 -4.9499999233 1.5 0 
-4.8999999225 1.4499999993 0 -4.8999999225 1.5 0 -4.8499999218 1.4499999993 0 
-4.8499999218 1.5 0 -4.799999921 1.4499999993 0 -4.799999921 1.5 0 
-4.7499999203 1.4499999993 0 -4.7499999203 1.5 0 -4.6999999195 1.4499999993 0 
-4.6999999195 1.5 0 -4.6499999188 1.4499999993 0 -4.6499999188 1.5 0 
-4.599999918 1.4499999993 0 -4.599999918 1.5 0 -4.5499999173 1.4499999993 0 
-4.5499999173 1.5 0 -4.4999999166 1.4499999993 0 -4.4999999166 1.5 0 
-4.4499999158 1.4499999993 0 -4.4499999158 1.5 0 -4.3999999151 1.4499999993 0 
-4.3999999151 1.5 0 -4.3499999143 1.4499999993 0 -4.3499999143 1.5 0 
-4.2999999136 1.4499999993 0 -4.2999999136 1.5 0 -4.2499999128 1.4499999993 0 
-4.2499999128 1.5 0 -4.1999999121 1.4499999993 0 -4.1999999121 1.5 0 
-4.1499999113 1.4499999993 0 -4.1499999113 1.5 0 -4.0999999106 1.4499999993 0 
-4.0999999106 1.5 0 -4.0499999098 1.4499999993 0 -4.0499999098 1.5 0 
-3.9999999091 1.4499999993 0 -3.9999999091 1.5 0 -3.9499999084 1.4499999993 0 
-3.9499999084 1.5 0 -3.8999999076 1.4499999993 0 -3.8999999076 1.5 0 
-3.8499999069 1.4499999993 0 -3.8499999069 1.5 0 -3.7999999061 1.4499999993 0 
-3.7999999061 1.5 0 -3.7499999054 1.4499999993 0 -3.7499999054 1.5 0 
-3.6999999046 1.4499999993 0 -3.6999999046 1.5 0 -3.6499999039 1.4499999993 0 
-3.6499999039 1.5 0 -3.5999999031 1.4499999993 0 -3.5999999031 1.5 0 
-3.5499999024 1.4499999993 0 -3.5499999024 1.5 0 -3.4999999017 1.4499999993 0 
-3.4999999017 1.5 0 -3.4499999009 1.4499999993 0 -3.4499999009 1.5 0 
-3.3999999002 1.4499999993 0 -3.3999999002 1.5 0 -3.3499998994 1.4499999993 0 
-3.3499998994 1.5 0 -3.2999998987 1.4499999993 0 -3.2999998987 1.5 0 
-3.2499998979 1.4499999993 0 -3.2499998979 1.5 0 -3.1999998972 1.4499999993 0 
-3.1999998972 1.5 0 -3.1499998964 1.4499999993 0 -3.1499998964 1.5 0 
-3.0999998957 1.4499999993 0 -3.0999998957 1.5 0 -3.0499998949 1.4499999993 0 
-3.0499998949 1.5 0 -2.9999998942 1.4499999993 0 -2.9999998942 1.5 0 
-2.9499998935 1.4499999993 0 -2.9499998935 1.5 0 -2.8999998927 1.4499999993 0 
-2.8999998927 1.5 0 -2.849999892 1.4499999993 0 -2.849999892 1.5 0 
-2.7999998912 1.4499999993 0 -2.7999998912 1.5 0 -2.7499998905 1.4499999993 0 
-2.7499998905 1.5 0 -2.6999998897 1.4499999993 0 -2.6999998897 1.5 0 
-2.649999889 1.4499999993 0 -2.649999889 1.5 0 -2.5999998882 1.4499999993 0 
-2.5999998882 1.5 0 -2.5499998875 1.4499999993 0 -2.5499998875 1.5 0 
-2.4999998868 1.4499999993 0 -2.4999998868 1.5 0 -2.449999886 1.4499999993 0 
-2.449999886 1.5 0 -2.3999998853 1.4499999993 0 -2.3999998853 1.5 0 
-2.3499998845 1.4499999993 0 -2.3499998845 1.5 0 -2.2999998838 1.4499999993 0 
-2.2999998838 1.5 0 -2.249999883 1.4499999993 0 -2.249999883 1.5 0 
-2.1999998823 1.4499999993 0 -2.1999998823 1.5 0 -2.1499998815 1.4499999993 0 
-2.1499998815 1.5 0 -2.0999998808 1.4499999993 0 -2.0999998808 1.5 0 
-2.04999988 1.4499999993 0 -2.04999988 1.5 0 -1.9999998793 1.4499999993 0 
-1.9999998793 1.5 0 -1.9499998786 1.4499999993 0 -1.9499998786 1.5 0 
-1.8999998778 1.4499999993 0 -1.8999998778 1.5 0 -1.8499998771 1.4499999993 0 
-1.8499998771 1.5 0 -1.7999998763 1.4499999993 0 -1.7999998763 1.5 0 
-1.7499998756 1.4499999993 0 -1.7499998756 1.5 0 -1.6999998748 1.4499999993 0 
-1.6999998748 1.5 0 -1.6499998741 1.4499999993 0 -1.6499998741 1.5 0 
-1.5999998733 1.4499999993 0 -1.5999998733 1.5 0 -1.5499998726 1.4499999993 0 
-1.5499998726 1.5 0 -1.4999998718 1.4499999993 0 -1.4999998718 1.5 0 
-1.4499998711 1.4499999993 0 -1.4499998711 1.5 0 -1.3999998704 1.4499999993 0 
-1.3999998704 1.5 0 -1.3499998696 1.4499999993 0 -1.3499998696 1.5 0 
-1.2999998689 1.4499999993 0 -1.2999998689 1.5 0 -1.2499998681 1.4499999993 0 
-1.2499998681 1.5 0 -1.1999998674 1.4499999993 0 -1.1999998674 1.5 0 
-1.1499998666 1.4499999993 0 -1.1499998666 1.5 0 -1.0999998659 1.4499999993 0 
-1.0999998659 1.5 0 -1.0499998651 1.4499999993 0 -1.0499998651 1.5 0 
-0.9999998644 1.4499999993 0 -0.9999998644 1.5 0 -0.94999986365 1.4499999993 0 
-0.94999986365 1.5 0 -0.89999986291 1.4499999993 0 -0.89999986291 1.5 0 
-0.84999986216 1.4499999993 0 -0.84999986216 1.5 0 -0.79999986142 1.4499999993 0 
-0.79999986142 1.5 0 -0.74999986067 1.4499999993 0 -0.74999986067 1.5 0 
-0.69999985993 1.4499999993 0 -0.69999985993 1.5 0 -0.64999985918 1.4499999993 0 
-0.64999985918 1.5 0 -0.59999985844 1.4499999993 0 -0.59999985844 1.5 0 
-0.54999985769 1.4499999993 0 -0.54999985769 1.5 0 -0.49999985695 1.4499999993 0 
-0.49999985695 1.5 0 -0.4499998562 1.4499999993 0 -0.4499998562 1.5 0 
-0.39999985546 1.4499999993 0 -0.39999985546 1.5 0 -0.34999985471 1.4499999993 0 
-0.34999985471 1.5 0 -0.29999985397 1.4499999993 0 -0.29999985397 1.5 0 
-0.24999985322 1.4499999993 0 -0.24999985322 1.5 0 -0.191663057 1.4499999993 0 
-0.17548248559 1.5 0 0.18862900414 1.4499999993 0 0.25000015423 1.4499999993 0 
[...]
CELL_DATA 9510
FIELD FieldData 4
Water_Depth_m 1 9510 float
0.260008 0.260023 0.260038 0.260054 0.260069 0.260085 0.2601 0.260115 0.260131 
0.260146 0.260161 0.260177 0.260192 0.260207 0.260223 0.260238 0.260253 0.260269 
0.260284 0.2603 0.260315 0.26033 0.260345 0.260361 0.260376 0.260391 0.260407 
0.260422 0.260437 0.260453 0.260468 0.260483 0.260498 0.260514 0.260529 0.260544 
0.26056 0.260575 0.26059 0.260605 0.260621 0.260636 0.260651 0.260666 0.260682 
0.260697 0.260712 0.260727 0.260743 0.260758 0.260773 0.260788 0.260804 0.260819 
0.260834 0.260849 0.260864 0.26088 0.260895 0.26091 0.260925 0.26094 0.260956 
0.260971 0.260986 0.261001 0.261016 0.261032 0.261047 0.261062 0.261077 0.261092 
0.261107 0.261123 0.261138 0.261153 0.261168 0.261183 0.261198 0.261213 0.261229 
0.261244 0.261259 0.261274 0.261289 0.261304 0.261319 0.261334 0.26135 0.261365 
0.26138 0.261395 0.26141 0.261425 0.26144 0.261455 0.26147 0.261485 0.261501 
0.261516 0.261531 0.261546 0.261561 0.261576 0.261591 0.261606 0.261621 0.261636 
0.261651 0.261666 0.261681 0.261696 0.261711 0.261726 0.261741 0.261757 0.261772 
0.261787 0.261802 0.261817 0.261832 0.261847 0.261862 0.261877 0.261892 0.261907 
0.261922 0.261937 0.261952 0.261967 0.261982 0.261997 0.262012 0.262027 0.262042 
0.262057 0.262072 0.262086 0.262101 0.262116 0.262131 0.262146 0.262161 0.262176 
0.262191 0.262206 0.262221 0.262236 0.262251 0.262266 0.262281 0.262296 0.262311 
0.262326 0.26234 0.262355 0.26237 0.262385 0.2624 0.262415 0.26243 0.262445 
0.26246 0.262475 0.26249 0.262504 0.262519 0.262534 0.262549 0.262564 0.262579 
0.262594 0.262609 0.262624 0.262639 0.262654 0.262669 0.262684 0.262698 0.262713 
0.262729 0.262743 0.262758 0.262774 0.262789 0.262804 0.26282 0.262836 0.26285 
0.262867 0.262885 0.262902 0.26292 0.26295 0.262996 0.263049 0.263253 0.264066 
0.439015 0.438995 0.438987 0.438983 0.438982 0.438981 0.438982 0.438983 0.438984 
0.438986 0.438988 0.43899 0.438992 0.438994 0.438996 0.438999 0.439001 0.439003 
0.439006 0.439008 0.43901 0.439013 0.439015 0.439018 0.43902 0.439023 0.439025 
0.439028 0.43903 0.439033 0.439035 0.439038 0.439041 0.439043 0.439046 0.439048 
0.439051 0.439053 0.439056 0.439058 0.439061 0.439064 0.439066 0.439069 0.439071 
0.439074 0.439076 0.439079 0.439082 0.439084 0.439087 0.439089 0.439092 0.439094 
0.439097 0.4391 0.439102 0.439105 0.439107 0.43911 0.439113 0.439115 0.439118 
0.43912 0.439123 0.439125 0.439128 0.439131 0.439133 0.439136 0.439138 0.439141 
0.439143 0.439146 0.439149 0.439151 0.439154 0.439156 0.439159 0.439162 0.439164 
0.439167 0.439169 0.439172 0.439174 0.439177 0.43918 0.439182 0.439185 0.439187 
0.43919 0.439192 0.439194 0.439183 0.439052 0.437021 0.433091 0.260008 0.260023 
0.260038 0.260054 0.260069 0.260085 0.2601 0.260115 0.260131 0.260146 0.260161 
0.260177 0.260192 0.260207 0.260223 0.260238 0.260253 0.260269 0.260284 0.2603 
0.260315 0.26033 0.260345 0.260361 0.260376 0.260391 0.260407 0.260422 0.260437 
0.260453 0.260468 0.260483 0.260498 0.260514 0.260529 0.260544 0.26056 0.260575 
0.26059 0.260605 0.260621 0.260636 0.260651 0.260666 0.260682 0.260697 0.260712 
0.260727 0.260743 0.260758 0.260773 0.260788 0.260804 0.260819 0.260834 0.260849 
0.260864 0.26088 0.260895 0.26091 0.260925 0.26094 0.260956 0.260971 0.260986 
0.261001 0.261016 0.261032 0.261047 0.261062 0.261077 0.261092 0.261107 0.261123 
0.261138 0.261153 0.261168 0.261183 0.261198 0.261213 0.261229 0.261244 0.261259 
0.261274 0.261289 0.261304 0.261319 0.261334 0.26135 0.261365 0.26138 0.261395 
0.26141 0.261425 0.26144 0.261455 0.26147 0.261485 0.261501 0.261516 0.261531 
0.261546 0.261561 0.261576 0.261591 0.261606 0.261621 0.261636 0.261651 0.261666 
0.261681 0.261696 0.261711 0.261726 0.261741 0.261757 0.261772 0.261787 0.261802 
0.261817 0.261832 0.261847 0.261862 0.261877 0.261892 0.261907 0.261922 0.261937 
0.261952 0.261967 0.261982 0.261997 0.262012 0.262027 0.262042 0.262057 0.262072 
0.262086 0.262101 0.262116 0.262131 0.262146 0.262161 0.262176 0.262191 0.262206 
0.262221 0.262236 0.262251 0.262266 0.262281 0.262296 0.262311 0.262326 0.26234 
0.262355 0.26237 0.262385 0.2624 0.262415 0.26243 0.262445 0.26246 0.262475 
0.26249 0.262504 0.262519 0.262534 0.262549 0.262564 0.262579 0.262594 0.262609 
0.262624 0.262639 0.262654 0.262668 0.262683 0.262698 0.262713 0.262728 0.262743 
0.262758 0.262773 0.262788 0.262804 0.262819 0.262834 0.26285 0.262866 0.262882 
0.262899 0.26292 0.262943 0.262978 0.263036 0.263241 0.264038 0.438989 0.438985 
0.438982 0.438981 0.43898 0.438981 0.438981 0.438983 0.438984 0.438986 0.438988 
0.43899 0.438992 0.438994 0.438996 0.438998 0.439001 0.439003 0.439006 0.439008 
0.43901 0.439013 0.439015 0.439018 0.43902 0.439023 0.439025 0.439028 0.43903 
0.439033 0.439035 0.439038 0.439041 0.439043 0.439046 0.439048 0.439051 0.439053 
0.439056 0.439058 0.439061 0.439064 0.439066 0.439069 0.439071 0.439074 0.439076 
0.439079 0.439082 0.439084 0.439087 0.439089 0.439092 0.439094 0.439097 0.4391 
0.439102 0.439105 0.439107 0.43911 0.439113 0.439115 0.439118 0.43912 0.439123 
0.439125 0.439128 0.439131 0.439133 0.439136 0.439138 0.439141 0.439143 0.439146 
0.439149 0.439151 0.439154 0.439156 0.439159 0.439162 0.439164 0.439167 0.439169 
0.439172 0.439174 0.439177 0.43918 0.439182 0.439185 0.439187 0.43919 0.439192 
0.439194 0.439183 0.439052 0.437021 0.433091 0.260008 0.260023 0.260038 0.260054 
0.260069 0.260085 0.2601 0.260115 0.260131 0.260146 0.260161 0.260177 0.260192 
0.260207 0.260223 0.260238 0.260254 0.260269 0.260284 0.2603 0.260315 0.26033 
0.260345 0.260361 0.260376 0.260391 0.260407 0.260422 0.260437 0.260453 0.260468 
0.260483 0.260498 0.260514 0.260529 0.260544 0.26056 0.260575 0.26059 0.260605 
0.260621 0.260636 0.260651 0.260666 0.260682 0.260697 0.260712 0.260727 0.260743 
0.260758 0.260773 0.260788 0.260804 0.260819 0.260834 0.260849 0.260864 0.26088 
0.260895 0.26091 0.260925 0.26094 0.260956 0.260971 0.260986 0.261001 0.261016 
0.261032 0.261047 0.261062 0.261077 0.261092 0.261107 0.261123 0.261138 0.261153 
0.261168 0.261183 0.261198 0.261213 0.261229 0.261244 0.261259 0.261274 0.261289 
0.261304 0.261319 0.261334 0.26135 0.261365 0.26138 0.261395 0.26141 0.261425 
0.26144 0.261455 0.26147 0.261485 0.261501 0.261516 0.261531 0.261546 0.261561 
0.261576 0.261591 0.261606 0.261621 0.261636 0.261651 0.261666 0.261681 0.261696 
0.261711 0.261726 0.261741 0.261757 0.261772 0.261787 0.261802 0.261817 0.261832 
0.261847 0.261862 0.261877 0.261892 0.261907 0.261922 0.261937 0.261952 0.261967 
0.261982 0.261997 0.262012 0.262027 0.262042 0.262057 0.262072 0.262086 0.262101 
0.262116 0.262131 0.262146 0.262161 0.262176 0.262191 0.262206 0.262221 0.262236 
0.262251 0.262266 0.262281 0.262296 0.262311 0.262326 0.26234 0.262355 0.26237 
0.262385 0.2624 0.262415 0.26243 0.262445 0.26246 0.262475 0.26249 0.262504 
0.262519 0.262534 0.262549 0.262564 0.262579 0.262594 0.262609 0.262624 0.262639 
0.262653 0.262668 0.262683 0.262698 0.262713 0.262728 0.262743 0.262758 0.262773 
0.262788 0.262803 0.262819 0.262834 0.26285 0.262865 0.262881 0.262898 0.262915 
0.262939 0.262974 0.26303 0.263234 0.264033 0.438971 0.438976 0.438977 0.438978 
0.438978 0.438979 0.438981 0.438982 0.438984 0.438986 0.438987 0.43899 0.438992 
0.438994 0.438996 0.438998 0.439001 0.439003 0.439006 0.439008 0.43901 0.439013 
0.439015 0.439018 0.43902 0.439023 0.439025 0.439028 0.43903 0.439033 0.439035 
0.439038 0.439041 0.439043 0.439046 0.439048 0.439051 0.439053 0.439056 0.439058 
0.439061 0.439064 0.439066 0.439069 0.439071 0.439074 0.439076 0.439079 0.439082 
0.439084 0.439087 0.439089 0.439092 0.439094 0.439097 0.4391 0.439102 0.439105 
0.439107 0.43911 0.439113 0.439115 0.439118 0.43912 0.439123 0.439125 0.439128 
0.439131 0.439133 0.439136 0.439138 0.439141 0.439143 0.439146 0.439149 0.439151 
0.439154 0.439156 0.439159 0.439162 0.439164 0.439167 0.439169 0.439172 0.439174 
0.439177 0.43918 0.439182 0.439185 0.439187 0.43919 0.439192 0.439194 0.439183 
0.439052 0.437021 0.433091 0.260008 0.260023 0.260038 0.260054 0.260069 0.260085 
0.2601 0.260115 0.260131 0.260146 0.260161 0.260177 0.260192 0.260208 0.260223 
0.260238 0.260254 0.260269 0.260284 0.2603 0.260315 0.26033 0.260345 0.260361 
0.260376 0.260391 0.260407 0.260422 0.260437 0.260453 0.260468 0.260483 0.260498 
0.260514 0.260529 0.260544 0.26056 0.260575 0.26059 0.260605 0.260621 0.260636 
0.260651 0.260666 0.260682 0.260697 0.260712 0.260727 0.260743 0.260758 0.260773 
0.260788 0.260804 0.260819 0.260834 0.260849 0.260864 0.26088 0.260895 0.26091 
0.260925 0.26094 0.260956 0.260971 0.260986 0.261001 0.261016 0.261032 0.261047 
0.261062 0.261077 0.261092 0.261107 0.261123 0.261138 0.261153 0.261168 0.261183 
0.261198 0.261213 0.261229 0.261244 0.261259 0.261274 0.261289 0.261304 0.261319 
0.261334 0.26135 0.261365 0.26138 0.261395 0.26141 0.261425 0.26144 0.261455 
0.26147 0.261485 0.261501 0.261516 0.261531 0.261546 0.261561 0.261576 0.261591 
0.261606 0.261621 0.261636 0.261651 0.261666 0.261681 0.261696 0.261711 0.261726 
0.261741 0.261757 0.261772 0.261787 0.261802 0.261817 0.261832 0.261847 0.261862 
0.261877 0.261892 0.261907 0.261922 0.261937 0.261952 0.261967 0.261982 0.261997 
0.262012 0.262027 0.262042 0.262057 0.262072 0.262086 0.262101 0.262116 0.262131 
0.262146 0.262161 0.262176 0.262191 0.262206 0.262221 0.262236 0.262251 0.262266 
0.262281 0.262296 0.262311 0.262326 0.26234 0.262355 0.26237 0.262385 0.2624 
0.262415 0.26243 0.262445 0.26246 0.262475 0.26249 0.262504 0.262519 0.262534 
0.262549 0.262564 0.262579 0.262594 0.262609 0.262624 0.262639 0.262653 0.262668 
0.262683 0.262698 0.262713 0.262728 0.262743 0.262758 0.262773 0.262788 0.262803 
0.262818 0.262833 0.262849 0.262864 0.26288 0.262896 0.262913 0.262936 0.26297 
0.263025 0.263229 0.264031 0.438962 0.438968 0.438972 0.438974 0.438976 0.438978 
0.438979 0.438981 0.438983 0.438985 0.438987 0.438989 0.438991 0.438994 0.438996 
0.438998 0.439001 0.439003 0.439005 0.439008 0.43901 0.439013 0.439015 0.439018 
0.43902 0.439023 0.439025 0.439028 0.43903 0.439033 0.439035 0.439038 0.439041 
0.439043 0.439046 0.439048 0.439051 0.439053 0.439056 0.439058 0.439061 0.439064 
0.439066 0.439069 0.439071 0.439074 0.439076 0.439079 0.439082 0.439084 0.439087 
0.439089 0.439092 0.439094 0.439097 0.4391 0.439102 0.439105 0.439107 0.43911 
0.439113 0.439115 0.439118 0.43912 0.439123 0.439125 0.439128 0.439131 0.439133 
0.439136 0.439138 0.439141 0.439143 0.439146 0.439149 0.439151 0.439154 0.439156 
0.439159 0.439162 0.439164 0.439167 0.439169 0.439172 0.439174 0.439177 0.43918 
0.439182 0.439185 0.439187 0.43919 0.439192 0.439194 0.439183 0.439052 0.437021 
0.433091 0.260008 0.260023 0.260038 0.260054 0.260069 0.260085 0.2601 0.260115 
0.260131 0.260146 0.260161 0.260177 0.260192 0.260208 0.260223 0.260238 0.260254 
0.260269 0.260284 0.2603 0.260315 0.26033 0.260345 0.260361 0.260376 0.260391 
0.260407 0.260422 0.260437 0.260453 0.260468 0.260483 0.260498 0.260514 0.260529 
0.260544 0.26056 0.260575 0.26059 0.260605 0.260621 0.260636 0.260651 0.260666 
0.260682 0.260697 0.260712 0.260727 0.260743 0.260758 0.260773 0.260788 0.260804 
0.260819 0.260834 0.260849 0.260864 0.26088 0.260895 0.26091 0.260925 0.26094 
0.260956 0.260971 0.260986 0.261001 0.261016 0.261032 0.261047 0.261062 0.261077 
0.261092 0.261107 0.261123 0.261138 0.261153 0.261168 0.261183 0.261198 0.261213 
0.261229 0.261244 0.261259 0.261274 0.261289 0.261304 0.261319 0.261334 0.26135 
0.261365 0.26138 0.261395 0.26141 0.261425 0.26144 0.261455 0.26147 0.261485 
0.261501 0.261516 0.261531 0.261546 0.261561 0.261576 0.261591 0.261606 0.261621 
0.261636 0.261651 0.261666 0.261681 0.261696 0.261711 0.261726 0.261741 0.261757 
0.261772 0.261787 0.261802 0.261817 0.261832 0.261847 0.261862 0.261877 0.261892 
0.261907 0.261922 0.261937 0.261952 0.261967 0.261982 0.261997 0.262012 0.262027 
0.262042 0.262057 0.262072 0.262086 0.262101 0.262116 0.262131 0.262146 0.262161 
0.262176 0.262191 0.262206 0.262221 0.262236 0.262251 0.262266 0.262281 0.262296 
0.262311 0.262326 0.26234 0.262355 0.26237 0.262385 0.2624 0.262415 0.26243 
0.262445 0.26246 0.262475 0.26249 0.262504 0.262519 0.262534 0.262549 0.262564 
0.262579 0.262594 0.262609 0.262624 0.262639 0.262653 0.262668 0.262683 0.262698 
0.262713 0.262728 0.262743 0.262758 0.262773 0.262788 0.262803 0.262818 0.262833 
0.262848 0.262863 0.262878 0.262894 0.262911 0.262933 0.262967 0.26302 0.263224 
0.264029 0.438957 0.438964 0.438968 0.438971 0.438974 0.438976 0.438978 0.43898 
0.438982 0.438985 0.438987 0.438989 0.438991 0.438993 0.438996 0.438998 0.439001 
0.439003 0.439005 0.439008 0.43901 0.439013 0.439015 0.439018 0.43902 0.439023 
0.439025 0.439028 0.43903 0.439033 0.439035 0.439038 0.439041 0.439043 0.439046 
0.439048 0.439051 0.439053 0.439056 0.439058 0.439061 0.439064 0.439066 0.439069 
0.439071 0.439074 0.439076 0.439079 0.439082 0.439084 0.439087 0.439089 0.439092 
0.439094 0.439097 0.4391 0.439102 0.439105 0.439107 0.43911 0.439113 0.439115 
0.439118 0.43912 0.439123 0.439125 0.439128 0.439131 0.439133 0.439136 0.439138 
0.439141 0.439143 0.439146 0.439149 0.439151 0.439154 0.439156 0.439159 0.439162 
0.439164 0.439167 0.439169 0.439172 0.439174 0.439177 0.43918 0.439182 0.439185 
0.439187 0.43919 0.439192 0.439194 0.439183 0.439052 0.437021 0.433091 0.260008 
0.260023 0.260038 0.260054 0.260069 0.260085 0.2601 0.260115 0.260131 0.260146 
0.260161 0.260177 0.260192 0.260208 0.260223 0.260238 0.260254 0.260269 0.260284 
0.2603 0.260315 0.26033 0.260345 0.260361 0.260376 0.260391 0.260407 0.260422 
0.260437 0.260453 0.260468 0.260483 0.260498 0.260514 0.260529 0.260544 0.26056 
0.260575 0.26059 0.260605 0.260621 0.260636 0.260651 0.260666 0.260682 0.260697 
0.260712 0.260727 0.260743 0.260758 0.260773 0.260788 0.260804 0.260819 0.260834 
0.260849 0.260864 0.26088 0.260895 0.26091 0.260925 0.26094 0.260956 0.260971 
0.260986 0.261001 0.261016 0.261032 0.261047 0.261062 0.261077 0.261092 0.261107 
0.261123 0.261138 0.261153 0.261168 0.261183 0.261198 0.261213 0.261229 0.261244 
0.261259 0.261274 0.261289 0.261304 0.261319 0.261334 0.26135 0.261365 0.26138 
0.261395 0.26141 0.261425 0.26144 0.261455 0.26147 0.261485 0.261501 0.261516 
0.261531 0.261546 0.261561 0.261576 0.261591 0.261606 0.261621 0.261636 0.261651 
0.261666 0.261681 0.261696 0.261711 0.261726 0.261741 0.261757 0.261772 0.261787 
0.261802 0.261817 0.261832 0.261847 0.261862 0.261877 0.261892 0.261907 0.261922 
0.261937 0.261952 0.261967 0.261982 0.261997 0.262012 0.262027 0.262042 0.262057 
0.262072 0.262086 0.262101 0.262116 0.262131 0.262146 0.262161 0.262176 0.262191 
0.262206 0.262221 0.262236 0.262251 0.262266 0.262281 0.262296 0.262311 0.262326 
0.26234 0.262355 0.26237 0.262385 0.2624 0.262415 0.26243 0.262445 0.26246 
0.262475 0.26249 0.262504 0.262519 0.262534 0.262549 0.262564 0.262579 0.262594 
0.262609 0.262624 0.262639 0.262653 0.262668 0.262683 0.262698 0.262713 0.262728 
0.262743 0.262758 0.262773 0.262788 0.262802 0.262817 0.262832 0.262847 0.262862 
0.262877 0.262893 0.262909 0.262931 0.262964 0.263017 0.263219 0.264026 0.438955 
0.438961 0.438966 0.438969 0.438972 0.438975 0.438977 0.438979 0.438982 0.438984 
0.438986 0.438989 0.438991 0.438993 0.438996 0.438998 0.439 0.439003 0.439005 
0.439008 0.43901 0.439013 0.439015 0.439018 0.43902 0.439023 0.439025 0.439028 
0.43903 0.439033 0.439035 0.439038 0.439041 0.439043 0.439046 0.439048 0.439051 
0.439053 0.439056 0.439058 0.439061 0.439064 0.439066 0.439069 0.439071 0.439074 
0.439076 0.439079 0.439082 0.439084 0.439087 0.439089 0.439092 0.439094 0.439097 
0.4391 0.439102 0.439105 0.439107 0.43911 0.439113 0.439115 0.439118 0.43912 
0.439123 0.439125 0.439128 0.439131 0.439133 0.439136 0.439138 0.439141 0.439143 
0.439146 0.439149 0.439151 0.439154 0.439156 0.439159 0.439162 0.439164 0.439167 
0.439169 0.439172 0.439174 0.439177 0.43918 0.439182 0.439185 0.439187 0.43919 
0.439192 0.439194 0.439183 0.439052 0.437021 0.433091 0.260008 0.260023 0.260038 
0.260054 0.260069 0.260085 0.2601 0.260115 0.260131 0.260146 0.260161 0.260177 
0.260192 0.260207 0.260223 0.260238 0.260254 0.260269 0.260284 0.2603 0.260315 
0.26033 0.260345 0.260361 0.260376 0.260391 0.260407 0.260422 0.260437 0.260453 
0.260468 0.260483 0.260498 0.260514 0.260529 0.260544 0.26056 0.260575 0.26059 
0.260605 0.260621 0.260636 0.260651 0.260666 0.260682 0.260697 0.260712 0.260727 
0.260743 0.260758 0.260773 0.260788 0.260804 0.260819 0.260834 0.260849 0.260864 
0.26088 0.260895 0.26091 0.260925 0.26094 0.260956 0.260971 0.260986 0.261001 
0.261016 0.261032 0.261047 0.261062 0.261077 0.261092 0.261107 0.261123 0.261138 
0.261153 0.261168 0.261183 0.261198 0.261213 0.261229 0.261244 0.261259 0.261274 
0.261289 0.261304 0.261319 0.261334 0.26135 0.261365 0.26138 0.261395 0.26141 
0.261425 0.26144 0.261455 0.26147 0.261485 0.261501 0.261516 0.261531 0.261546 
0.261561 0.261576 0.261591 0.261606 0.261621 0.261636 0.261651 0.261666 0.261681 
0.261696 0.261711 0.261726 0.261741 0.261757 0.261772 0.261787 0.261802 0.261817 
0.261832 0.261847 0.261862 0.261877 0.261892 0.261907 0.261922 0.261937 0.261952 
0.261967 0.261982 0.261997 0.262012 0.262027 0.262042 0.262057 0.262072 0.262086 
0.262101 0.262116 0.262131 0.262146 0.262161 0.262176 0.262191 0.262206 0.262221 
0.262236 0.262251 0.262266 0.262281 0.262296 0.262311 0.262326 0.26234 0.262355 
0.26237 0.262385 0.2624 0.262415 0.26243 0.262445 0.26246 0.262475 0.26249 
0.262504 0.262519 0.262534 0.262549 0.262564 0.262579 0.262594 0.262609 0.262624 
0.262638 0.262653 0.262668 0.262683 0.262698 0.262713 0.262728 0.262743 0.262757 
0.262772 0.262787 0.262802 0.262817 0.262832 0.262847 0.262861 0.262876 0.262891 
0.262907 0.262929 0.262962 0.263014 0.263213 0.26402 0.438954 0.43896 0.438964 
0.438967 0.438971 0.438973 0.438976 0.438978 0.438981 0.438983 0.438986 0.438988 
0.438991 0.438993 0.438995 0.438998 0.439 0.439003 0.439005 0.439008 0.43901 
0.439013 0.439015 0.439018 0.43902 0.439023 0.439025 0.439028 0.43903 0.439033 
0.439035 0.439038 0.439041 0.439043 0.439046 0.439048 0.439051 0.439053 0.439056 
0.439058 0.439061 0.439064 0.439066 0.439069 0.439071 0.439074 0.439076 0.439079 
0.439082 0.439084 0.439087 0.439089 0.439092 0.439094 0.439097 0.4391 0.439102 
0.439105 0.439107 0.43911 0.439113 0.439115 0.439118 0.43912 0.439123 0.439125 
0.439128 0.439131 0.439133 0.439136 0.439138 0.439141 0.439143 0.439146 0.439149 
0.439151 0.439154 0.439156 0.439159 0.439162 0.439164 0.439167 0.439169 0.439172 
0.439174 0.439177 0.43918 0.439182 0.439185 0.439187 0.43919 0.439192 0.439194 
0.439183 0.439052 0.437021 0.433091 0.260008 0.260023 0.260038 0.260054 0.260069 
0.260085 0.2601 0.260115 0.260131 0.260146 0.260161 0.260177 0.260192 0.260207 
0.260223 0.260238 0.260254 0.260269 0.260284 0.2603 0.260315 0.26033 0.260345 
0.260361 0.260376 0.260391 0.260407 0.260422 0.260437 0.260453 0.260468 0.260483 
0.260498 0.260514 0.260529 0.260544 0.26056 0.260575 0.26059 0.260605 0.260621 
0.260636 0.260651 0.260666 0.260682 0.260697 0.260712 0.260727 0.260743 0.260758 
0.260773 0.260788 0.260804 0.260819 0.260834 0.260849 0.260864 0.26088 0.260895 
0.26091 0.260925 0.26094 0.260956 0.260971 0.260986 0.261001 0.261016 0.261032 
0.261047 0.261062 0.261077 0.261092 0.261107 0.261123 0.261138 0.261153 0.261168 
0.261183 0.261198 0.261213 0.261229 0.261244 0.261259 0.261274 0.261289 0.261304 
0.261319 0.261334 0.26135 0.261365 0.26138 0.261395 0.26141 0.261425 0.26144 
0.261455 0.26147 0.261485 0.261501 0.261516 0.261531 0.261546 0.261561 0.261576 
0.261591 0.261606 0.261621 0.261636 0.261651 0.261666 0.261681 0.261696 0.261711 
0.261726 0.261741 0.261757 0.261772 0.261787 0.261802 0.261817 0.261832 0.261847 
0.261862 0.261877 0.261892 0.261907 0.261922 0.261937 0.261952 0.261967 0.261982 
0.261997 0.262012 0.262027 0.262042 0.262057 0.262072 0.262086 0.262101 0.262116 
0.262131 0.262146 0.262161 0.262176 0.262191 0.262206 0.262221 0.262236 0.262251 