# vtk DataFile Version 5.1
vtk output
ASCII
DATASET UNSTRUCTURED_GRID
POINTS 9536 double
-10.1 1.4499999993 0 -10.049999999 1.4499999993 0 -10.049999999 1.5 0 
-9.9999999985 1.4499999993 0 -9.9999999985 1.5 0 -9.9499999978 1.4499999993 0 
-9.9499999978 1.5 0 -9.899999997 1.4499999993 0 -9.899999997 1.5 0 
-9.8499999963 1.4499999993 0 -9.8499999963 1.5 0 -9.7999999955 1.4499999993 0 
-9.7999999955 1.5 0 -9.7499999948 1.4499999993 0 -9.7499999948 1.5 0 
-9.699999994 1.4499999993 0 -9.699999994 1.5 0 -9.6499999933 1.4499999993 0 
-9.6499999933 1.5 0 -9.5999999925 1.4499999993 0 -9.5999999925 1.5 0 
-9.5499999918 1.4499999993 0 -9.5499999918 1.5 0 -9.4999999911 1.4499999993 0 
-9.4999999911 1.5 0 -9.4499999903 1.4499999993 0 -9.4499999903 1.5 0 
-9.3999999896 1.4499999993 0 -9.3999999896 1.5 0 -9.3499999888 1.4499999993 0 
-9.3499999888 1.5 0 -9.2999999881 1.4499999993 0 -9.2999999881 1.5 0 
-9.2499999873 1.4499999993 0 -9.2499999873 1.5 0 -9.1999999866 1.4499999993 0 
-9.1999999866 1.5 0 -9.1499999858 1.4499999993 0 -9.1499999858 1.5 0 
-9.0999999851 1.4499999993 0 -9.0999999851 1.5 0 -9.0499999844 1.4499999993 0 
-9.0499999844 1.5 0 -8.9999999836 1.4499999993 0 -8.9999999836 1.5 0 
-8.9499999829 1.4499999993 0 -8.9499999829 1.5 0 -8.8999999821 1.4499999993 0 
-8.8999999821 1.5 0 -8.8499999814 1.4499999993 0 -8.8499999814 1.5 0 
-8.7999999806 1.4499999993 0 -8.7999999806 1.5 0 -8.7499999799 1.4499999993 0 
-8.7499999799 1.5 0 -8.6999999791 1.4499999993 0 -8.6999999791 1.5 0 
-8.6499999784 1.4499999993 0 -8.6499999784 1.5 0 -8.5999999776 1.4499999993 0 
-8.5999999776 1.5 0 -8.5499999769 1.4499999993 0 -8.5499999769 1.5 0 
-8.4999999762 1.4499999993 0 -8.4999999762 1.5 0 -8.4499999754 1.4499999993 0 
-8.4499999754 1.5 0 -8.3999999747 1.4499999993 0 -8.3999999747 1.5 0 
-8.3499999739 1.4499999993 0 -8.3499999739 1.5 0 -8.2999999732 1.4499999993 0 
-8.2999999732 1.5 0 -8.2499999724 1.4499999993 0 -8.2499999724 1.5 0 
-8.1999999717 1.4499999993 0 -8.1999999717 1.5 0 -8.1499999709 1.4499999993 0 
-8.1499999709 1.5 0 -8.0999999702 1.4499999993 0 -8.0999999702 1.5 0 
-8.0499999695 1.4499999993 0 -8.0499999695 1.5 0 -7.9999999687 1.4499999993 0 
-7.9999999687 1.5 0 -7.949999968 1.4499999993 0 -7.949999968 1.5 0 
-7.8999999672 1.4499999993 0 -7.8999999672 1.5 0 -7.8499999665 1.4499999993 0 
-7.8499999665 1.5 0 -7.7999999657 1.4499999993 0 -7.7999999657 1.5 0 
-7.749999965 1.4499999993 0 -7.749999965 1.5 0 -7.6999999642 1.4499999993 0 
-7.6999999642 1.5 0 -7.6499999635 1.4499999993 0 -7.6499999635 1.5 0 
-7.5999999627 1.4499999993 0 -7.5999999627 1.5 0 -7.549999962 1.4499999993 0 
-7.549999962 1.5 0 -7.4999999613 1.4499999993 0 -7.4999999613 1.5 0 
-7.4499999605 1.4499999993 0 -7.4499999605 1.5 0 -7.3999999598 1.4499999993 0 
-7.3999999598 1.5 0 -7.349999959 1.4499999993 0 -7.349999959 1.5 0 
-7.2999999583 1.4499999993 0 -7.2999999583 1.5 0 -7.2499999575 1.4499999993 0 
-7.2499999575 1.5 0 -7.1999999568 1.4499999993 0 -7.1999999568 1.5 0 
-7.149999956 1.4499999993 0 -7.149999956 1.5 0 -7.0999999553 1.4499999993 0 
-7.0999999553 1.5 0 -7.0499999546 1.4499999993 0 -7.0499999546 1.5 0 
-6.9999999538 1.4499999993 0 -6.9999999538 1.5 0 -6.9499999531 1.4499999993 0 
-6.9499999531 1.5 0 -6.8999999523 1.4499999993 0 -6.8999999523 1.5 0 
-6.8499999516 1.4499999993 0 -6.8499999516 1.5 0 -6.7999999508 1.4499999993 0 
-6.7999999508 1.5 0 -6.7499999501 1.4499999993 0 -6.7499999501 1.5 0 
-6.6999999493 1.4499999993 0 -6.6999999493 1.5 0 -6.6499999486 1.4499999993 0 
-6.6499999486 1.5 0 -6.5999999478 1.4499999993 0 -6.5999999478 1.5 0 
-6.5499999471 1.4499999993 0 -6.5499999471 1.5 0 -6.4999999464 1.4499999993 0 
-6.4999999464 1.5 0 -6.4499999456 1.4499999993 0 -6.4499999456 1.5 0 
-6.3999999449 1.4499999993 0 -6.3999999449 1.5 0 -6.3499999441 1.4499999993 0 
-6.3499999441 1.5 0 -6.2999999434 1.4499999993 0 -6.2999999434 1.5 0 
-6.2499999426 1.4499999993 0 -6.2499999426 1.5 0 -6.1999999419 1.4499999993 0 
-6.1999999419 1.5 0 -6.1499999411 1.4499999993 0 -6.1499999411 1.5 0 
-6.0999999404 1.4499999993 0 -6.0999999404 1.5 0 -6.0499999397 1.4499999993 0 
-6.0499999397 1.5 0 -5.9999999389 1.4499999993 0 -5.9999999389 1.5 0 
-5.9499999382 1.4499999993 0 -5.9499999382 1.5 0 -5.8999999374 1.4499999993 0 
-5.8999999374 1.5 0 -5.8499999367 1.4499999993 0 -5.8499999367 1.5 0 
-5.7999999359 1.4499999993 0 -5.7999999359 1.5 0 -5.7499999352 1.4499999993 0 
-5.7499999352 1.5 0 -5.6999999344 1.4499999993 0 -5.6999999344 1.5 0 
-5.6499999337 1.4499999993 0 -5.6499999337 1.5 0 -5.5999999329 1.4499999993 0 
-5.5999999329 1.5 0 -5.5499999322 1.4499999993 0 -5.5499999322 1.5 0 
-5.4999999315 1.4499999993 0 -5.4999999315 1.5 0 -5.4499999307 1.4499999993 0 
-5.4499999307 1.5 0 -5.39999993 1.4499999993 0 -5.39999993 1.5 0 
-5.3499999292 1.4499999993 0 -5.3499999292 1.5 0 -5.2999999285 1.4499999993 0 
-5.2999999285 1.5 0 -5.2499999277 1.4499999993 0 -5.2499999277 1.5 0 
-5.199999927 1.4499999993 0 -5.199999927 1.5 0 -5.1499999262 1.4499999993 0 
-5.1499999262 1.5 0 -5.0999999255 1.4499999993 0 -5.0999999255 1.5 0 
-5.0499999247 1.4499999993 0 -5.0499999247 1.5 0 -4.999999924 1.4499999993 0 
-4.999999924 1.5 0 -4.9499999233 1.4499999993 0 -4.9499999233 1.5 0 
-4.8999999225 1.4499999993 0 -4.8999999225 1.5 0 -4.8499999218 1.4499999993 0 
-4.8499999218 1.5 0 -4.799999921 1.4499999993 0 -4.799999921 1.5 0 
-4.7499999203 1.4499999993 0 -4.7499999203 1.5 0 -4.6999999195 1.4499999993 0 
-4.6999999195 1.5 0 -4.6499999188 1.4499999993 0 -4.6499999188 1.5 0 
-4.599999918 1.4499999993 0 -4.599999918 1.5 0 -4.5499999173 1.4499999993 0 
-4.5499999173 1.5 0 -4.4999999166 1.4499999993 0 -4.4999999166 1.5 0 
-4.4499999158 1.4499999993 0 -4.4499999158 1.5 0 -4.3999999151 1.4499999993 0 
-4.3999999151 1.5 0 -4.3499999143 1.4499999993 0 -4.3499999143 1.5 0 
-4.2999999136 1.4499999993 0 -4.2999999136 1.5 0 -4.2499999128 1.4499999993 0 
-4.2499999128 1.5 0 -4.1999999121 1.4499999993 0 -4.1999999121 1.5 0 
-4.1499999113 1.4499999993 0 -4.1499999113 1.5 0 -4.0999999106 1.4499999993 0 
-4.0999999106 1.5 0 -4.0499999098 1.4499999993 0 -4.0499999098 1.5 0 
-3.9999999091 1.4499999993 0 -3.9999999091 1.5 0 -3.9499999084 1.4499999993 0 
-3.9499999084 1.5 0 -3.8999999076 1.4499999993 0 -3.8999999076 1.5 0 
-3.8499999069 1.4499999993 0 -3.8499999069 1.5 0 -3.7999999061 1.4499999993 0 
-3.7999999061 1.5 0 -3.7499999054 1.4499999993 0 -3.7499999054 1.5 0 
-3.6999999046 1.4499999993 0 -3.6999999046 1.5 0 -3.6499999039 1.4499999993 0 
-3.6499999039 1.5 0 -3.5999999031 1.4499999993 0 -3.5999999031 1.5 0 
-3.5499999024 1.4499999993 0 -3.5499999024 1.5 0 -3.4999999017 1.4499999993 0 
-3.4999999017 1.5 0 -3.4499999009 1.4499999993 0 -3.4499999009 1.5 0 
-3.3999999002 1.4499999993 0 -3.3999999002 1.5 0 -3.3499998994 1.4499999993 0 
-3.3499998994 1.5 0 -3.2999998987 1.4499999993 0 -3.2999998987 1.5 0 
-3.2499998979 1.4499999993 0 -3.2499998979 1.5 0 -3.1999998972 1.4499999993 0 
-3.1999998972 1.5 0 -3.1499998964 1.4499999993 0 -3.1499998964 1.5 0 
-3.0999998957 1.4499999993 0 -3.0999998957 1.5 0 -3.0499998949 1.4499999993 0 
-3.0499998949 1.5 0 -2.9999998942 1.4499999993 0 -2.9999998942 1.5 0 
-2.9499998935 1.4499999993 0 -2.9499998935 1.5 0 -2.8999998927 1.4499999993 0 
-2.8999998927 1.5 0 -2.849999892 1.4499999993 0 -2.849999892 1.5 0 
-2.7999998912 1.4499999993 0 -2.7999998912 1.5 0 -2.7499998905 1.4499999993 0 
-2.7499998905 1.5 0 -2.6999998897 1.4499999993 0 -2.6999998897 1.5 0 
-2.649999889 1.4499999993 0 -2.649999889 1.5 0 -2.5999998882 1.4499999993 0 
-2.5999998882 1.5 0 -2.5499998875 1.4499999993 0 -2.5499998875 1.5 0 
-2.4999998868 1.4499999993 0 -2.4999998868 1.5 0 -2.449999886 1.4499999993 0 
-2.449999886 1.5 0 -2.3999998853 1.4499999993 0 -2.3999998853 1.5 0 
-2.3499998845 1.4499999993 0 -2.3499998845 1.5 0 -2.2999998838 1.4499999993 0 
-2.2999998838 1.5 0 -2.249999883 1.4499999993 0 -2.249999883 1.5 0 
-2.1999998823 1.4499999993 0 -2.1999998823 1.5 0 -2.1499998815 1.4499999993 0 
-2.1499998815 1.5 0 -2.0999998808 1.4499999993 0 -2.0999998808 1.5 0 
-2.04999988 1.4499999993 0 -2.04999988 1.5 0 -1.9999998793 1.4499999993 0 
-1.9999998793 1.5 0 -1.9499998786 1.4499999993 0 -1.9499998786 1.5 0 
-1.8999998778 1.4499999993 0 -1.8999998778 1.5 0 -1.8499998771 1.4499999993 0 
-1.8499998771 1.5 0 -1.7999998763 1.4499999993 0 -1.7999998763 1.5 0 
-1.7499998756 1.4499999993 0 -1.7499998756 1.5 0 -1.6999998748 1.4499999993 0 
-1.6999998748 1.5 0 -1.6499998741 1.4499999993 0 -1.6499998741 1.5 0 
-1.5999998733 1.4499999993 0 -1.5999998733 1.5 0 -1.5499998726 1.4499999993 0 
-1.5499998726 1.5 0 -1.4999998719 1.4499999993 0 -1.4999998719 1.5 0 
-1.4499998711 1.4499999993 0 -1.4499998711 1.5 0 -1.3999998704 1.4499999993 0 
-1.3999998704 1.5 0 -1.3499998696 1.4499999993 0 -1.3499998696 1.5 0 
-1.2999998689 1.4499999993 0 -1.2999998689 1.5 0 -1.2499998681 1.4499999993 0 
-1.2499998681 1.5 0 -1.1999998674 1.4499999993 0 -1.1999998674 1.5 0 
-1.1499998666 1.4499999993 0 -1.1499998666 1.5 0 -1.0999998659 1.4499999993 0 
-1.0999998659 1.5 0 -1.0499998651 1.4499999993 0 -1.0499998651 1.5 0 
-0.9999998644 1.4499999993 0 -0.9999998644 1.5 0 -0.94999986365 1.4499999993 0 
-0.94999986365 1.5 0 -0.89999986291 1.4499999993 0 -0.89999986291 1.5 0 
-0.84999986216 1.4499999993 0 -0.84999986216 1.5 0 -0.79999986142 1.4499999993 0 
-0.79999986142 1.5 0 -0.74999986067 1.4499999993 0 -0.74999986067 1.5 0 
-0.69999985993 1.4499999993 0 -0.69999985993 1.5 0 -0.64999985918 1.4499999993 0 
-0.64999985918 1.5 0 -0.59999985844 1.4499999993 0 -0.59999985844 1.5 0 
-0.54999985769 1.4499999993 0 -0.54999985769 1.5 0 -0.49999985695 1.4499999993 0 
-0.49999985695 1.5 0 -0.4499998562 1.4499999993 0 -0.4499998562 1.5 0 
-0.39999985546 1.4499999993 0 -0.39999985546 1.5 0 -0.34999985471 1.4499999993 0 
-0.34999985471 1.5 0 -0.29999985397 1.4499999993 0 -0.29999985397 1.5 0 
-0.24999985322 1.4499999993 0 -0.24999985322 1.5 0 -0.19999985248 1.4499999993 0 
-0.19999985248 1.5 0 -0.15611771322 1.4499999993 0 -0.12748126461 1.5 0 
[...]
CELL_DATA 9090
FIELD FieldData 4
Water_Depth_m 1 9090 float
0.260008 0.260023 0.260039 0.260054 0.260069 0.260085 0.2601 0.260115 0.260131 
0.260146 0.260161 0.260177 0.260192 0.260208 0.260223 0.260238 0.260254 0.260269 
0.260284 0.2603 0.260315 0.26033 0.260345 0.260361 0.260376 0.260391 0.260407 
0.260422 0.260437 0.260453 0.260468 0.260483 0.260498 0.260514 0.260529 0.260544 
0.26056 0.260575 0.26059 0.260605 0.260621 0.260636 0.260651 0.260666 0.260682 
0.260697 0.260712 0.260727 0.260743 0.260758 0.260773 0.260788 0.260804 0.260819 
0.260834 0.260849 0.260864 0.26088 0.260895 0.26091 0.260925 0.26094 0.260956 
0.260971 0.260986 0.261001 0.261016 0.261032 0.261047 0.261062 0.261077 0.261092 
0.261107 0.261123 0.261138 0.261153 0.261168 0.261183 0.261198 0.261213 0.261229 
0.261244 0.261259 0.261274 0.261289 0.261304 0.261319 0.261335 0.26135 0.261365 
0.26138 0.261395 0.26141 0.261425 0.26144 0.261455 0.26147 0.261485 0.261501 
0.261516 0.261531 0.261546 0.261561 0.261576 0.261591 0.261606 0.261621 0.261636 
0.261651 0.261666 0.261681 0.261696 0.261711 0.261726 0.261742 0.261757 0.261772 
0.261787 0.261802 0.261817 0.261832 0.261847 0.261862 0.261877 0.261892 0.261907 
0.261922 0.261937 0.261952 0.261967 0.261982 0.261997 0.262012 0.262027 0.262042 
0.262057 0.262072 0.262086 0.262101 0.262116 0.262131 0.262146 0.262161 0.262176 
0.262191 0.262206 0.262221 0.262236 0.262251 0.262266 0.262281 0.262296 0.262311 
0.262326 0.26234 0.262355 0.26237 0.262385 0.2624 0.262415 0.26243 0.262445 
0.26246 0.262475 0.262489 0.262504 0.262519 0.262534 0.262549 0.262564 0.262579 
0.262594 0.262608 0.262623 0.262638 0.262653 0.262668 0.262683 0.262697 0.262712 
0.262727 0.262742 0.262757 0.262772 0.262787 0.262801 0.262816 0.262832 0.262847 
0.262861 0.262878 0.262895 0.262913 0.26294 0.262984 0.263059 0.263385 0.264254 
0.265445 0.377534 0.415173 0.441815 0.441818 0.441821 0.441824 0.441827 0.44183 
0.441833 0.441836 0.441839 0.441841 0.441844 0.441847 0.441849 0.441852 0.441854 
0.441857 0.44186 0.441862 0.441865 0.441867 0.44187 0.441872 0.441875 0.441877 
0.44188 0.441883 0.441885 0.441888 0.44189 0.441893 0.441895 0.441898 0.4419 
0.441903 0.441905 0.441908 0.44191 0.441913 0.441915 0.441918 0.441921 0.441923 
0.441926 0.441928 0.441931 0.441933 0.441936 0.441938 0.441941 0.441943 0.441946 
0.441948 0.441951 0.441953 0.441956 0.441958 0.441961 0.441963 0.441966 0.441969 
0.441971 0.441974 0.441976 0.441979 0.441981 0.441984 0.441986 0.441989 0.441991 
0.441994 0.441996 0.441999 0.442001 0.442004 0.442006 0.442009 0.442011 0.442014 
0.442016 0.442019 0.442021 0.442024 0.442027 0.442029 0.442032 0.442034 0.442037 
0.442039 0.442042 0.442044 0.442047 0.442049 0.442052 0.442053 0.442043 0.441937 
0.439923 0.435974 0.260008 0.260023 0.260038 0.260054 0.260069 0.260085 0.2601 
0.260115 0.260131 0.260146 0.260161 0.260177 0.260192 0.260207 0.260223 0.260238 
0.260253 0.260269 0.260284 0.2603 0.260315 0.26033 0.260345 0.260361 0.260376 
0.260391 0.260407 0.260422 0.260437 0.260453 0.260468 0.260483 0.260498 0.260514 
0.260529 0.260544 0.26056 0.260575 0.26059 0.260605 0.260621 0.260636 0.260651 
0.260666 0.260682 0.260697 0.260712 0.260727 0.260743 0.260758 0.260773 0.260788 
0.260804 0.260819 0.260834 0.260849 0.260864 0.26088 0.260895 0.26091 0.260925 
0.26094 0.260956 0.260971 0.260986 0.261001 0.261016 0.261032 0.261047 0.261062 
0.261077 0.261092 0.261107 0.261123 0.261138 0.261153 0.261168 0.261183 0.261198 
0.261213 0.261229 0.261244 0.261259 0.261274 0.261289 0.261304 0.261319 0.261334 
0.26135 0.261365 0.26138 0.261395 0.26141 0.261425 0.26144 0.261455 0.26147 
0.261485 0.261501 0.261516 0.261531 0.261546 0.261561 0.261576 0.261591 0.261606 
0.261621 0.261636 0.261651 0.261666 0.261681 0.261696 0.261711 0.261726 0.261741 
0.261757 0.261772 0.261787 0.261802 0.261817 0.261832 0.261847 0.261862 0.261877 
0.261892 0.261907 0.261922 0.261937 0.261952 0.261967 0.261982 0.261997 0.262012 
0.262027 0.262042 0.262057 0.262072 0.262086 0.262101 0.262116 0.262131 0.262146 
0.262161 0.262176 0.262191 0.262206 0.262221 0.262236 0.262251 0.262266 0.262281 
0.262296 0.262311 0.262326 0.26234 0.262355 0.26237 0.262385 0.2624 0.262415 
0.26243 0.262445 0.26246 0.262475 0.262489 0.262504 0.262519 0.262534 0.262549 
0.262564 0.262579 0.262594 0.262608 0.262623 0.262638 0.262653 0.262668 0.262683 
0.262698 0.262712 0.262727 0.262742 0.262757 0.262772 0.262786 0.262802 0.262817 
0.262831 0.262846 0.262862 0.262877 0.262893 0.262913 0.262941 0.262979 0.263058 
0.26341 0.26425 0.265354 0.379867 0.41444 0.441815 0.441818 0.441821 0.441824 
0.441827 0.44183 0.441833 0.441836 0.441839 0.441841 0.441844 0.441847 0.441849 
0.441852 0.441854 0.441857 0.44186 0.441862 0.441865 0.441867 0.44187 0.441872 
0.441875 0.441877 0.44188 0.441883 0.441885 0.441888 0.44189 0.441893 0.441895 
0.441898 0.4419 0.441903 0.441905 0.441908 0.44191 0.441913 0.441915 0.441918 
0.441921 0.441923 0.441926 0.441928 0.441931 0.441933 0.441936 0.441938 0.441941 
0.441943 0.441946 0.441948 0.441951 0.441953 0.441956 0.441958 0.441961 0.441963 
0.441966 0.441969 0.441971 0.441974 0.441976 0.441979 0.441981 0.441984 0.441986 
0.441989 0.441991 0.441994 0.441996 0.441999 0.442001 0.442004 0.442006 0.442009 
0.442011 0.442014 0.442016 0.442019 0.442021 0.442024 0.442027 0.442029 0.442032 
0.442034 0.442037 0.442039 0.442042 0.442044 0.442047 0.442049 0.442052 0.442053 
0.442043 0.441937 0.439923 0.435974 0.260008 0.260023 0.260038 0.260054 0.260069 
0.260085 0.2601 0.260115 0.260131 0.260146 0.260161 0.260177 0.260192 0.260207 
0.260223 0.260238 0.260253 0.260269 0.260284 0.2603 0.260315 0.26033 0.260345 
0.260361 0.260376 0.260391 0.260407 0.260422 0.260437 0.260453 0.260468 0.260483 
0.260498 0.260514 0.260529 0.260544 0.26056 0.260575 0.26059 0.260605 0.260621 
0.260636 0.260651 0.260666 0.260682 0.260697 0.260712 0.260727 0.260743 0.260758 
0.260773 0.260788 0.260804 0.260819 0.260834 0.260849 0.260864 0.26088 0.260895 
0.26091 0.260925 0.26094 0.260956 0.260971 0.260986 0.261001 0.261016 0.261032 
0.261047 0.261062 0.261077 0.261092 0.261107 0.261123 0.261138 0.261153 0.261168 
0.261183 0.261198 0.261213 0.261229 0.261244 0.261259 0.261274 0.261289 0.261304 
0.261319 0.261334 0.26135 0.261365 0.26138 0.261395 0.26141 0.261425 0.26144 
0.261455 0.26147 0.261485 0.261501 0.261516 0.261531 0.261546 0.261561 0.261576 
0.261591 0.261606 0.261621 0.261636 0.261651 0.261666 0.261681 0.261696 0.261711 
0.261726 0.261741 0.261757 0.261772 0.261787 0.261802 0.261817 0.261832 0.261847 
0.261862 0.261877 0.261892 0.261907 0.261922 0.261937 0.261952 0.261967 0.261982 
0.261997 0.262012 0.262027 0.262042 0.262057 0.262072 0.262086 0.262101 0.262116 
0.262131 0.262146 0.262161 0.262176 0.262191 0.262206 0.262221 0.262236 0.262251 
0.262266 0.262281 0.262296 0.262311 0.262326 0.26234 0.262355 0.26237 0.262385 
0.2624 0.262415 0.26243 0.262445 0.26246 0.262475 0.262489 0.262504 0.262519 
0.262534 0.262549 0.262564 0.262579 0.262594 0.262608 0.262623 0.262638 0.262653 
0.262668 0.262683 0.262698 0.262712 0.262727 0.262742 0.262757 0.262772 0.262787 
0.262802 0.262817 0.262831 0.262846 0.262862 0.262877 0.262893 0.262912 0.262938 
0.262976 0.263058 0.263413 0.264255 0.26533 0.380254 0.414462 0.441815 0.441819 
0.441822 0.441825 0.441828 0.44183 0.441833 0.441836 0.441839 0.441841 0.441844 
0.441847 0.441849 0.441852 0.441854 0.441857 0.44186 0.441862 0.441865 0.441867 
0.44187 0.441872 0.441875 0.441877 0.44188 0.441883 0.441885 0.441888 0.44189 
0.441893 0.441895 0.441898 0.4419 0.441903 0.441905 0.441908 0.44191 0.441913 
0.441915 0.441918 0.441921 0.441923 0.441926 0.441928 0.441931 0.441933 0.441936 
0.441938 0.441941 0.441943 0.441946 0.441948 0.441951 0.441953 0.441956 0.441958 
0.441961 0.441963 0.441966 0.441969 0.441971 0.441974 0.441976 0.441979 0.441981 
0.441984 0.441986 0.441989 0.441991 0.441994 0.441996 0.441999 0.442001 0.442004 
0.442006 0.442009 0.442011 0.442014 0.442016 0.442019 0.442021 0.442024 0.442027 
0.442029 0.442032 0.442034 0.442037 0.442039 0.442042 0.442044 0.442047 0.442049 
0.442052 0.442053 0.442043 0.441937 0.439923 0.435974 0.260008 0.260023 0.260038 
0.260054 0.260069 0.260085 0.2601 0.260115 0.260131 0.260146 0.260161 0.260177 
0.260192 0.260207 0.260223 0.260238 0.260253 0.260269 0.260284 0.2603 0.260315 
0.26033 0.260345 0.260361 0.260376 0.260391 0.260407 0.260422 0.260437 0.260453 
0.260468 0.260483 0.260498 0.260514 0.260529 0.260544 0.26056 0.260575 0.26059 
0.260605 0.260621 0.260636 0.260651 0.260666 0.260682 0.260697 0.260712 0.260727 
0.260743 0.260758 0.260773 0.260788 0.260804 0.260819 0.260834 0.260849 0.260864 
0.26088 0.260895 0.26091 0.260925 0.26094 0.260956 0.260971 0.260986 0.261001 
0.261016 0.261032 0.261047 0.261062 0.261077 0.261092 0.261107 0.261123 0.261138 
0.261153 0.261168 0.261183 0.261198 0.261213 0.261229 0.261244 0.261259 0.261274 
0.261289 0.261304 0.261319 0.261334 0.26135 0.261365 0.26138 0.261395 0.26141 
0.261425 0.26144 0.261455 0.26147 0.261485 0.261501 0.261516 0.261531 0.261546 
0.261561 0.261576 0.261591 0.261606 0.261621 0.261636 0.261651 0.261666 0.261681 
0.261696 0.261711 0.261726 0.261741 0.261757 0.261772 0.261787 0.261802 0.261817 
0.261832 0.261847 0.261862 0.261877 0.261892 0.261907 0.261922 0.261937 0.261952 
0.261967 0.261982 0.261997 0.262012 0.262027 0.262042 0.262057 0.262072 0.262086 
0.262101 0.262116 0.262131 0.262146 0.262161 0.262176 0.262191 0.262206 0.262221 
0.262236 0.262251 0.262266 0.262281 0.262296 0.262311 0.262326 0.26234 0.262355 
0.26237 0.262385 0.2624 0.262415 0.26243 0.262445 0.26246 0.262475 0.262489 
0.262504 0.262519 0.262534 0.262549 0.262564 0.262579 0.262594 0.262608 0.262623 
0.262638 0.262653 0.262668 0.262683 0.262698 0.262712 0.262727 0.262742 0.262757 
0.262772 0.262787 0.262801 0.262816 0.262831 0.262846 0.262861 0.262877 0.262892 
0.262911 0.262936 0.262973 0.26306 0.263414 0.264251 0.265318 0.380455 0.414512 
0.441816 0.441819 0.441822 0.441825 0.441828 0.441831 0.441833 0.441836 0.441839 
0.441841 0.441844 0.441847 0.441849 0.441852 0.441854 0.441857 0.44186 0.441862 
0.441865 0.441867 0.44187 0.441872 0.441875 0.441877 0.44188 0.441883 0.441885 
0.441888 0.44189 0.441893 0.441895 0.441898 0.4419 0.441903 0.441905 0.441908 
0.44191 0.441913 0.441915 0.441918 0.441921 0.441923 0.441926 0.441928 0.441931 
0.441933 0.441936 0.441938 0.441941 0.441943 0.441946 0.441948 0.441951 0.441953 
0.441956 0.441958 0.441961 0.441963 0.441966 0.441969 0.441971 0.441974 0.441976 
0.441979 0.441981 0.441984 0.441986 0.441989 0.441991 0.441994 0.441996 0.441999 
0.442001 0.442004 0.442006 0.442009 0.442011 0.442014 0.442016 0.442019 0.442021 
0.442024 0.442027 0.442029 0.442032 0.442034 0.442037 0.442039 0.442042 0.442044 
0.442047 0.442049 0.442052 0.442053 0.442043 0.441937 0.439923 0.435974 0.260008 
0.260023 0.260038 0.260054 0.260069 0.260085 0.2601 0.260115 0.260131 0.260146 
0.260161 0.260177 0.260192 0.260207 0.260223 0.260238 0.260253 0.260269 0.260284 
0.2603 0.260315 0.26033 0.260345 0.260361 0.260376 0.260391 0.260407 0.260422 
0.260437 0.260453 0.260468 0.260483 0.260498 0.260514 0.260529 0.260544 0.26056 
0.260575 0.26059 0.260605 0.260621 0.260636 0.260651 0.260666 0.260682 0.260697 
0.260712 0.260727 0.260743 0.260758 0.260773 0.260788 0.260804 0.260819 0.260834 
0.260849 0.260864 0.26088 0.260895 0.26091 0.260925 0.26094 0.260956 0.260971 
0.260986 0.261001 0.261016 0.261032 0.261047 0.261062 0.261077 0.261092 0.261107 
0.261123 0.261138 0.261153 0.261168 0.261183 0.261198 0.261213 0.261229 0.261244 
0.261259 0.261274 0.261289 0.261304 0.261319 0.261334 0.26135 0.261365 0.26138 
0.261395 0.26141 0.261425 0.26144 0.261455 0.26147 0.261485 0.261501 0.261516 
0.261531 0.261546 0.261561 0.261576 0.261591 0.261606 0.261621 0.261636 0.261651 
0.261666 0.261681 0.261696 0.261711 0.261726 0.261741 0.261757 0.261772 0.261787 
0.261802 0.261817 0.261832 0.261847 0.261862 0.261877 0.261892 0.261907 0.261922 
0.261937 0.261952 0.261967 0.261982 0.261997 0.262012 0.262027 0.262042 0.262057 
0.262072 0.262086 0.262101 0.262116 0.262131 0.262146 0.262161 0.262176 0.262191 
0.262206 0.262221 0.262236 0.262251 0.262266 0.262281 0.262296 0.262311 0.262326 
0.26234 0.262355 0.26237 0.262385 0.2624 0.262415 0.26243 0.262445 0.26246 
0.262475 0.262489 0.262504 0.262519 0.262534 0.262549 0.262564 0.262579 0.262594 
0.262608 0.262623 0.262638 0.262653 0.262668 0.262683 0.262698 0.262712 0.262727 
0.262742 0.262757 0.262772 0.262787 0.262801 0.262816 0.262831 0.262846 0.262861 
0.262876 0.262892 0.26291 0.262935 0.262972 0.26306 0.263414 0.264248 0.265314 
0.380561 0.414551 0.441817 0.44182 0.441823 0.441825 0.441828 0.441831 0.441834 
0.441836 0.441839 0.441842 0.441844 0.441847 0.441849 0.441852 0.441855 0.441857 
0.44186 0.441862 0.441865 0.441867 0.44187 0.441872 0.441875 0.441877 0.44188 
0.441883 0.441885 0.441888 0.44189 0.441893 0.441895 0.441898 0.4419 0.441903 
0.441905 0.441908 0.44191 0.441913 0.441915 0.441918 0.441921 0.441923 0.441926 
0.441928 0.441931 0.441933 0.441936 0.441938 0.441941 0.441943 0.441946 0.441948 
0.441951 0.441953 0.441956 0.441958 0.441961 0.441963 0.441966 0.441969 0.441971 
0.441974 0.441976 0.441979 0.441981 0.441984 0.441986 0.441989 0.441991 0.441994 
0.441996 0.441999 0.442001 0.442004 0.442006 0.442009 0.442011 0.442014 0.442016 
0.442019 0.442021 0.442024 0.442027 0.442029 0.442032 0.442034 0.442037 0.442039 
0.442042 0.442044 0.442047 0.442049 0.442052 0.442053 0.442043 0.441937 0.439923 
0.435974 0.260008 0.260023 0.260038 0.260054 0.260069 0.260085 0.2601 0.260115 
0.260131 0.260146 0.260161 0.260177 0.260192 0.260207 0.260223 0.260238 0.260253 
0.260269 0.260284 0.2603 0.260315 0.26033 0.260345 0.260361 0.260376 0.260391 
0.260407 0.260422 0.260437 0.260453 0.260468 0.260483 0.260498 0.260514 0.260529 
0.260544 0.26056 0.260575 0.26059 0.260605 0.260621 0.260636 0.260651 0.260666 
0.260682 0.260697 0.260712 0.260727 0.260743 0.260758 0.260773 0.260788 0.260804 
0.260819 0.260834 0.260849 0.260864 0.26088 0.260895 0.26091 0.260925 0.26094 
0.260956 0.260971 0.260986 0.261001 0.261016 0.261032 0.261047 0.261062 0.261077 
0.261092 0.261107 0.261123 0.261138 0.261153 0.261168 0.261183 0.261198 0.261213 
0.261229 0.261244 0.261259 0.261274 0.261289 0.261304 0.261319 0.261334 0.26135 
0.261365 0.26138 0.261395 0.26141 0.261425 0.26144 0.261455 0.26147 0.261485 
0.261501 0.261516 0.261531 0.261546 0.261561 0.261576 0.261591 0.261606 0.261621 
0.261636 0.261651 0.261666 0.261681 0.261696 0.261711 0.261726 0.261741 0.261757 
0.261772 0.261787 0.261802 0.261817 0.261832 0.261847 0.261862 0.261877 0.261892 
0.261907 0.261922 0.261937 0.261952 0.261967 0.261982 0.261997 0.262012 0.262027 
0.262042 0.262057 0.262072 0.262086 0.262101 0.262116 0.262131 0.262146 0.262161 
0.262176 0.262191 0.262206 0.262221 0.262236 0.262251 0.262266 0.262281 0.262296 
0.262311 0.262326 0.26234 0.262355 0.26237 0.262385 0.2624 0.262415 0.26243 
0.262445 0.26246 0.262475 0.262489 0.262504 0.262519 0.262534 0.262549 0.262564 
0.262579 0.262594 0.262608 0.262623 0.262638 0.262653 0.262668 0.262683 0.262698 
0.262712 0.262727 0.262742 0.262757 0.262772 0.262787 0.262801 0.262816 0.262831 
0.262846 0.262861 0.262876 0.262891 0.262909 0.262934 0.262971 0.263058 0.263412 
0.264246 0.265313 0.380617 0.414574 0.441818 0.441821 0.441823 0.441826 0.441828 
0.441831 0.441834 0.441836 0.441839 0.441842 0.441844 0.441847 0.441849 0.441852 
0.441855 0.441857 0.44186 0.441862 0.441865 0.441867 0.44187 0.441872 0.441875 
0.441878 0.44188 0.441883 0.441885 0.441888 0.44189 0.441893 0.441895 0.441898 
0.4419 0.441903 0.441905 0.441908 0.44191 0.441913 0.441915 0.441918 0.441921 
0.441923 0.441926 0.441928 0.441931 0.441933 0.441936 0.441938 0.441941 0.441943 
0.441946 0.441948 0.441951 0.441953 0.441956 0.441958 0.441961 0.441963 0.441966 
0.441969 0.441971 0.441974 0.441976 0.441979 0.441981 0.441984 0.441986 0.441989 
0.441991 0.441994 0.441996 0.441999 0.442001 0.442004 0.442006 0.442009 0.442011 
0.442014 0.442016 0.442019 0.442021 0.442024 0.442027 0.442029 0.442032 0.442034 
0.442037 0.442039 0.442042 0.442044 0.442047 0.442049 0.442052 0.442053 0.442043 
0.441937 0.439923 0.435974 0.260008 0.260023 0.260038 0.260054 0.260069 0.260085 
0.2601 0.260115 0.260131 0.260146 0.260161 0.260177 0.260192 0.260207 0.260223 
0.260238 0.260253 0.260269 0.260284 0.2603 0.260315 0.26033 0.260345 0.260361 
0.260376 0.260391 0.260407 0.260422 0.260437 0.260453 0.260468 0.260483 0.260498 
0.260514 0.260529 0.260544 0.26056 0.260575 0.26059 0.260605 0.260621 0.260636 
0.260651 0.260666 0.260682 0.260697 0.260712 0.260727 0.260743 0.260758 0.260773 
0.260788 0.260804 0.260819 0.260834 0.260849 0.260864 0.26088 0.260895 0.26091 
0.260925 0.26094 0.260956 0.260971 0.260986 0.261001 0.261016 0.261032 0.261047 
0.261062 0.261077 0.261092 0.261107 0.261123 0.261138 0.261153 0.261168 0.261183 
0.261198 0.261213 0.261229 0.261244 0.261259 0.261274 0.261289 0.261304 0.261319 
0.261334 0.26135 0.261365 0.26138 0.261395 0.26141 0.261425 0.26144 0.261455 
0.26147 0.261485 0.261501 0.261516 0.261531 0.261546 0.261561 0.261576 0.261591 
0.261606 0.261621 0.261636 0.261651 0.261666 0.261681 0.261696 0.261711 0.261726 
0.261741 0.261757 0.261772 0.261787 0.261802 0.261817 0.261832 0.261847 0.261862 
0.261877 0.261892 0.261907 0.261922 0.261937 0.261952 0.261967 0.261982 0.261997 
0.262012 0.262027 0.262042 0.262057 0.262072 0.262086 0.262101 0.262116 0.262131 
0.262146 0.262161 0.262176 0.262191 0.262206 0.262221 0.262236 0.262251 0.262266 
0.262281 0.262296 0.262311 0.262326 0.26234 0.262355 0.26237 0.262385 0.2624 
0.262415 0.26243 0.262445 0.26246 0.262475 0.262489 0.262504 0.262519 0.262534 
0.262549 0.262564 0.262579 0.262594 0.262608 0.262623 0.262638 0.262653 0.262668 
0.262683 0.262697 0.262712 0.262727 0.262742 0.262757 0.262772 0.262786 0.262801 
0.262816 0.262831 0.262846 0.26286 0.262875 0.262891 0.262909 0.262933 0.26297 
0.263056 0.26341 0.264246 0.265314 0.380646 0.414587 0.441819 0.441821 0.441824 
0.441826 0.441829 0.441831 0.441834 0.441837 0.441839 0.441842 0.441844 0.441847 
0.441849 0.441852 0.441855 0.441857 0.44186 0.441862 0.441865 0.441867 0.44187 
0.441872 0.441875 0.441878 0.44188 0.441883 0.441885 0.441888 0.44189 0.441893 
0.441895 0.441898 0.4419 0.441903 0.441905 0.441908 0.44191 0.441913 0.441915 
0.441918 0.441921 0.441923 0.441926 0.441928 0.441931 0.441933 0.441936 0.441938 
0.441941 0.441943 0.441946 0.441948 0.441951 0.441953 0.441956 0.441958 0.441961 
0.441963 0.441966 0.441969 0.441971 0.441974 0.441976 0.441979 0.441981 0.441984 
0.441986 0.441989 0.441991 0.441994 0.441996 0.441999 0.442001 0.442004 0.442006 
0.442009 0.442011 0.442014 0.442016 0.442019 0.442021 0.442024 0.442027 0.442029 
0.442032 0.442034 0.442037 0.442039 0.442042 0.442044 0.442047 0.442049 0.442052 
0.442053 0.442043 0.441937 0.439923 0.435974 0.260008 0.260023 0.260038 0.260054 
0.260069 0.260085 0.2601 0.260115 0.260131 0.260146 0.260161 0.260177 0.260192 
0.260207 0.260223 0.260238 0.260253 0.260269 0.260284 0.2603 0.260315 0.26033 
0.260345 0.260361 0.260376 0.260391 0.260407 0.260422 0.260437 0.260453 0.260468 
0.260483 0.260498 0.260514 0.260529 0.260544 0.26056 0.260575 0.26059 0.260605 
0.260621 0.260636 0.260651 0.260666 0.260682 0.260697 0.260712 0.260727 0.260743 
0.260758 0.260773 0.260788 0.260804 0.260819 0.260834 0.260849 0.260864 0.26088 
0.260895 0.26091 0.260925 0.26094 0.260956 0.260971 0.260986 0.261001 0.261016 
0.261032 0.261047 0.261062 0.261077 0.261092 0.261107 0.261123 0.261138 0.261153 
0.261168 0.261183 0.261198 0.261213 0.261229 0.261244 0.261259 0.261274 0.261289 
0.261304 0.261319 0.261334 0.26135 0.261365 0.26138 0.261395 0.26141 0.261425 
0.26144 0.261455 0.26147 0.261485 0.261501 0.261516 0.261531 0.261546 0.261561 
0.261576 0.261591 0.261606 0.261621 0.261636 0.261651 0.261666 0.261681 0.261696 