# vtk DataFile Version 5.1
vtk output
ASCII
DATASET UNSTRUCTURED_GRID
POINTS 616 double
-10.1 1.299999997 0 -9.899999997 1.299999997 0 -9.899999997 1.5 0 
-9.699999994 1.299999997 0 -9.699999994 1.5 0 -9.4999999911 1.299999997 0 
-9.4999999911 1.5 0 -9.2999999881 1.299999997 0 -9.2999999881 1.5 0 
-9.0999999851 1.299999997 0 -9.0999999851 1.5 0 -8.8999999821 1.299999997 0 
-8.8999999821 1.5 0 -8.6999999791 1.299999997 0 -8.6999999791 1.5 0 
-8.4999999762 1.299999997 0 -8.4999999762 1.5 0 -8.2999999732 1.299999997 0 
-8.2999999732 1.5 0 -8.0999999702 1.299999997 0 -8.0999999702 1.5 0 
-7.8999999672 1.299999997 0 -7.8999999672 1.5 0 -7.6999999642 1.299999997 0 
-7.6999999642 1.5 0 -7.4999999613 1.299999997 0 -7.4999999613 1.5 0 
-7.2999999583 1.299999997 0 -7.2999999583 1.5 0 -7.0999999553 1.299999997 0 
-7.0999999553 1.5 0 -6.8999999523 1.299999997 0 -6.8999999523 1.5 0 
-6.6999999493 1.299999997 0 -6.6999999493 1.5 0 -6.4999999464 1.299999997 0 
-6.4999999464 1.5 0 -6.2999999434 1.299999997 0 -6.2999999434 1.5 0 
-6.0999999404 1.299999997 0 -6.0999999404 1.5 0 -5.8999999374 1.299999997 0 
-5.8999999374 1.5 0 -5.6999999344 1.299999997 0 -5.6999999344 1.5 0 
-5.4999999315 1.299999997 0 -5.4999999315 1.5 0 -5.2999999285 1.299999997 0 
-5.2999999285 1.5 0 -5.0999999255 1.299999997 0 -5.0999999255 1.5 0 
-4.8999999225 1.299999997 0 -4.8999999225 1.5 0 -4.6999999195 1.299999997 0 
-4.6999999195 1.5 0 -4.4999999166 1.299999997 0 -4.4999999166 1.5 0 
-4.2999999136 1.299999997 0 -4.2999999136 1.5 0 -4.0999999106 1.299999997 0 
-4.0999999106 1.5 0 -3.8999999076 1.299999997 0 -3.8999999076 1.5 0 
-3.6999999046 1.299999997 0 -3.6999999046 1.5 0 -3.4999999017 1.299999997 0 
-3.4999999017 1.5 0 -3.2999998987 1.299999997 0 -3.2999998987 1.5 0 
-3.0999998957 1.299999997 0 -3.0999998957 1.5 0 -2.8999998927 1.299999997 0 
-2.8999998927 1.5 0 -2.6999998897 1.299999997 0 -2.6999998897 1.5 0 
-2.4999998868 1.299999997 0 -2.4999998868 1.5 0 -2.2999998838 1.299999997 0 
-2.2999998838 1.5 0 -2.0999998808 1.299999997 0 -2.0999998808 1.5 0 
-1.8999998778 1.299999997 0 -1.8999998778 1.5 0 -1.6999998748 1.299999997 0 
-1.6999998748 1.5 0 -1.4999998719 1.299999997 0 -1.4999998719 1.5 0 
-1.2999998689 1.299999997 0 -1.2999998689 1.5 0 -1.0999998659 1.299999997 0 
-1.0999998659 1.5 0 -0.89999986291 1.299999997 0 -0.89999986291 1.5 0 
-0.69999985993 1.299999997 0 -0.69999985993 1.5 0 -0.49999985695 1.299999997 0 
-0.49999985695 1.5 0 -0.29999985397 1.299999997 0 -0.29999985397 1.5 0 
-0.099999850988 1.299999997 0 -0.099999850988 1.5 0 0.10000015199 1.299999997 0 
0.10000015199 1.5 0 0.30000015497 1.299999997 0 0.30000015497 1.5 0 
0.50000015795 1.299999997 0 0.50000015795 1.5 0 0.70000016093 1.299999997 0 
0.70000016093 1.5 0 0.90000016391 1.299999997 0 0.90000016391 1.5 0 
1.1000001669 1.299999997 0 1.1000001669 1.5 0 1.3000001699 1.299999997 0 
1.3000001699 1.5 0 1.5000001729 1.299999997 0 1.5000001729 1.5 0 
1.7000001758 1.299999997 0 1.7000001758 1.5 0 1.9000001788 1.299999997 0 
1.9000001788 1.5 0 2.1000001818 1.299999997 0 2.1000001818 1.5 0 
2.3000001848 1.299999997 0 2.3000001848 1.5 0 2.5000001878 1.299999997 0 
2.5000001878 1.5 0 2.7000001907 1.299999997 0 2.7000001907 1.5 0 
2.9000001937 1.299999997 0 2.9000001937 1.5 0 3.1000001967 1.299999997 0 
3.1000001967 1.5 0 3.3000001997 1.299999997 0 3.3000001997 1.5 0 
3.5000002027 1.299999997 0 3.5000002027 1.5 0 3.7000002056 1.299999997 0 
3.7000002056 1.5 0 3.9000002086 1.299999997 0 3.9000002086 1.5 0 
4.1000002116 1.299999997 0 4.1000002116 1.5 0 4.3000002146 1.299999997 0 
4.3000002146 1.5 0 4.5000002176 1.299999997 0 4.5000002176 1.5 0 
4.7000002205 1.299999997 0 4.7000002205 1.5 0 4.9000002235 1.299999997 0 
4.9000002235 1.5 0 5.08 1.299999997 0 -9.899999997 1.099999994 0 
-10.1 1.099999994 0 -9.699999994 1.099999994 0 -9.4999999911 1.099999994 0 
-9.2999999881 1.099999994 0 -9.0999999851 1.099999994 0 -8.8999999821 1.099999994 0 
-8.6999999791 1.099999994 0 -8.4999999762 1.099999994 0 -8.2999999732 1.099999994 0 
-8.0999999702 1.099999994 0 -7.8999999672 1.099999994 0 -7.6999999642 1.099999994 0 
-7.4999999613 1.099999994 0 -7.2999999583 1.099999994 0 -7.0999999553 1.099999994 0 
-6.8999999523 1.099999994 0 -6.6999999493 1.099999994 0 -6.4999999464 1.099999994 0 
-6.2999999434 1.099999994 0 -6.0999999404 1.099999994 0 -5.8999999374 1.099999994 0 
-5.6999999344 1.099999994 0 -5.4999999315 1.099999994 0 -5.2999999285 1.099999994 0 
-5.0999999255 1.099999994 0 -4.8999999225 1.099999994 0 -4.6999999195 1.099999994 0 
-4.4999999166 1.099999994 0 -4.2999999136 1.099999994 0 -4.0999999106 1.099999994 0 
-3.8999999076 1.099999994 0 -3.6999999046 1.099999994 0 -3.4999999017 1.099999994 0 
-3.2999998987 1.099999994 0 -3.0999998957 1.099999994 0 -2.8999998927 1.099999994 0 
-2.6999998897 1.099999994 0 -2.4999998868 1.099999994 0 -2.2999998838 1.099999994 0 
-2.0999998808 1.099999994 0 -1.8999998778 1.099999994 0 -1.6999998748 1.099999994 0 
-1.4999998719 1.099999994 0 -1.2999998689 1.099999994 0 -1.0999998659 1.099999994 0 
-0.89999986291 1.099999994 0 -0.69999985993 1.099999994 0 -0.49999985695 1.099999994 0 
-0.29999985397 1.099999994 0 -0.099999850988 1.099999994 0 0.10000015199 1.099999994 0 
0.30000015497 1.099999994 0 0.50000015795 1.099999994 0 0.70000016093 1.099999994 0 
0.90000016391 1.099999994 0 1.1000001669 1.099999994 0 1.3000001699 1.099999994 0 
1.5000001729 1.099999994 0 1.7000001758 1.099999994 0 1.9000001788 1.099999994 0 
2.1000001818 1.099999994 0 2.3000001848 1.099999994 0 2.5000001878 1.099999994 0 
2.7000001907 1.099999994 0 2.9000001937 1.099999994 0 3.1000001967 1.099999994 0 
3.3000001997 1.099999994 0 3.5000002027 1.099999994 0 3.7000002056 1.099999994 0 
3.9000002086 1.099999994 0 4.1000002116 1.099999994 0 4.3000002146 1.099999994 0 
4.5000002176 1.099999994 0 4.7000002205 1.099999994 0 4.9000002235 1.099999994 0 
5.08 1.099999994 0 -9.899999997 0.89999999106 0 -10.1 0.89999999106 0 
-9.699999994 0.89999999106 0 -9.4999999911 0.89999999106 0 -9.2999999881 0.89999999106 0 
-9.0999999851 0.89999999106 0 -8.8999999821 0.89999999106 0 -8.6999999791 0.89999999106 0 
-8.4999999762 0.89999999106 0 -8.2999999732 0.89999999106 0 -8.0999999702 0.89999999106 0 
-7.8999999672 0.89999999106 0 -7.6999999642 0.89999999106 0 -7.4999999613 0.89999999106 0 
-7.2999999583 0.89999999106 0 -7.0999999553 0.89999999106 0 -6.8999999523 0.89999999106 0 
-6.6999999493 0.89999999106 0 -6.4999999464 0.89999999106 0 -6.2999999434 0.89999999106 0 
-6.0999999404 0.89999999106 0 -5.8999999374 0.89999999106 0 -5.6999999344 0.89999999106 0 
-5.4999999315 0.89999999106 0 -5.2999999285 0.89999999106 0 -5.0999999255 0.89999999106 0 
-4.8999999225 0.89999999106 0 -4.6999999195 0.89999999106 0 -4.4999999166 0.89999999106 0 
-4.2999999136 0.89999999106 0 -4.0999999106 0.89999999106 0 -3.8999999076 0.89999999106 0 
-3.6999999046 0.89999999106 0 -3.4999999017 0.89999999106 0 -3.2999998987 0.89999999106 0 
-3.0999998957 0.89999999106 0 -2.8999998927 0.89999999106 0 -2.6999998897 0.89999999106 0 
-2.4999998868 0.89999999106 0 -2.2999998838 0.89999999106 0 -2.0999998808 0.89999999106 0 
-1.8999998778 0.89999999106 0 -1.6999998748 0.89999999106 0 -1.4999998719 0.89999999106 0 
-1.2999998689 0.89999999106 0 -1.0999998659 0.89999999106 0 -0.89999986291 0.89999999106 0 
-0.69999985993 0.89999999106 0 -0.49999985695 0.89999999106 0 -0.29999985397 0.89999999106 0 
-0.099999850988 0.89999999106 0 0.10000015199 0.89999999106 0 0.30000015497 0.89999999106 0 
0.50000015795 0.89999999106 0 0.70000016093 0.89999999106 0 0.90000016391 0.89999999106 0 
1.1000001669 0.89999999106 0 1.3000001699 0.89999999106 0 1.5000001729 0.89999999106 0 
1.7000001758 0.89999999106 0 1.9000001788 0.89999999106 0 2.1000001818 0.89999999106 0 
2.3000001848 0.89999999106 0 2.5000001878 0.89999999106 0 2.7000001907 0.89999999106 0 
2.9000001937 0.89999999106 0 3.1000001967 0.89999999106 0 3.3000001997 0.89999999106 0 
3.5000002027 0.89999999106 0 3.7000002056 0.89999999106 0 3.9000002086 0.89999999106 0 
4.1000002116 0.89999999106 0 4.3000002146 0.89999999106 0 4.5000002176 0.89999999106 0 
4.7000002205 0.89999999106 0 4.9000002235 0.89999999106 0 5.08 0.89999999106 0 
-9.899999997 0.69999998808 0 -10.1 0.69999998808 0 -9.699999994 0.69999998808 0 
-9.4999999911 0.69999998808 0 -9.2999999881 0.69999998808 0 -9.0999999851 0.69999998808 0 
-8.8999999821 0.69999998808 0 -8.6999999791 0.69999998808 0 -8.4999999762 0.69999998808 0 
-8.2999999732 0.69999998808 0 -8.0999999702 0.69999998808 0 -7.8999999672 0.69999998808 0 
-7.6999999642 0.69999998808 0 -7.4999999613 0.69999998808 0 -7.2999999583 0.69999998808 0 
-7.0999999553 0.69999998808 0 -6.8999999523 0.69999998808 0 -6.6999999493 0.69999998808 0 
-6.4999999464 0.69999998808 0 -6.2999999434 0.69999998808 0 -6.0999999404 0.69999998808 0 
-5.8999999374 0.69999998808 0 -5.6999999344 0.69999998808 0 -5.4999999315 0.69999998808 0 
-5.2999999285 0.69999998808 0 -5.0999999255 0.69999998808 0 -4.8999999225 0.69999998808 0 
-4.6999999195 0.69999998808 0 -4.4999999166 0.69999998808 0 -4.2999999136 0.69999998808 0 
-4.0999999106 0.69999998808 0 -3.8999999076 0.69999998808 0 -3.6999999046 0.69999998808 0 
-3.4999999017 0.69999998808 0 -3.2999998987 0.69999998808 0 -3.0999998957 0.69999998808 0 
-2.8999998927 0.69999998808 0 -2.6999998897 0.69999998808 0 -2.4999998868 0.69999998808 0 
-2.2999998838 0.69999998808 0 -2.0999998808 0.69999998808 0 -1.8999998778 0.69999998808 0 
-1.6999998748 0.69999998808 0 -1.4999998719 0.69999998808 0 -1.2999998689 0.69999998808 0 
-1.0999998659 0.69999998808 0 -0.89999986291 0.69999998808 0 -0.69999985993 0.69999998808 0 
-0.49999985695 0.69999998808 0 -0.29999985397 0.69999998808 0 -0.099999850988 0.69999998808 0 
0.10000015199 0.69999998808 0 0.30000015497 0.69999998808 0 0.50000015795 0.69999998808 0 
0.70000016093 0.69999998808 0 0.90000016391 0.69999998808 0 1.1000001669 0.69999998808 0 
[...]
CELL_DATA 532
FIELD FieldData 4
Water_Depth_m 1 532 float
0.340144 0.340418 0.340684 0.340933 0.341159 0.341356 0.341519 0.341644 0.341731 
0.341779 0.34179 0.341762 0.341695 0.341586 0.341437 0.341247 0.341022 0.340768 
0.340497 0.340226 0.339976 0.339771 0.339635 0.339584 0.339624 0.33974 0.339912 
0.340117 0.340335 0.340548 0.340743 0.340915 0.341065 0.341194 0.341306 0.341404 
0.341492 0.34157 0.341642 0.34171 0.341781 0.34186 0.341958 0.342094 0.342298 
0.34262 0.343141 0.343977 0.345256 0.347087 0.349387 0.351924 0.354112 0.355718 
0.356782 0.357477 0.357934 0.35824 0.35845 0.358598 0.358704 0.358783 0.358845 
0.358893 0.358934 0.358968 0.358999 0.359026 0.35905 0.359073 0.359094 0.359114 
0.359133 0.359142 0.359155 0.351738 0.340144 0.340423 0.340695 0.340952 0.341185 
0.341387 0.341553 0.34168 0.341767 0.341815 0.341825 0.341797 0.341728 0.341617 
0.341463 0.341267 0.341032 0.340766 0.340479 0.340188 0.339918 0.339696 0.339549 
0.339497 0.339549 0.339682 0.339874 0.340101 0.340337 0.340561 0.340761 0.340935 
0.341083 0.341209 0.341317 0.341413 0.341499 0.341575 0.341644 0.341709 0.341774 
0.341844 0.34193 0.342043 0.342207 0.34246 0.34287 0.343544 0.344623 0.346343 
0.348742 0.351847 0.354355 0.356004 0.357017 0.357648 0.358054 0.358322 0.358506 
0.358635 0.358729 0.3588 0.358856 0.358901 0.358939 0.358972 0.359001 0.359027 
0.359051 0.359074 0.359095 0.359114 0.359133 0.359142 0.359155 0.351738 0.340145 
0.340434 0.34072 0.340991 0.341236 0.341446 0.341618 0.341747 0.341833 0.34188 
0.34189 0.34186 0.341788 0.341672 0.341509 0.341301 0.341048 0.340757 0.340437 
0.340109 0.339798 0.339539 0.339369 0.339319 0.339395 0.339569 0.339806 0.340079 
0.340351 0.340595 0.340803 0.340975 0.341118 0.341236 0.341339 0.341431 0.341514 
0.341587 0.341651 0.341709 0.341763 0.341819 0.341882 0.341958 0.342057 0.342195 
0.342416 0.342779 0.343401 0.344676 0.346926 0.351833 0.355008 0.356631 0.357491 
0.357982 0.358281 0.358476 0.358608 0.358703 0.358775 0.35883 0.358876 0.358914 
0.358948 0.358978 0.359005 0.35903 0.359053 0.359075 0.359096 0.359115 0.359133 
0.359142 0.359155 0.351738 0.340147 0.340449 0.340753 0.341041 0.341299 0.341517 
0.341692 0.341823 0.341909 0.341956 0.341964 0.341931 0.341853 0.341729 0.341554 
0.341328 0.34105 0.340725 0.340361 0.339979 0.33961 0.339299 0.3391 0.339057 
0.339186 0.339434 0.339751 0.340085 0.340389 0.340646 0.340854 0.341018 0.341151 
0.341261 0.341359 0.341448 0.341529 0.341598 0.341656 0.341704 0.341748 0.341789 
0.34183 0.341872 0.34192 0.341966 0.342027 0.342088 0.342263 0.342278 0.342298 
0.3527 0.356455 0.357669 0.358187 0.358443 0.358587 0.358678 0.358743 0.358792 
0.358834 0.35887 0.358902 0.358932 0.358959 0.358985 0.35901 0.359033 0.359055 
0.359077 0.359097 0.359116 0.359134 0.359142 0.359155 0.351738 0.340139 0.340445 
0.340762 0.341063 0.341331 0.341558 0.341739 0.341875 0.341965 0.342011 0.342016 
0.341976 0.341892 0.341758 0.341571 0.341327 0.341026 0.340671 0.340271 0.339846 
0.339433 0.33909 0.338885 0.338879 0.339078 0.339385 0.339733 0.340072 0.340372 
0.340622 0.340825 0.340989 0.341123 0.341237 0.341337 0.341427 0.34151 0.341576 
0.341625 0.341664 0.341697 0.341729 0.341759 0.341788 0.341819 0.341846 0.341863 
0.34187 0.341863 0.341791 0.360973 0.359101 0.359063 0.35905 0.359004 0.358956 
0.358918 0.358895 0.358886 0.358887 0.358896 0.358911 0.358929 0.35895 0.358971 
0.358993 0.359015 0.359037 0.359058 0.359078 0.359098 0.359117 0.359134 0.359143 
0.359155 0.351738 0.340139 0.34045 0.340772 0.341071 0.341332 0.34155 0.341724 
0.341858 0.341949 0.341997 0.342003 0.341964 0.341879 0.341744 0.341554 0.341305 
0.340998 0.340639 0.340237 0.339816 0.339415 0.339093 0.33892 0.338945 0.339142 
0.339439 0.339771 0.340093 0.34038 0.340622 0.340819 0.340981 0.341116 0.34123 
0.34133 0.341418 0.341496 0.34156 0.341612 0.341655 0.341692 0.341726 0.341758 
0.341787 0.341813 0.341836 0.341851 0.341858 0.341855 0.341837 0.361288 0.360919 
0.36049 0.360038 0.359666 0.359394 0.359208 0.359086 0.359012 0.35897 0.358951 
0.358948 0.358954 0.358966 0.358982 0.359 0.35902 0.35904 0.35906 0.35908 
0.359099 0.359117 0.359135 0.359143 0.359155 0.351738 0.34016 0.340479 0.340785 
0.341064 0.341308 0.341513 0.34168 0.341811 0.341903 0.341951 0.341958 0.341922 
0.34184 0.341709 0.341524 0.341285 0.340991 0.340654 0.340279 0.339891 0.339529 
0.339247 0.339103 0.33913 0.339286 0.339532 0.339818 0.340105 0.340369 0.340599 
0.340793 0.340956 0.341094 0.341212 0.341314 0.341403 0.34148 0.341545 0.3416 
0.341647 0.341687 0.341723 0.341756 0.341785 0.341811 0.341832 0.341849 0.341859 
0.341861 0.341858 0.36206 0.361875 0.361328 0.360714 0.360173 0.359754 0.359455 
0.359253 0.359123 0.359044 0.359 0.35898 0.358975 0.35898 0.358991 0.359007 
0.359024 0.359043 0.359062 0.359081 0.3591 0.359118 0.359136 0.359142 0.359154 
0.351737 
Water_Elev_m 1 532 float
0.340144 0.340418 0.340684 0.340933 0.341159 0.341356 0.341519 0.341644 0.341731 
0.341779 0.34179 0.341762 0.341695 0.341586 0.341437 0.341247 0.341022 0.340768 
0.340497 0.340226 0.339976 0.339771 0.339635 0.339584 0.339624 0.33974 0.339912 
0.340117 0.340335 0.340548 0.340743 0.340915 0.341065 0.341194 0.341306 0.341404 
0.341492 0.34157 0.341642 0.34171 0.341781 0.34186 0.341958 0.342094 0.342298 
0.34262 0.343141 0.343977 0.345256 0.347087 0.349387 0.351924 0.354112 0.355718 
0.356782 0.357477 0.357934 0.35824 0.35845 0.358598 0.358704 0.358783 0.358845 
0.358893 0.358934 0.358968 0.358999 0.359026 0.35905 0.359073 0.359094 0.359114 
0.359133 0.359142 0.359155 0.351738 0.340144 0.340423 0.340695 0.340952 0.341185 
0.341387 0.341553 0.34168 0.341767 0.341815 0.341825 0.341797 0.341728 0.341617 
0.341463 0.341267 0.341032 0.340766 0.340479 0.340188 0.339918 0.339696 0.339549 
0.339497 0.339549 0.339682 0.339874 0.340101 0.340337 0.340561 0.340761 0.340935 
0.341083 0.341209 0.341317 0.341413 0.341499 0.341575 0.341644 0.341709 0.341774 
0.341844 0.34193 0.342043 0.342207 0.34246 0.34287 0.343544 0.344623 0.346343 
0.348742 0.351847 0.354355 0.356004 0.357017 0.357648 0.358054 0.358322 0.358506 
0.358635 0.358729 0.3588 0.358856 0.358901 0.358939 0.358972 0.359001 0.359027 
0.359051 0.359074 0.359095 0.359114 0.359133 0.359142 0.359155 0.351738 0.340145 
0.340434 0.34072 0.340991 0.341236 0.341446 0.341618 0.341747 0.341833 0.34188 
0.34189 0.34186 0.341788 0.341672 0.341509 0.341301 0.341048 0.340757 0.340437 
0.340109 0.339798 0.339539 0.339369 0.339319 0.339395 0.339569 0.339806 0.340079 
0.340351 0.340595 0.340803 0.340975 0.341118 0.341236 0.341339 0.341431 0.341514 
0.341587 0.341651 0.341709 0.341763 0.341819 0.341882 0.341958 0.342057 0.342195 
0.342416 0.342779 0.343401 0.344676 0.346926 0.351833 0.355008 0.356631 0.357491 
0.357982 0.358281 0.358476 0.358608 0.358703 0.358775 0.35883 0.358876 0.358914 
0.358948 0.358978 0.359005 0.35903 0.359053 0.359075 0.359096 0.359115 0.359133 
0.359142 0.359155 0.351738 0.340147 0.340449 0.340753 0.341041 0.341299 0.341517 
0.341692 0.341823 0.341909 0.341956 0.341964 0.341931 0.341853 0.341729 0.341554 
0.341328 0.34105 0.340725 0.340361 0.339979 0.33961 0.339299 0.3391 0.339057 
0.339186 0.339434 0.339751 0.340085 0.340389 0.340646 0.340854 0.341018 0.341151 
0.341261 0.341359 0.341448 0.341529 0.341598 0.341656 0.341704 0.341748 0.341789 
0.34183 0.341872 0.34192 0.341966 0.342027 0.342088 0.342263 0.342278 0.342298 
0.3527 0.356455 0.357669 0.358187 0.358443 0.358587 0.358678 0.358743 0.358792 
0.358834 0.35887 0.358902 0.358932 0.358959 0.358985 0.35901 0.359033 0.359055 
0.359077 0.359097 0.359116 0.359134 0.359142 0.359155 0.351738 0.340139 0.340445 
0.340762 0.341063 0.341331 0.341558 0.341739 0.341875 0.341965 0.342011 0.342016 
0.341976 0.341892 0.341758 0.341571 0.341327 0.341026 0.340671 0.340271 0.339846 
0.339433 0.33909 0.338885 0.338879 0.339078 0.339385 0.339733 0.340072 0.340372 
0.340622 0.340825 0.340989 0.341123 0.341237 0.341337 0.341427 0.34151 0.341576 
0.341625 0.341664 0.341697 0.341729 0.341759 0.341788 0.341819 0.341846 0.341863 
0.34187 0.341863 0.341791 0.360973 0.359101 0.359063 0.35905 0.359004 0.358956 
0.358918 0.358895 0.358886 0.358887 0.358896 0.358911 0.358929 0.35895 0.358971 
0.358993 0.359015 0.359037 0.359058 0.359078 0.359098 0.359117 0.359134 0.359143 
0.359155 0.351738 0.340139 0.34045 0.340772 0.341071 0.341332 0.34155 0.341724 
0.341858 0.341949 0.341997 0.342003 0.341964 0.341879 0.341744 0.341554 0.341305 
0.340998 0.340639 0.340237 0.339816 0.339415 0.339093 0.33892 0.338945 0.339142 
0.339439 0.339771 0.340093 0.34038 0.340622 0.340819 0.340981 0.341116 0.34123 
0.34133 0.341418 0.341496 0.34156 0.341612 0.341655 0.341692 0.341726 0.341758 
0.341787 0.341813 0.341836 0.341851 0.341858 0.341855 0.341837 0.361288 0.360919 
0.36049 0.360038 0.359666 0.359394 0.359208 0.359086 0.359012 0.35897 0.358951 
0.358948 0.358954 0.358966 0.358982 0.359 0.35902 0.35904 0.35906 0.35908 
0.359099 0.359117 0.359135 0.359143 0.359155 0.351738 0.34016 0.340479 0.340785 
0.341064 0.341308 0.341513 0.34168 0.341811 0.341903 0.341951 0.341958 0.341922 
0.34184 0.341709 0.341524 0.341285 0.340991 0.340654 0.340279 0.339891 0.339529 
0.339247 0.339103 0.33913 0.339286 0.339532 0.339818 0.340105 0.340369 0.340599 
0.340793 0.340956 0.341094 0.341212 0.341314 0.341403 0.34148 0.341545 0.3416 
0.341647 0.341687 0.341723 0.341756 0.341785 0.341811 0.341832 0.341849 0.341859 
0.341861 0.341858 0.36206 0.361875 0.361328 0.360714 0.360173 0.359754 0.359455 
0.359253 0.359123 0.359044 0.359 0.35898 0.358975 0.35898 0.358991 0.359007 
0.359024 0.359043 0.359062 0.359081 0.3591 0.359118 0.359136 0.359142 0.359154 
0.351737 
Velocity_cell_m_p_s 3 532 double
-0.51880353689 0.0023550943006 -0 -0.51355332136 0.002364390064 -0 -0.50848919153 0.002293827245 -0 
-0.50369560719 0.0021140365861 -0 -0.49940481782 0.001817719196 -0 -0.49584418535 0.0014160654973 -0 
-0.49320614338 0.00093131937319 -0 -0.49163421988 0.00038868215051 -0 -0.491222471 -0.00018845590239 -0 
-0.492007792 -0.00076784292469 -0 -0.49397596717 -0.0013418957824 -0 -0.49710735679 -0.0019181919051 -0 
-0.50141745806 -0.0024948453065 -0 -0.50691914558 -0.0030643837526 -0 -0.51358652115 -0.0036129718646 -0 
-0.52135765553 -0.0041189021431 -0 -0.53011697531 -0.0045513231307 -0 -0.53967618942 -0.0048704543151 -0 
-0.54975730181 -0.0050301891752 -0 -0.5599835515 -0.0049832253717 -0 -0.56988555193 -0.0046916347928 -0 
-0.57893466949 -0.0041420315392 -0 -0.58661001921 -0.0033613296691 -0 -0.59249591827 -0.0024290953297 -0 
-0.59631502628 -0.0014673806727 -0 -0.59814625978 -0.00060443137772 -0 -0.59838330746 6.7916727858e-05 -0 
-0.59745854139 0.00052808236796 -0 -0.59584182501 0.00075851246947 -0 -0.59398621321 0.00078688835492 -0 
-0.59224385023 0.00067760894308 -0 -0.59082794189 0.00049727386795 -0 -0.589828372 0.00029703896143 -0 
-0.58924800158 0.00010983244283 -0 -0.58904093504 -4.962793173e-05 -0 -0.58914196491 -0.00017675558047 -0 
-0.58949434757 -0.0002834990155 -0 -0.59006094933 -0.00037758680992 -0 -0.59081226587 -0.00045984835015 -0 
-0.59171080589 -0.00052364036674 -0 -0.59270185232 -0.00056137138745 -0 -0.59370058775 -0.00055562250782 -0 
-0.5945841074 -0.00049525813665 -0 -0.59514945745 -0.00032760153408 -0 -0.59508484602 -2.5531626306e-05 -0 
-0.59381568432 0.0006058414001 -0 -0.59044468403 0.0016443654895 -0 -0.58338713646 0.0036742568482 -0 
-0.57056587934 0.0066420892254 -0 -0.54897975922 0.011751786806 -0 -0.51654869318 0.017183085904 -0 
-0.47313663363 0.023120319471 -0 -0.42505374551 0.022742075846 -0 -0.38272333145 0.018210779876 -0 
-0.35048854351 0.013240909204 -0 -0.32760933042 0.0092106321827 -0 -0.31190690398 0.0062719765119 -0 
-0.3013138175 0.0042248726822 -0 -0.2942391634 0.0028293763753 -0 -0.28954896331 0.0018885268364 -0 
-0.28646171093 0.0012579988688 -0 -0.28444740176 0.00083690893371 -0 -0.28314971924 0.00055629236158 -0 
-0.28233018517 0.00036953785457 -0 -0.28182962537 0.00024534904514 -0 -0.28154209256 0.00016279524425 -0 
-0.28139704466 0.00010791097884 -0 -0.2813475728 7.1390866651e-05 -0 -0.28136262298 4.7040055506e-05 -0 
-0.28142148256 3.0740178772e-05 -0 -0.2815105021 1.9765764591e-05 -0 -0.28162059188 1.2338981833e-05 -0 
-0.28174874187 7.3414994404e-06 -0 -0.28188866377 4.1322191464e-06 -0 -0.28203824162 2.239130481e-06 -0 
-0.40457335114 2.2375452318e-06 -0 -0.50690686703 0.0068899383768 -0 -0.50197952986 0.006953576114 -0 
-0.49717503786 0.0067630717531 -0 -0.49260774255 0.0062343636528 -0 -0.48852714896 0.0053505576216 -0 
-0.48516491055 0.0041526667774 -0 -0.48270463943 0.0027124604676 -0 -0.48127445579 0.0011072293855 -0 
-0.48095801473 -0.00059996941127 -0 -0.48179191351 -0.002315958729 -0 -0.48377636075 -0.0040289461613 -0 
-0.48691517115 -0.0057582757436 -0 -0.49123948812 -0.0074944030493 -0 -0.49677318335 -0.009214845486 -0 
-0.50350344181 -0.01087963488 -0 -0.51138460636 -0.012424924411 -0 -0.52031809092 -0.013757904992 -0 
-0.53013002872 -0.014756775461 -0 -0.54054939747 -0.015277345665 -0 -0.55119025707 -0.015167742968 -0 
-0.56154853106 -0.014299599454 -0 -0.57102942467 -0.012617140077 -0 -0.57901901007 -0.010191902518 -0 
-0.58500367403 -0.0072747860104 -0 -0.58865457773 -0.0042604259215 -0 -0.59008955956 -0.0015808264725 -0 
-0.58980792761 0.00046724331332 -0 -0.58835291862 0.0018305503763 -0 -0.58630394936 0.0024468414485 -0 
-0.58418780565 0.0024430542253 -0 -0.58235156536 0.0020441673696 -0 -0.58096021414 0.0014603558229 -0 
-0.58004724979 0.00084297062131 -0 -0.57957035303 0.00028207647847 -0 -0.57945162058 -0.00018258132332 -0 
-0.57961070538 -0.00054847577121 -0 -0.57999587059 -0.00085934763774 -0 -0.58058440685 -0.0011396036716 -0 
-0.58136093616 -0.0013903770596 -0 -0.58229845762 -0.0015892414376 -0 -0.58334845304 -0.0017110210611 -0 
-0.58443433046 -0.0017065837746 -0 -0.58545261621 -0.0015472300583 -0 -0.58623695374 -0.0010825600475 -0 
-0.58656078577 -0.00026601323043 -0 -0.58597123623 0.0014896374196 -0 -0.58388012648 0.0042245658115 -0 
-0.57878577709 0.010087203234 -0 -0.56911361217 0.017985578626 -0 -0.55063897371 0.034116912633 -0 
-0.52023869753 0.05019434914 -0 -0.47282063961 0.074144802988 -0 -0.41712746024 0.070801153779 -0 
-0.37231218815 0.054462470114 -0 -0.34131532907 0.038658943027 -0 -0.32062077522 0.026538178325 -0 
-0.30691564083 0.017939858139 -0 -0.29786044359 0.012034897693 -0 -0.29188942909 0.0080404030159 -0 
-0.28796502948 0.0053589572199 -0 -0.28539973497 0.0035664886236 -0 -0.28373774886 0.0023712702096 -0 
-0.28267639875 0.0015755654313 -0 -0.2820148468 0.0010463574436 -0 -0.2816196382 0.00069459417136 -0 
-0.28140217066 0.00046082801418 -0 -0.28130367398 0.00030544024776 -0 -0.28128510714 0.00020205047622 -0 
-0.2813205719 0.00013310162467 -0 -0.28139299154 8.6918851594e-05 -0 -0.28149098158 5.5769629398e-05 -0 
-0.28160712123 3.460536027e-05 -0 -0.28173950315 2.0272038455e-05 -0 -0.2818826437 1.0994159311e-05 -0 
-0.28203460574 5.7567099248e-06 -0 -0.40457201004 5.205425623e-06 -0 -0.46513041854 0.0106162671 -0 
-0.46150907874 0.01076390408 -0 -0.45799672604 0.01047968585 -0 -0.4547059238 0.0096200592816 -0 
-0.45186504722 0.0081816539168 -0 -0.44965013862 0.0062579545192 -0 -0.44816988707 0.0039789113216 -0 
-0.44748324156 0.0014660145389 -0 -0.44762143493 -0.001192638767 -0 -0.44863820076 -0.003908792045 -0 
-0.45062321424 -0.0066867391579 -0 -0.45364832878 -0.0095212524757 -0 -0.45776703954 -0.01238068752 -0 
-0.46301582456 -0.015229439363 -0 -0.46940290928 -0.018007775769 -0 -0.47691252828 -0.020615110174 -0 
-0.4854825139 -0.022898131981 -0 -0.49497631192 -0.024648843333 -0 -0.50515294075 -0.025613542646 -0 
-0.51563382149 -0.025508742779 -0 -0.52587562799 -0.024071952328 -0 -0.53517782688 -0.021153599024 -0 
-0.54275488853 -0.016834046692 -0 -0.54790306091 -0.011572744697 -0 -0.55020684004 -0.0061299204826 -0 
-0.54995435476 -0.0014542534482 -0 -0.54794812202 0.0019532176666 -0 -0.54519677162 0.0038306710776 -0 
-0.54265153408 0.0043444219045 -0 -0.54075801373 0.0039289360866 -0 -0.53958934546 0.003025466809 -0 
-0.53903776407 0.0019721363205 -0 -0.53894019127 0.00096958363429 -0 -0.53914499283 0.00011944305152 -0 
-0.5395258069 -0.0005419604131 -0 -0.54004895687 -0.001093779807 -0 -0.54073834419 -0.0015782526461 -0 
-0.54161018133 -0.0020424553659 -0 -0.54268568754 -0.0024796333164 -0 -0.54395794868 -0.0028393531684 -0 
-0.54538249969 -0.0030693376902 -0 -0.54689538479 -0.0031050976831 -0 -0.5484187603 -0.0029001845978 -0 
-0.54987198114 -0.0022713011131 -0 -0.5511329174 -0.0011343976948 -0 -0.55205953121 0.0012435271638 -0 
-0.55262905359 0.0046881022863 -0 -0.55223071575 0.012964660302 -0 -0.5509185791 0.022444633767 -0 
-0.54119950533 0.052146941423 -0 -0.5226945281 0.072107389569 -0 -0.46877557039 0.14437927306 -0 
-0.39458096027 0.12479714304 -0 -0.3483081758 0.088508732617 -0 -0.32225179672 0.06016734615 -0 
-0.30687400699 0.040381897241 -0 -0.29738727212 0.026969114318 -0 -0.2913775146 0.017969695851 -0 
-0.28752082586 0.011957689188 -0 -0.28503701091 0.0079504605383 -0 -0.28344354033 0.0052829240449 -0 
-0.28243345022 0.003508857917 -0 -0.28180783987 0.0023298300803 -0 -0.28143677115 0.0015465756878 -0 
-0.28123492002 0.0010263425065 -0 -0.28114598989 0.00068079226185 -0 -0.28113281727 0.00045117046102 -0 
-0.28117081523 0.00029840093339 -0 -0.28124371171 0.00019648720627 -0 -0.28134083748 0.00012812977366 -0 
-0.28145512938 8.1842845248e-05 -0 -0.28158220649 5.0094135077e-05 -0 -0.28172233701 2.8229022064e-05 -0 
-0.28187152743 1.3730050341e-05 -0 -0.28202855587 6.0450429373e-06 -0 -0.40457010269 4.5409374252e-06 -0 
-0.3717456162 0.012890707701 -0 -0.36989635229 0.013071258552 -0 -0.3682885766 0.012585026212 -0 
-0.36714804173 0.011264407076 -0 -0.3666561842 0.0092318449169 -0 -0.36678928137 0.0067066736519 -0 
-0.36739525199 0.0038836025633 -0 -0.36830484867 0.00088345241966 -0 -0.36943921447 -0.0022706741001 -0 
-0.37089571357 -0.0056269424967 -0 -0.37281510234 -0.0091524105519 -0 -0.37524971366 -0.012775539421 -0 
-0.37822663784 -0.016437951475 -0 -0.38176742196 -0.020101351663 -0 -0.38588356972 -0.023697217926 -0 
-0.39056944847 -0.027093010023 -0 -0.39577201009 -0.030073972419 -0 -0.40135988593 -0.032343063504 -0 
-0.40709331632 -0.03352856636 -0 -0.4125739634 -0.033178277314 -0 -0.41718962789 -0.030834639445 -0 
-0.42011541128 -0.026193970814 -0 -0.42046943307 -0.019371503964 -0 -0.41761752963 -0.011194004677 -0 
-0.4117577672 -0.0032256389968 -0 -0.40437522531 0.0026970519684 -0 -0.3975597918 0.0059680924751 -0 
-0.392693609 0.0067727747373 -0 -0.39003300667 0.0060026184656 -0 -0.3891608417 0.0045168921351 -0 
-0.38943219185 0.0029059511144 -0 -0.39023858309 0.0014887921279 -0 -0.39115563035 0.0003515437129 -0 
-0.39192643762 -0.00046912144171 -0 -0.39254632592 -0.0011488978053 -0 -0.39313748479 -0.0017668958753 -0 
-0.39373552799 -0.0023303090129 -0 -0.3944388628 -0.002976473188 -0 -0.39535689354 -0.0036274292506 -0 
-0.39647787809 -0.0041584256105 -0 -0.39773094654 -0.004496825859 -0 -0.39907321334 -0.0046074651182 -0 
-0.40051573515 -0.0044552688487 -0 -0.40213009715 -0.0039079994895 -0 -0.40403199196 -0.0028355568647 -0 
-0.40655353665 -0.00078321481124 -0 -0.41014543176 0.0020898727234 -0 -0.41691437364 0.0083658099174 -0 
-0.42859065533 0.015234317631 -0 -0.45529347658 0.040097795427 -0 -0.50515067577 0.04039632529 -0 
-0.44412842393 0.2728254199 -0 -0.33221906424 0.17301425338 -0 -0.30374884605 0.11188031733 -0 
-0.29249274731 0.072870008647 -0 -0.28717660904 0.047889705747 -0 -0.28434178233 0.031634639949 -0 
-0.28272250295 0.020948804915 -0 -0.28177249432 0.013887953945 -0 -0.28121751547 0.0092118466273 -0 
-0.28090548515 0.0061110802926 -0 -0.28074708581 0.0040543251671 -0 -0.28068742156 0.0026900020894 -0 
-0.28069221973 0.0017847855343 -0 -0.28073984385 0.0011840447551 -0 -0.28081646562 0.00078524264973 -0 
-0.28091305494 0.00052032526582 -0 -0.28102368116 0.0003440839937 -0 -0.28114458919 0.00022644703859 -0 