# vtk DataFile Version 5.1
vtk output
ASCII
DATASET UNSTRUCTURED_GRID
POINTS 4929 double
0.1016 1.5 0.22900000215 0.1016 1.45 0.20299999416 0.1016 1.4 0.19099999964 
0.1016 1.35 0.17299999297 0.1016 1.3 0.14800000191 0.1016 1.25 0.11999999732 
0.1016 1.2 0.10400000215 0.1016 1.15 0.093999996781 0.1016 1.1 0.078000001609 
0.1016 1.05 0.065999999642 0.1016 1 0.030999999493 0.1016 0.95 3.6517617466e-19 
0.1016 0.9 -1.9439354441e-19 0.1016 0.85 2.7747045729e-18 0.1016 0.8 -6.2414168658e-19 
0.1016 0.75 -4.8768079102e-18 0.1016 0.7 0.026555787772 0.1016 0.65 0.052741039544 
0.1016 0.6 0.076094537973 0.1016 0.55 0.097360961139 0.1016 0.5 0.12115270644 
0.1016 0.45 0.13974973559 0.1016 0.4 0.16143712401 0.1016 0.35 0.18807560205 
0.1016 0.3 0.21729597449 0.1016 0.25 0.24471183121 0.1016 0.2 0.26786640286 
0.1016 0.15 0.28401228786 0.1016 0.1 0.28726634383 0.1016 0.05 0.28563213348 
0.1016 0 0.28404605389 5.08 1.5 0.28700000048 5.08 1.45 0.28700000048 
5.08 1.4 0.28700000048 5.08 1.35 0.28700000048 5.08 1.3 0.28700000048 
5.08 1.25 0.28700000048 5.08 1.2 0.28700000048 5.08 1.15 0.28700000048 
5.08 1.1 0.28700000048 5.08 1.05 0.28700000048 5.08 1 0.28700000048 
5.08 0.95 0.28700000048 5.08 0.9 0.28700000048 5.08 0.85 0.28700000048 
5.08 0.8 0.28700000048 5.08 0.75 0.28700000048 5.08 0.7 0.28700000048 
5.08 0.65 0.28700000048 5.08 0.6 0.28700000048 5.08 0.55 0.28700000048 
5.08 0.5 0.28700000048 5.08 0.45 0.28700000048 5.08 0.4 0.28700000048 
5.08 0.35 0.28700000048 5.08 0.3 0.28700000048 5.08 0.25 0.28700000048 
5.08 0.2 0.28700000048 5.08 0.15 0.28700000048 5.08 0.1 0.28700000048 
5.08 0.05 0.28700000048 5.08 0 0.28700000048 0.12737462728 1.5 0.24325218797 
0.12737462728 1.45 0.21104358137 0.12737462728 1.4 0.19238869846 0.12737462728 1.35 0.17760328948 
0.12737462728 1.3 0.15496727824 0.12737462728 1.25 0.12569969893 0.12737462728 1.2 0.10908164829 
0.12737462728 1.15 0.095522604883 0.12737462728 1.1 0.081466704607 0.12737462728 1.05 0.072714030743 
0.12737462728 1 0.046061512083 0.12737462728 0.95 0.017909724265 0.12737462728 0.9 0.0042766048573 
0.12737462728 0.85 0.0045113186352 0.12737462728 0.8 0.0056367744692 0.12737462728 0.75 0.00971495267 
0.12737462728 0.7 0.028019111603 0.12737462728 0.65 0.040616840124 0.12737462728 0.6 0.064691357315 
0.12737462728 0.55 0.084325030446 0.12737462728 0.5 0.11217490584 0.12737462728 0.45 0.12861070037 
0.12737462728 0.4 0.15165251493 0.12737462728 0.35 0.18002678454 0.12737462728 0.3 0.21187371016 
0.12737462728 0.25 0.24163198471 0.12737462728 0.2 0.26714733243 0.12737462728 0.15 0.28726950288 
0.12737462728 0.1 0.2892742753 0.12737462728 0.05 0.28767204285 0.12737462728 0 0.28635084629 
0.15441581276 1.5 0.25648573041 0.15441581276 1.45 0.21856100857 0.15441581276 1.4 0.19437117875 
0.15441581276 1.35 0.18238553405 0.15441581276 1.3 0.16248032451 0.15441581276 1.25 0.13287214935 
0.15441581276 1.2 0.11541104317 0.15441581276 1.15 0.099444836378 0.15441581276 1.1 0.084170691669 
0.15441581276 1.05 0.078326553106 0.15441581276 1 0.060692436993 0.15441581276 0.95 0.039002165198 
0.15441581276 0.9 0.013144792058 0.15441581276 0.85 0.010374231264 0.15441581276 0.8 0.0091152498499 
0.15441581276 0.75 0.01408557035 0.15441581276 0.7 0.030615659431 0.15441581276 0.65 0.033146381378 
0.15441581276 0.6 0.058719053864 0.15441581276 0.55 0.074963368475 0.15441581276 0.5 0.1064786762 
0.15441581276 0.45 0.12094581872 0.15441581276 0.4 0.14591152966 0.15441581276 0.35 0.17494337261 
0.15441581276 0.3 0.20777963102 0.15441581276 0.25 0.23876665533 0.15441581276 0.2 0.26598548889 
0.15441581276 0.15 0.2899261713 0.15441581276 0.1 0.29001265764 0.15441581276 0.05 0.28905645013 
0.15441581276 0 0.28807336092 0.18278579477 1.5 0.26307821274 0.18278579477 1.45 0.22642950714 
0.18278579477 1.4 0.1997218281 0.18278579477 1.35 0.18786722422 0.18278579477 1.3 0.16921976209 
0.18278579477 1.25 0.14515067637 0.18278579477 1.2 0.12112555653 0.18278579477 1.15 0.10586035252 
0.18278579477 1.1 0.086513802409 0.18278579477 1.05 0.08287730813 0.18278579477 1 0.06976044178 
0.18278579477 0.95 0.052467390895 0.18278579477 0.9 0.029285794124 0.18278579477 0.85 0.016341643408 
0.18278579477 0.8 0.011541181244 0.18278579477 0.75 0.015848029405 0.18278579477 0.7 0.025930022821 
0.18278579477 0.65 0.035856448114 0.18278579477 0.6 0.055762261152 0.18278579477 0.55 0.075217880309 
0.18278579477 0.5 0.099953897297 0.18278579477 0.45 0.12084390223 0.18278579477 0.4 0.14530034363 
0.18278579477 0.35 0.17462287843 0.18278579477 0.3 0.2049831152 0.18278579477 0.25 0.23585183918 
0.18278579477 0.2 0.26585289836 0.18278579477 0.15 0.2888596952 0.18278579477 0.1 0.28993198276 
0.18278579477 0.05 0.28976795077 0.18278579477 0 0.28913551569 0.21254987001 1.5 0.26931813359 
0.21254987001 1.45 0.2352642864 0.21254987001 1.4 0.20614717901 0.21254987001 1.35 0.19317680597 
0.21254987001 1.3 0.17661081254 0.21254987001 1.25 0.15634429455 0.21254987001 1.2 0.12759692967 
0.21254987001 1.15 0.1120808199 0.21254987001 1.1 0.090407036245 0.21254987001 1.05 0.086722679436 
0.21254987001 1 0.076169647276 0.21254987001 0.95 0.062584914267 0.21254987001 0.9 0.045327365398 
0.21254987001 0.85 0.028657635674 0.21254987001 0.8 0.021944832057 0.21254987001 0.75 0.023641474545 
0.21254987001 0.7 0.029262015596 0.21254987001 0.65 0.041912470013 0.21254987001 0.6 0.059523720294 
0.21254987001 0.55 0.079864770174 0.21254987001 0.5 0.099590860307 0.21254987001 0.45 0.12441115826 
0.21254987001 0.4 0.14844107628 0.21254987001 0.35 0.17687094212 0.21254987001 0.3 0.20408986509 
0.21254987001 0.25 0.23630769551 0.21254987001 0.2 0.26652264595 0.21254987001 0.15 0.28760686517 
0.21254987001 0.1 0.28862559795 0.21254987001 0.05 0.28965547681 0.21254987001 0 0.29105952382 
0.24377654385 1.5 0.27670475841 0.24377654385 1.45 0.24692180753 0.24377654385 1.4 0.2147128284 
0.24377654385 1.35 0.19806678593 0.24377654385 1.3 0.18521976471 0.24377654385 1.25 0.16492836177 
0.24377654385 1.2 0.13739959896 0.24377654385 1.15 0.11755931377 0.24377654385 1.1 0.099594458938 
0.24377654385 1.05 0.089777708054 0.24377654385 1 0.082944884896 0.24377654385 0.95 0.070593953133 
0.24377654385 0.9 0.059474226087 0.24377654385 0.85 0.048903804272 0.24377654385 0.8 0.044607840478 
0.24377654385 0.75 0.042000193149 0.24377654385 0.7 0.046987779438 0.24377654385 0.65 0.050456181169 
0.24377654385 0.6 0.069917045534 0.24377654385 0.55 0.087806522846 0.24377654385 0.5 0.10750702024 
0.24377654385 0.45 0.13111552596 0.24377654385 0.4 0.15455074608 0.24377654385 0.35 0.18173232675 
0.24377654385 0.3 0.20648828149 0.24377654385 0.25 0.24240489304 0.24377654385 0.2 0.2689614892 
0.24377654385 0.15 0.28697261214 0.24377654385 0.1 0.2873955965 0.24377654385 0.05 0.28842830658 
0.24377654385 0 0.29414603114 0.27653768798 1.5 0.28005877137 0.27653768798 1.45 0.26011475921 
0.27653768798 1.4 0.23158526421 0.27653768798 1.35 0.20769739151 0.27653768798 1.3 0.19245226681 
0.27653768798 1.25 0.1788803488 0.27653768798 1.2 0.15325163305 0.27653768798 1.15 0.13070741296 
0.27653768798 1.1 0.11269905418 0.27653768798 1.05 0.096032902598 0.27653768798 1 0.086908183992 
0.27653768798 0.95 0.078935444355 0.27653768798 0.9 0.073532365263 0.27653768798 0.85 0.070125535131 
0.27653768798 0.8 0.069787807763 0.27653768798 0.75 0.064158089459 0.27653768798 0.7 0.068030297756 
0.27653768798 0.65 0.068511001766 0.27653768798 0.6 0.083670206368 0.27653768798 0.55 0.10034229606 
0.27653768798 0.5 0.12272065133 0.27653768798 0.45 0.14361990988 0.27653768798 0.4 0.16551217437 
0.27653768798 0.35 0.19206507504 0.27653768798 0.3 0.21884259582 0.27653768798 0.25 0.24977074564 
0.27653768798 0.2 0.27411347628 0.27653768798 0.15 0.2866640985 0.27653768798 0.1 0.28717821836 
0.27653768798 0.05 0.28826677799 0.27653768798 0 0.29316610098 0.31090870586 1.5 0.2786629796 
0.31090870586 1.45 0.27084198594 0.31090870586 1.4 0.25322517753 0.31090870586 1.35 0.22321467102 
0.31090870586 1.3 0.20170013607 0.31090870586 1.25 0.19265766442 0.31090870586 1.2 0.16992503405 
0.31090870586 1.15 0.149120152 0.31090870586 1.1 0.13008320332 0.31090870586 1.05 0.108135961 
0.31090870586 1 0.093201287091 0.31090870586 0.95 0.087324924767 0.31090870586 0.9 0.08390147239 
0.31090870586 0.85 0.08412180841 0.31090870586 0.8 0.088710524142 0.31090870586 0.75 0.083009794354 
0.31090870586 0.7 0.087728209794 0.31090870586 0.65 0.092074781656 0.31090870586 0.6 0.10305671394 
0.31090870586 0.55 0.11944558471 0.31090870586 0.5 0.14346434176 0.31090870586 0.45 0.16141034663 
0.31090870586 0.4 0.1808360815 0.31090870586 0.35 0.20654344559 0.31090870586 0.3 0.23452733457 
0.31090870586 0.25 0.25769463181 0.31090870586 0.2 0.27940934896 0.31090870586 0.15 0.28567609191 
0.31090870586 0.1 0.28665179014 0.31090870586 0.05 0.28752306104 0.31090870586 0 0.28968384862 
0.34696870625 1.5 0.27654325962 0.34696870625 1.45 0.27383038402 0.34696870625 1.4 0.26974126697 
0.34696870625 1.35 0.24170699716 0.34696870625 1.3 0.21865959466 0.34696870625 1.25 0.19689035416 
0.34696870625 1.2 0.18062274158 0.34696870625 1.15 0.16691325605 0.34696870625 1.1 0.14852122962 
0.34696870625 1.05 0.12791614234 0.34696870625 1 0.10731401294 0.34696870625 0.95 0.095794267952 
0.34696870625 0.9 0.088895045221 0.34696870625 0.85 0.089206360281 0.34696870625 0.8 0.09667892009 
0.34696870625 0.75 0.098116584122 0.34696870625 0.7 0.1020585224 0.34696870625 0.65 0.114223212 
0.34696870625 0.6 0.12585785985 0.34696870625 0.55 0.14438787103 0.34696870625 0.5 0.16205976903 
0.34696870625 0.45 0.18064364791 0.34696870625 0.4 0.19719150662 0.34696870625 0.35 0.2214576453 
0.34696870625 0.3 0.24308027327 0.34696870625 0.25 0.26763701439 0.34696870625 0.2 0.28155896068 
0.34696870625 0.15 0.28356176615 0.34696870625 0.1 0.2845274508 0.34696870625 0.05 0.28468537331 
0.34696870625 0 0.28823295236 0.3848006853 1.5 0.2758923471 0.3848006853 1.45 0.27486085892 
0.3848006853 1.4 0.27277165651 0.3848006853 1.35 0.26031553745 0.3848006853 1.3 0.23705476522 
[...]
CELL_DATA 4740
FIELD FieldData 7
B_Stress_n_p_m2 1 4740 float
0.276305 0.276103 0.278762 0.279393 0.276813 0.276391 0.277656 0.279536 0.283748 
0.285821 0.280935 0.272034 0.263395 0.246263 0.220729 0.150805 0.104389 0.0791079 
0.0647358 0.055605 0.0486891 0.043591 0.0402017 0.0379695 0.0363276 0.035055 0.0341479 
0.0329302 0.031689 0.0301993 0.28069 0.275961 0.275979 0.276788 0.274441 0.271983 
0.272365 0.272096 0.275892 0.279145 0.27758 0.269264 0.257208 0.241731 0.218987 
0.166326 0.122664 0.0953276 0.0785188 0.0668263 0.0579899 0.0511755 0.0465489 0.0430723 
0.0402346 0.0378829 0.0358152 0.0335228 0.0312082 0.029295 0.283875 0.276187 0.273975 
0.274602 0.27287 0.268081 0.266835 0.264811 0.266949 0.269774 0.269226 0.262829 
0.248204 0.232265 0.21013 0.169484 0.132915 0.106453 0.089173 0.075976 0.0663574 
0.058665 0.0534821 0.0493713 0.0462213 0.0437459 0.0413797 0.0387007 0.0357753 0.0336481 
0.287716 0.277216 0.272631 0.27298 0.270574 0.265169 0.260376 0.257975 0.257502 
0.259452 0.257919 0.252086 0.239204 0.22264 0.201214 0.168991 0.137799 0.114356 
0.0969665 0.0836345 0.0734611 0.0657948 0.0602326 0.0558958 0.0528895 0.0505788 0.0481785 
0.0450536 0.0418438 0.0399278 0.297717 0.2828 0.273012 0.271764 0.269715 0.263676 
0.255769 0.252276 0.249216 0.249164 0.246721 0.241162 0.231163 0.216025 0.195645 
0.168429 0.141086 0.120083 0.103349 0.0905565 0.0803332 0.0728795 0.0672157 0.0631082 
0.0604006 0.0584355 0.0556705 0.0520153 0.0484339 0.046679 0.311707 0.296117 0.279558 
0.272663 0.271514 0.265319 0.256311 0.249501 0.244054 0.239969 0.237048 0.231742 
0.223887 0.211413 0.192691 0.168669 0.145115 0.125338 0.110204 0.0982285 0.0884834 
0.0810959 0.0757108 0.0721586 0.0696227 0.067866 0.0642068 0.059879 0.055834 0.0537327 
0.320811 0.312593 0.29416 0.279061 0.272718 0.268189 0.260052 0.250946 0.242648 
0.23438 0.228773 0.223079 0.216044 0.205719 0.189699 0.169054 0.149594 0.13217 
0.118692 0.107638 0.0986035 0.0912093 0.0862222 0.0830765 0.0810226 0.0783261 0.0736091 
0.068316 0.0638198 0.0614171 0.321835 0.3227 0.311912 0.291597 0.27621 0.269739 
0.263153 0.254721 0.24475 0.232835 0.223314 0.215499 0.207703 0.198111 0.185237 
0.168953 0.153815 0.140093 0.128347 0.118115 0.109947 0.10292 0.0984566 0.0957325 
0.0938768 0.0895352 0.0835239 0.0771089 0.0722579 0.0698351 0.320082 0.323689 0.324675 
0.308394 0.289175 0.275408 0.26726 0.2601 0.249516 0.235482 0.222642 0.212265 
0.20289 0.192669 0.181389 0.169494 0.157335 0.147326 0.13744 0.12856 0.121334 
0.115945 0.112778 0.110846 0.107538 0.101721 0.0939287 0.0866951 0.0815677 0.0790499 
0.31813 0.322588 0.328101 0.325289 0.308557 0.290398 0.276545 0.266824 0.256645 
0.243429 0.228369 0.216515 0.205773 0.195167 0.184174 0.173867 0.163723 0.155635 
0.147894 0.140657 0.134937 0.131737 0.129851 0.127528 0.12186 0.113755 0.104543 
0.0971334 0.0917745 0.089165 0.316274 0.32127 0.326658 0.332789 0.327539 0.310577 
0.291708 0.276125 0.263969 0.253539 0.240565 0.227449 0.216074 0.206463 0.196045 
0.1865 0.177811 0.16985 0.163867 0.158548 0.154329 0.152468 0.148781 0.143484 
0.134838 0.124478 0.114808 0.107654 0.102367 0.0994205 0.31611 0.32082 0.325555 
0.331014 0.336441 0.329799 0.314518 0.294178 0.276349 0.263698 0.254553 0.241015 
0.22902 0.219349 0.210835 0.203412 0.196823 0.189594 0.184212 0.179643 0.176391 
0.173809 0.166612 0.156722 0.14546 0.134146 0.125036 0.118091 0.11317 0.110196 
0.318971 0.323266 0.326675 0.330474 0.334738 0.339175 0.335713 0.321944 0.302779 
0.283332 0.270884 0.257655 0.242972 0.23017 0.222 0.215266 0.210308 0.206137 
0.201036 0.197099 0.194061 0.188274 0.179849 0.166713 0.154413 0.143927 0.1355 
0.128806 0.124067 0.121711 0.32139 0.32472 0.328337 0.33056 0.33355 0.336773 
0.339018 0.339237 0.33019 0.314319 0.297217 0.282098 0.264927 0.249983 0.236961 
0.227895 0.222061 0.217572 0.214951 0.212563 0.20802 0.19915 0.188106 0.175415 
0.164005 0.154176 0.146087 0.139732 0.135008 0.132322 0.31988 0.323167 0.326512 
0.328934 0.330978 0.33347 0.335046 0.336011 0.337132 0.333325 0.323758 0.310302 
0.296483 0.282164 0.268214 0.25674 0.246983 0.239744 0.235207 0.229694 0.221932 
0.210905 0.197018 0.184911 0.174129 0.164951 0.157239 0.151052 0.146341 0.143486 
0.319197 0.3227 0.325691 0.328574 0.330683 0.332807 0.33481 0.335517 0.335913 
0.335998 0.333682 0.329818 0.322735 0.314947 0.305319 0.294482 0.283335 0.272161 
0.260951 0.250448 0.237201 0.222272 0.208685 0.196877 0.186571 0.17766 0.170071 
0.16398 0.159139 0.156321 0.321329 0.324845 0.328527 0.331652 0.334196 0.336238 
0.337787 0.338838 0.339214 0.339131 0.337365 0.335625 0.332876 0.328754 0.323021 
0.315222 0.30514 0.293546 0.280267 0.265057 0.249739 0.23549 0.222629 0.211352 
0.201356 0.192429 0.184917 0.178586 0.173787 0.170879 0.320159 0.323806 0.327421 
0.330633 0.333251 0.3351 0.336309 0.336969 0.336974 0.336338 0.33517 0.332748 
0.329607 0.325151 0.319363 0.312098 0.303374 0.293223 0.281649 0.26897 0.2561 
0.243838 0.232497 0.222112 0.212745 0.204469 0.197275 0.191236 0.186453 0.18363 
0.315229 0.318971 0.322338 0.325173 0.327387 0.328933 0.329845 0.330142 0.329794 
0.328781 0.327081 0.324458 0.320984 0.316488 0.310919 0.304243 0.296499 0.287752 
0.278117 0.26786 0.257409 0.247199 0.237518 0.228508 0.220268 0.212878 0.206381 
0.20083 0.196341 0.193411 0.310382 0.314277 0.317501 0.320095 0.322048 0.32336 
0.324042 0.324103 0.323531 0.322312 0.320411 0.317761 0.314338 0.310087 0.304978 
0.299011 0.292226 0.284703 0.276566 0.268014 0.259309 0.250721 0.242459 0.234664 
0.227438 0.220858 0.214988 0.209874 0.205616 0.202516 0.305745 0.30964 0.31277 
0.315217 0.317006 0.318155 0.31868 0.318595 0.317902 0.316596 0.314665 0.312085 
0.308841 0.304918 0.300314 0.295046 0.289159 0.282726 0.275852 0.268681 0.261386 
0.254143 0.2471 0.240374 0.234055 0.228214 0.222909 0.218184 0.214123 0.210953 
0.301243 0.305093 0.308151 0.310502 0.312187 0.313236 0.313674 0.31352 0.31279 
0.311492 0.30963 0.307203 0.304215 0.30067 0.296583 0.291982 0.286911 0.281433 
0.27563 0.269606 0.263478 0.257361 0.251362 0.245568 0.240051 0.23487 0.230073 
0.225698 0.221814 0.218606 0.296934 0.300732 0.303737 0.306028 0.307657 0.308659 
0.309067 0.308909 0.308209 0.306989 0.305263 0.303049 0.30036 0.297215 0.293638 
0.289659 0.285319 0.280672 0.275779 0.270714 0.265556 0.260384 0.255271 0.250278 
0.245459 0.240857 0.236509 0.232443 0.228718 0.22548 0.292872 0.296623 0.299588 
0.301848 0.303455 0.304451 0.304874 0.304761 0.304142 0.303047 0.301502 0.299533 
0.297163 0.294417 0.291324 0.287914 0.284225 0.280297 0.276179 0.271921 0.267577 
0.263199 0.258834 0.254525 0.250305 0.246204 0.242246 0.23845 0.234863 0.231596 
0.2891 0.292806 0.295746 0.297994 0.299606 0.300627 0.301099 0.301063 0.300558 
0.299619 0.298278 0.296568 0.294518 0.292156 0.289513 0.286617 0.2835 0.280195 
0.276737 0.273161 0.269501 0.26579 0.262057 0.258326 0.254616 0.250944 0.247322 
0.243758 0.240289 0.236996 0.285647 0.289315 0.292239 0.294491 0.296126 0.297191 
0.297734 0.297797 0.297424 0.296655 0.295528 0.294077 0.292335 0.290332 0.288098 
0.28566 0.283044 0.280276 0.27738 0.27438 0.271297 0.268147 0.264945 0.261702 
0.258424 0.255116 0.251778 0.248413 0.245042 0.241725 0.282535 0.286168 0.289083 
0.291347 0.293017 0.29414 0.294764 0.294937 0.294704 0.294109 0.293191 0.291988 
0.290534 0.28886 0.286993 0.284959 0.282778 0.280471 0.278054 0.275541 0.272942 
0.270264 0.267508 0.264676 0.261762 0.25876 0.255663 0.252465 0.249177 0.245839 
0.27977 0.283372 0.286283 0.288565 0.290274 0.291459 0.292169 0.292453 0.292358 
0.291931 0.291212 0.29024 0.289049 0.287669 0.286127 0.284445 0.28264 0.280727 
0.278716 0.276614 0.274423 0.27214 0.26976 0.267272 0.264663 0.26192 0.259026 
0.255969 0.25275 0.249393 0.27735 0.280925 0.283834 0.286136 0.287885 0.289131 
0.289924 0.290314 0.29035 0.290078 0.289541 0.288777 0.287821 0.286701 0.285442 
0.284064 0.282581 0.281004 0.279337 0.277581 0.275733 0.273782 0.271716 0.269517 
0.267165 0.264639 0.261917 0.258978 0.255817 0.252445 0.275266 0.278816 0.281725 
0.284045 0.285832 0.287133 0.288002 0.288487 0.288641 0.288508 0.288133 0.287553 
0.286802 0.285907 0.284892 0.283775 0.282565 0.281272 0.279895 0.278431 0.27687 
0.275198 0.273396 0.27144 0.269305 0.266962 0.264384 0.261546 0.258434 0.255049 
0.273502 0.277029 0.279936 0.282272 0.28409 0.28544 0.286373 0.286942 0.287196 
0.287184 0.286948 0.286526 0.28595 0.285249 0.284441 0.283544 0.282566 0.281511 
0.280378 0.279158 0.277839 0.276401 0.274821 0.27307 0.271118 0.268931 0.266477 
0.263724 0.260655 0.25726 0.272035 0.275543 0.278446 0.280793 0.282635 0.284022 
0.285007 0.285644 0.285982 0.28607 0.285951 0.285661 0.285234 0.284693 0.28406 
0.283347 0.282563 0.281708 0.280778 0.279764 0.278647 0.277407 0.276014 0.274438 
0.272642 0.270588 0.26824 0.265562 0.26253 0.259129 0.270843 0.274332 0.277229 
0.279581 0.281438 0.282851 0.283875 0.284564 0.284968 0.285136 0.285111 0.284929 
0.284623 0.284216 0.283726 0.283167 0.282543 0.281854 0.281095 0.280252 0.279306 
0.278232 0.277 0.275572 0.273911 0.271973 0.269718 0.267106 0.264108 0.260703 
0.269899 0.273371 0.276259 0.278609 0.280471 0.281899 0.282947 0.283671 0.284123 
0.284352 0.2844 0.284304 0.284095 0.283795 0.283423 0.282989 0.282497 0.281947 
0.281329 0.280629 0.279828 0.278896 0.2778 0.276502 0.274958 0.273123 0.270951 
0.2684 0.265434 0.262028 0.269179 0.272633 0.275509 0.27785 0.279708 0.281137 
0.282196 0.282939 0.283422 0.283692 0.283794 0.283763 0.283629 0.283415 0.283137 
0.282804 0.282421 0.281984 0.281484 0.280905 0.280225 0.279415 0.278439 0.277255 
0.275816 0.274074 0.271979 0.269483 0.266548 0.263144 0.268656 0.272093 0.274952 
0.277277 0.27912 0.280539 0.281594 0.282342 0.282839 0.283135 0.283272 0.283288 
0.283211 0.283062 0.282858 0.282607 0.282311 0.281966 0.281564 0.281088 0.280513 
0.279809 0.278938 0.277856 0.276514 0.274858 0.272835 0.270394 0.26749 0.264091 
0.268307 0.271728 0.274565 0.276865 0.278683 0.28008 0.281117 0.281855 0.282352 
0.282657 0.282815 0.282862 0.282825 0.282726 0.282578 0.282391 0.282165 0.281897 
0.281577 0.281186 0.280702 0.280092 0.279316 0.278329 0.277077 0.275504 0.273552 
0.271165 0.268295 0.264903 0.268114 0.271516 0.274327 0.276594 0.278375 0.279736 
0.280742 0.281457 0.28194 0.282242 0.282407 0.28247 0.28246 0.282396 0.282291 
0.282153 0.281984 0.281779 0.281526 0.28121 0.280806 0.28028 0.279592 0.278694 
0.27753 0.276039 0.274158 0.271828 0.268993 0.265612 0.268057 0.27144 0.274217 
0.276441 0.278176 0.279488 0.28045 0.281129 0.281585 0.281871 0.282032 0.282101 
0.282106 0.282065 0.281992 0.281892 0.281768 0.281613 0.281419 0.281167 0.280833 
0.280385 0.279781 0.27897 0.277893 0.276486 0.274681 0.27241 0.269615 0.266249 
0.268125 0.271484 0.274222 0.276392 0.278066 0.279317 0.280222 0.280852 0.28127 
0.281531 0.281677 0.281742 0.281753 0.281728 0.281676 0.281606 0.281516 0.281404 
0.281258 0.281063 0.280794 0.280418 0.279895 0.279171 0.278184 0.276866 0.275141 
0.272937 0.270188 0.26684 0.268307 0.27164 0.274328 0.276432 0.27803 0.279206 
0.280041 0.28061 0.280981 0.281206 0.28133 0.281385 0.281396 0.281377 0.281341 
0.281292 0.28123 0.281152 0.281048 0.280903 0.280693 0.280387 0.279944 0.279308 
0.278417 0.277194 0.27556 0.273433 0.270737 0.267411 0.2686 0.271901 0.274527 
0.276549 0.278056 0.27914 0.27989 0.280388 0.280702 0.280886 0.280982 0.281021 
0.281026 0.28101 0.280983 0.28095 0.28091 0.28086 0.280792 0.280691 0.280536 
0.280298 0.279934 0.279391 0.278602 0.277486 0.275955 0.273917 0.271285 0.267989 
0.269005 0.272266 0.274815 0.276735 0.27813 0.279103 0.279755 0.280171 0.28042 
0.280557 0.280622 0.280642 0.280638 0.280621 0.2806 0.280578 0.280555 0.280528 
0.28049 0.280429 0.280326 0.280153 0.27987 0.279424 0.278747 0.277752 0.276341 
0.27441 0.271858 0.2686 0.269533 0.272742 0.275191 0.276982 0.278238 0.279081 
0.279619 0.279944 0.280123 0.280211 0.280242 0.280243 0.280228 0.280209 0.280191 
0.280176 0.280166 0.280158 0.280145 0.280119 0.280062 0.279952 0.279751 0.279407 
0.278852 0.277996 0.276729 0.274931 0.27248 0.269274 0.270203 0.27334 0.275655 
0.277281 0.278366 0.279055 0.279465 0.279691 0.279798 0.279837 0.279836 0.279818 
0.279794 0.279771 0.279755 0.279746 0.279745 0.27975 0.279758 0.279761 0.279746 
0.279693 0.279572 0.279335 0.278915 0.278218 0.277126 0.275496 0.27318 0.270044 
0.271047 0.274081 0.27621 0.277617 0.278492 0.279002 0.279273 0.279397 0.279435 
0.279429 0.279401 0.279368 0.279336 0.279312 0.279297 0.279292 0.279297 0.279312 
0.279333 0.279358 0.279377 0.279375 0.279329 0.279198 0.278922 0.278407 0.277528 
0.276119 0.273989 0.270956 0.272138 0.275004 0.276855 0.277964 0.27858 0.278887 
0.279014 0.279042 0.279021 0.278979 0.278932 0.27889 0.278856 0.278832 0.278818 
0.278816 0.278824 0.278843 0.278873 0.278911 0.278953 0.27899 0.279008 0.278977 
0.278847 0.278537 0.27792 0.276809 0.274958 0.272092 0.273614 0.276151 0.277549 
0.278246 0.278549 0.278647 0.278643 0.278597 0.278538 0.278481 0.278431 0.278391 
0.278361 0.278342 0.278331 0.27833 0.278339 0.278356 0.278384 0.278422 0.27847 
0.278526 0.278584 0.278629 0.278631 0.278533 0.278228 0.277531 0.276133 0.273596 
0.27544 0.277248 0.277998 0.278262 0.278317 0.27829 0.278237 0.278181 0.278132 
0.278092 0.27806 0.278037 0.278021 0.278011 0.278006 0.278005 0.27801 0.27802 
0.278036 0.278058 0.278089 0.278129 0.278178 0.278234 0.278287 0.278313 0.278258 
0.277993 0.277244 0.275436 0.295703 0.304436 0.307102 0.308031 0.313838 0.321499 
0.32947 0.332025 0.321819 0.312658 0.300969 0.278183 0.234314 0.168756 0.0870069 
0.0155277 0.0138389 0.0159431 0.0182295 0.0196979 0.0203922 0.0205478 0.0203764 0.0198772 
0.019199 0.018512 0.0178835 0.0174428 0.0173164 0.0171737 0.290576 0.298482 0.301798 
0.301835 0.307269 0.314759 0.324173 0.327822 0.320895 0.313076 0.30286 0.283003 
0.242304 0.179686 0.102947 0.0207686 0.0183996 0.0198617 0.021413 0.0223345 0.0227289 
0.0227836 0.0226337 0.0222262 0.0216358 0.0209939 0.0204041 0.0200037 0.0199094 0.0197961 
0.286893 0.293249 0.297335 0.296336 0.301687 0.308027 0.317143 0.32352 0.323521 
0.31908 0.307007 0.287113 0.250467 0.194932 0.12762 0.0283184 0.0233207 0.0228141 
0.022961 0.0229232 0.022731 0.0224966 0.0222724 0.0219495 0.021508 0.0210155 0.0205761 
0.0203333 0.0203577 0.0203329 0.282202 0.289031 0.292567 0.292298 0.29599 0.302436 
0.310387 0.317886 0.322397 0.321968 0.310617 0.289304 0.257717 0.209484 0.145095 
0.0357206 0.0275782 0.0250622 0.0239287 0.0230351 0.0223147 0.0217897 0.0214473 0.0211637 
0.020866 0.0205575 0.0203132 0.0202566 0.0203985 0.0204221 0.276763 0.284417 0.28848 
0.289279 0.290486 0.297094 0.30453 0.311384 0.314674 0.314221 0.306726 0.288732 
0.262883 0.219332 0.149546 0.0416567 0.0309373 0.0270174 0.0249147 0.0233465 0.0221969 
0.0214036 0.0209189 0.0206309 0.0204473 0.0203212 0.0202777 0.0203995 0.0206428 0.0206673 
0.272605 0.280498 0.285108 0.286759 0.286604 0.291028 0.298337 0.304231 0.305514 
0.302055 0.295737 0.285517 0.265651 0.225882 0.159868 0.0497283 0.0356696 0.0296519 
0.0264101 0.0241565 0.022567 0.0214654 0.0207872 0.0204364 0.020309 0.020321 0.0204472 
0.020706 0.0210091 0.0209537 0.271145 0.278368 0.282813 0.284545 0.283426 0.285683 
0.290751 0.296151 0.298217 0.293618 0.286052 0.280435 0.2664 0.234313 0.180974 
0.0647368 0.0438311 0.0338773 0.0288473 0.0256661 0.0234442 0.0218694 0.0208502 0.020285 
0.0200408 0.0200125 0.0201602 0.0204136 0.0206717 0.0204257 0.272537 0.277195 0.281065 
0.282098 0.280138 0.28092 0.28373 0.287401 0.291339 0.28948 0.281932 0.275455 
0.265864 0.24286 0.204496 0.0899556 0.0585777 0.0432218 0.0353155 0.0304535 0.0269446 
0.0243825 0.0226066 0.021424 0.0206188 0.0200857 0.0198427 0.01972 0.0196764 0.0191546 
0.110499 0.111135 0.111271 0.110914 0.110081 0.108786 0.107048 0.104886 0.102325 
0.0993911 0.0961141 0.0925261 0.0886618 0.0845583 0.0802548 0.0757929 0.0712165 0.0665716 
0.0619068 0.0572732 0.0527246 0.048318 0.0441137 0.0401753 0.0365694 0.0333649 0.0306309 
0.0284344 0.0268389 0.0258957 0.113325 0.113936 0.114028 0.113607 0.112686 0.11128 
0.109408 0.107092 0.104357 0.101232 0.0977491 0.0939421 0.089848 0.0855062 0.0809582 
0.0762478 0.0714211 0.0665262 0.0616133 0.0567356 0.0519486 0.0473111 0.0428852 0.038737 
0.0349359 0.0315548 0.0286682 0.026349 0.0246651 0.023672 0.115224 0.11583 0.115898 
0.115437 0.114457 0.112977 0.111014 0.108593 0.10574 0.102486 0.0988633 0.0949081 
0.0906588 0.0861566 0.0814445 0.076568 0.0715743 0.0665128 0.0614351 0.0563952 0.0514496 
0.046658 0.0420837 0.037794 0.0338604 0.0303587 0.0273671 0.0249638 0.0232218 0.0222029 
0.117634 0.118237 0.118278 0.117766 0.116713 0.115137 0.113059 0.110504 0.107499 
0.104078 0.100276 0.0961298 0.0916812 0.0869731 0.082051 0.0769622 0.0717561 0.0664839 
0.0611988 0.0559563 0.0508142 0.0458336 0.0410789 0.036619 0.0325275 0.028883 0.0257681 
0.0232664 0.0214583 0.0204129 0.120096 0.120695 0.120708 0.120142 0.119013 0.117337 
0.115139 0.112444 0.109283 0.10569 0.101703 0.0973612 0.0927089 0.0877913 0.0826563 
0.0773534 0.0719343 0.0664521 0.0609618 0.0555202 0.0501865 0.0450228 0.0400946 0.0354718 
0.0312296 0.0274488 0.0242157 0.0216193 0.0197466 0.018675 0.122743 0.123338 0.12332 
0.122696 0.121483 0.1197 0.117371 0.114525 0.111193 0.107414 0.103226 0.0986735 
0.0938014 0.0886585 0.0832952 0.0777639 0.0721184 0.0664143 0.0607084 0.0550593 0.0495275 
0.0441761 0.0390714 0.0342842 0.0298905 0.0259732 0.0226215 0.0199294 0.0179911 0.0168928 
0.125536 0.126127 0.126074 0.125389 0.124086 0.122187 0.119719 0.11671 0.113198 
0.10922 0.10482 0.100043 0.0949389 0.0895588 0.083956 0.078186 0.0723053 0.0663719 
0.0604448 0.0545845 0.0488529 0.043314 0.0380347 0.0330862 0.0285451 0.0244952 0.0210281 
0.0182421 0.0162385 0.0151133 0.128492 0.129078 0.12899 0.128237 0.126839 0.124816 
0.122197 0.119016 0.11531 0.11112 0.106493 0.101479 0.0961288 0.0904977 0.0846427 
0.0786221 0.0724957 0.0663242 0.0601691 0.0540928 0.0481587 0.0424319 0.0369798 0.0318735 
0.0271896 0.023012 0.0194337 0.0165566 0.0144887 0.0133364 0.131619 0.132199 0.132072 
0.131248 0.129745 0.12759 0.124811 0.121445 0.117532 0.113117 0.10825 0.102983 
0.097372 0.0914761 0.0853555 0.0790723 0.0726894 0.0662709 0.0598808 0.053584 0.0474455 
0.0415314 0.0359094 0.0306504 0.0258303 0.0215321 0.0178492 0.0148857 0.0127556 0.0115766 
0.134928 0.135502 0.135333 0.134432 0.132819 0.130521 0.127571 0.124007 0.119874 
0.115219 0.110095 0.10456 0.0986732 0.0924973 0.0860969 0.0795377 0.0728868 0.0662115 
0.059579 0.0530567 0.0467115 0.0406107 0.0348224 0.029417 0.0244689 0.0200596 0.0162811 
0.0132383 0.0110499 0.00984507 0.138434 0.139002 0.138787 0.137803 0.136071 0.133621 
0.130488 0.126713 0.122344 0.117433 0.112037 0.106217 0.100038 0.0935655 0.0868697 
0.0800206 0.073089 0.0661463 0.0592631 0.0525096 0.0459551 0.0396684 0.033718 0.0281735 
0.0231077 0.0185992 0.0147374 0.0116254 0.0093848 0.00815597 0.142153 0.142713 0.142449 
0.141376 0.139517 0.136904 0.133574 0.129574 0.124954 0.11977 0.114084 0.107962 
0.101472 0.0946863 0.0876788 0.0805243 0.0732984 0.0660765 0.0589333 0.0519423 0.0451755 
0.0387033 0.0325951 0.0269198 0.0217481 0.0171552 0.0132258 0.0100589 0.00777544 0.00652582 
0.146101 0.146652 0.146336 0.145166 0.143171 0.140383 0.136845 0.132604 0.127716 
0.122242 0.116248 0.109804 0.102985 0.0958674 0.0885305 0.0810542 0.0735192 0.0660055 
0.058592 0.0513562 0.044373 0.0377152 0.0314533 0.0256559 0.0203916 0.0157315 0.0117542 
0.00855175 0.00623962 0.00497477 0.150294 0.150835 0.150461 0.14919 0.147048 0.144074 
0.140313 0.135816 0.130643 0.124861 0.118539 0.111755 0.104587 0.0971185 0.0894339 
0.0816188 0.0737591 0.06594 0.0582451 0.050756 0.0435515 0.036707 0.0302947 0.0243835 
0.0190404 0.0143325 0.0103311 0.00711848 0.00479871 0.00352827 0.154746 0.155275 0.154841 
0.153459 0.151162 0.14799 0.143992 0.139223 0.133748 0.127639 0.120971 0.113826 
0.10629 0.0984517 0.090401 0.0822297 0.0740294 0.065891 0.0579031 0.050152 0.0427205 
0.0356874 0.0291271 0.0231098 0.0177017 0.0129665 0.00896877 0.00577902 0.00348338 0.00222554 