# vtk DataFile Version 5.1
vtk output
ASCII
DATASET UNSTRUCTURED_GRID
POINTS 9610 double
0.1016 1.5 0.28099998832 0.1016 1.45 0.25999999046 0.1016 1.4 0.23600000143 
0.1016 1.35 0.21099999547 0.1016 1.3 0.20100000501 0.1016 1.25 0.16500000656 
0.1016 1.2 0.14900000393 0.1016 1.15 0.13099999726 0.1016 1.1 0.12700000405 
0.1016 1.05 0.125 0.1016 1 0.093000002205 0.1016 0.95 0.067000001669 
0.1016 0.9 0.045000001788 0.1016 0.85 0.034000001848 0.1016 0.8 0.028000000864 
0.1016 0.75 0.025000000373 0.1016 0.7 0.044058129191 0.1016 0.65 0.070433147252 
0.1016 0.6 0.09648257494 0.1016 0.55 0.12507975101 0.1016 0.5 0.15407636762 
0.1016 0.45 0.18182496727 0.1016 0.4 0.20970889926 0.1016 0.35 0.23818907142 
0.1016 0.3 0.26254275441 0.1016 0.25 0.27623543143 0.1016 0.2 0.2801887095 
0.1016 0.15 0.27855038643 0.1016 0.1 0.26756572723 0.1016 0.05 0.22187276185 
0.1016 0 0.12328904867 5.08 1.5 0.28700000048 5.08 1.45 0.28700000048 
5.08 1.4 0.28700000048 5.08 1.35 0.28700000048 5.08 1.3 0.28700000048 
5.08 1.25 0.28700000048 5.08 1.2 0.28700000048 5.08 1.15 0.28700000048 
5.08 1.1 0.28700000048 5.08 1.05 0.28700000048 5.08 1 0.28700000048 
5.08 0.95 0.28700000048 5.08 0.9 0.28700000048 5.08 0.85 0.28700000048 
5.08 0.8 0.28700000048 5.08 0.75 0.28700000048 5.08 0.7 0.28700000048 
5.08 0.65 0.28700000048 5.08 0.6 0.28700000048 5.08 0.55 0.28700000048 
5.08 0.5 0.28700000048 5.08 0.45 0.28700000048 5.08 0.4 0.28700000048 
5.08 0.35 0.28700000048 5.08 0.3 0.28700000048 5.08 0.25 0.28700000048 
5.08 0.2 0.28700000048 5.08 0.15 0.28700000048 5.08 0.1 0.28700000048 
5.08 0.05 0.28700000048 5.08 0 0.28700000048 0.151384 1.5 0.27905794978 
0.151384 1.45 0.27669888735 0.151384 1.4 0.25560316443 0.151384 1.35 0.22571110725 
0.151384 1.3 0.21274381876 0.151384 1.25 0.18067885935 0.151384 1.2 0.1606926769 
0.151384 1.15 0.1378248632 0.151384 1.1 0.12891018391 0.151384 1.05 0.11516637355 
0.151384 1 0.10770396143 0.151384 0.95 0.091493852437 0.151384 0.9 0.070414654911 
0.151384 0.85 0.046636749059 0.151384 0.8 0.037690129131 0.151384 0.75 0.036647226661 
0.151384 0.7 0.048806179315 0.151384 0.65 0.070897623897 0.151384 0.6 0.091007038951 
0.151384 0.55 0.11902274936 0.151384 0.5 0.14706838131 0.151384 0.45 0.17507201433 
0.151384 0.4 0.20406249166 0.151384 0.35 0.23504410684 0.151384 0.3 0.26299759746 
0.151384 0.25 0.27700138092 0.151384 0.2 0.2790581286 0.151384 0.15 0.2829554677 
0.151384 0.1 0.28282281756 0.151384 0.05 0.28166013956 0.151384 0 0.13834284246 
0.201168 1.5 0.27901622653 0.201168 1.45 0.27900227904 0.201168 1.4 0.27237004042 
0.201168 1.35 0.24421975017 0.201168 1.3 0.21959254146 0.201168 1.25 0.20399458706 
0.201168 1.2 0.18682658672 0.201168 1.15 0.15806974471 0.201168 1.1 0.14516024292 
0.201168 1.05 0.12929178774 0.201168 1 0.12046296895 0.201168 0.95 0.11127010733 
0.201168 0.9 0.097916007042 0.201168 0.85 0.080528222024 0.201168 0.8 0.066663756967 
0.201168 0.75 0.068510696292 0.201168 0.7 0.068965569139 0.201168 0.65 0.083316534758 
0.201168 0.6 0.10815990716 0.201168 0.55 0.13133266568 0.201168 0.5 0.15357342362 
0.201168 0.45 0.18159753084 0.201168 0.4 0.21064251661 0.201168 0.35 0.23685996234 
0.201168 0.3 0.26009628177 0.201168 0.25 0.27318203449 0.201168 0.2 0.2742408216 
0.201168 0.15 0.27727159858 0.201168 0.1 0.27844065428 0.201168 0.05 0.28035160899 
0.201168 0 0.2755408287 0.250952 1.5 0.27809643745 0.250952 1.45 0.27717784047 
0.250952 1.4 0.27688449621 0.250952 1.35 0.26672539115 0.250952 1.3 0.24719494581 
0.250952 1.25 0.22945722938 0.250952 1.2 0.20594792068 0.250952 1.15 0.18635076284 
0.250952 1.1 0.16481861472 0.250952 1.05 0.14409451187 0.250952 1 0.13411143422 
0.250952 0.95 0.12611028552 0.250952 0.9 0.11605659127 0.250952 0.85 0.10941473395 
0.250952 0.8 0.1010549441 0.250952 0.75 0.1048419252 0.250952 0.7 0.1113197878 
0.250952 0.65 0.11203655601 0.250952 0.6 0.1285353899 0.250952 0.55 0.1534589678 
0.250952 0.5 0.17455288768 0.250952 0.45 0.19785009325 0.250952 0.4 0.21935805678 
0.250952 0.35 0.2463119179 0.250952 0.3 0.26461085677 0.250952 0.25 0.26729187369 
0.250952 0.2 0.27111881971 0.250952 0.15 0.27221339941 0.250952 0.1 0.27409687638 
0.250952 0.05 0.27555412054 0.250952 0 0.28397846222 0.300736 1.5 0.27428755164 
0.300736 1.45 0.27514898777 0.300736 1.4 0.2752109766 0.300736 1.35 0.2710172236 
0.300736 1.3 0.26861137152 0.300736 1.25 0.24943968654 0.300736 1.2 0.22447507083 
0.300736 1.15 0.20547521114 0.300736 1.1 0.18157067895 0.300736 1.05 0.16697093844 
0.300736 1 0.15241217613 0.300736 0.95 0.14436924458 0.300736 0.9 0.13074612617 
0.300736 0.85 0.12932994962 0.300736 0.8 0.12339722365 0.300736 0.75 0.13025963306 
0.300736 0.7 0.13641735911 0.300736 0.65 0.14637438953 0.300736 0.6 0.16771344841 
0.300736 0.55 0.18257932365 0.300736 0.5 0.19989658892 0.300736 0.45 0.21917027235 
0.300736 0.4 0.24014051259 0.300736 0.35 0.25802481174 0.300736 0.3 0.26869031787 
0.300736 0.25 0.26973238587 0.300736 0.2 0.27094963193 0.300736 0.15 0.27290317416 
0.300736 0.1 0.27394413948 0.300736 0.05 0.27307900786 0.300736 0 0.27634099126 
0.35052 1.5 0.27574059367 0.35052 1.45 0.27403780818 0.35052 1.4 0.27402418852 
0.35052 1.35 0.27374240756 0.35052 1.3 0.27203935385 0.35052 1.25 0.27097347379 
0.35052 1.2 0.24669718742 0.35052 1.15 0.22752198577 0.35052 1.1 0.2098877728 
0.35052 1.05 0.18959486485 0.35052 1 0.1754013449 0.35052 0.95 0.16629499197 
0.35052 0.9 0.15774668753 0.35052 0.85 0.15852059424 0.35052 0.8 0.15080136061 
0.35052 0.75 0.15135253966 0.35052 0.7 0.15390940011 0.35052 0.65 0.17415291071 
0.35052 0.6 0.19178444147 0.35052 0.55 0.20937302709 0.35052 0.5 0.22627454996 
0.35052 0.45 0.24168753624 0.35052 0.4 0.2601364851 0.35052 0.35 0.26815363765 
0.35052 0.3 0.26995968819 0.35052 0.25 0.27094757557 0.35052 0.2 0.27101308107 
0.35052 0.15 0.27212134004 0.35052 0.1 0.27309086919 0.35052 0.05 0.27300399542 
0.35052 0 0.27411714196 0.400304 1.5 0.27605429292 0.400304 1.45 0.27491173148 
0.400304 1.4 0.27490511537 0.400304 1.35 0.2731539309 0.400304 1.3 0.27300411463 
0.400304 1.25 0.2724712193 0.400304 1.2 0.26878193021 0.400304 1.15 0.25218883157 
0.400304 1.1 0.23666471243 0.400304 1.05 0.21901516616 0.400304 1 0.21025703847 
0.400304 0.95 0.20410560071 0.400304 0.9 0.19811345637 0.400304 0.85 0.19108389318 
0.400304 0.8 0.19096513093 0.400304 0.75 0.19252809882 0.400304 0.7 0.19284175336 
0.400304 0.65 0.20521552861 0.400304 0.6 0.22154374421 0.400304 0.55 0.23346307874 
0.400304 0.5 0.24957509339 0.400304 0.45 0.26558357477 0.400304 0.4 0.26860481501 
0.400304 0.35 0.27014628053 0.400304 0.3 0.27011552453 0.400304 0.25 0.27104184031 
0.400304 0.2 0.27187478542 0.400304 0.15 0.27197834849 0.400304 0.1 0.27382349968 
0.400304 0.05 0.27386802435 0.400304 0 0.27482628822 0.450088 1.5 0.27515858412 
0.450088 1.45 0.27418369055 0.450088 1.4 0.27331107855 0.450088 1.35 0.27300551534 
0.450088 1.3 0.27209055424 0.450088 1.25 0.27030715346 0.450088 1.2 0.27047652006 
0.450088 1.15 0.26762294769 0.450088 1.1 0.26458019018 0.450088 1.05 0.25451385975 
0.450088 1 0.24804627895 0.450088 0.95 0.23501609266 0.450088 0.9 0.2237021327 
0.450088 0.85 0.22185818851 0.450088 0.8 0.22227066755 0.450088 0.75 0.22188581526 
0.450088 0.7 0.22280931473 0.450088 0.65 0.22574804723 0.450088 0.6 0.23197965324 
0.450088 0.55 0.24386693537 0.450088 0.5 0.26178875566 0.450088 0.45 0.26494929194 
0.450088 0.4 0.26567786932 0.450088 0.35 0.26650029421 0.450088 0.3 0.26735934615 
0.450088 0.25 0.26927897334 0.450088 0.2 0.27202183008 0.450088 0.15 0.27204078436 
0.450088 0.1 0.27486345172 0.450088 0.05 0.27492448688 0.450088 0 0.27587261796 
0.499872 1.5 0.27414944768 0.499872 1.45 0.27313879132 0.499872 1.4 0.27214899659 
0.499872 1.35 0.27218651772 0.499872 1.3 0.27201932669 0.499872 1.25 0.26998788118 
0.499872 1.2 0.2691411376 0.499872 1.15 0.26933151484 0.499872 1.1 0.2686149478 
0.499872 1.05 0.26663300395 0.499872 1 0.2673022449 0.499872 0.95 0.26317375898 
0.499872 0.9 0.25844565034 0.499872 0.85 0.24646627903 0.499872 0.8 0.24376001954 
0.499872 0.75 0.2401868701 0.499872 0.7 0.23686382174 0.499872 0.65 0.24215321243 
0.499872 0.6 0.25313478708 0.499872 0.55 0.26121255755 0.499872 0.5 0.26404681802 
0.499872 0.45 0.26484560966 0.499872 0.4 0.26577168703 0.499872 0.35 0.26679316163 
0.499872 0.3 0.26864859462 0.499872 0.25 0.2690115869 0.499872 0.2 0.27035436034 
0.499872 0.15 0.27210208774 0.499872 0.1 0.27425345778 0.499872 0.05 0.27427840233 
0.499872 0 0.27604335546 0.549656 1.5 0.27456706762 0.549656 1.45 0.27350410819 
0.549656 1.4 0.27250754833 0.549656 1.35 0.27249127626 0.549656 1.3 0.27167934179 
0.549656 1.25 0.27049183846 0.549656 1.2 0.26943814754 0.549656 1.15 0.26936808228 
0.549656 1.1 0.26997902989 0.549656 1.05 0.26997628808 0.549656 1 0.26899018884 
0.549656 0.95 0.27154409885 0.549656 0.9 0.2694785893 0.549656 0.85 0.26510161161 
0.549656 0.8 0.2641993165 0.549656 0.75 0.25846558809 0.549656 0.7 0.26010221243 
0.549656 0.65 0.26220682263 0.549656 0.6 0.26294401288 0.549656 0.55 0.26321282983 
0.549656 0.5 0.26282328367 0.549656 0.45 0.26374971867 0.549656 0.4 0.2648113668 
0.549656 0.35 0.26748609543 0.549656 0.3 0.26869404316 0.549656 0.25 0.26946756244 
0.549656 0.2 0.2696184814 0.549656 0.15 0.27165040374 0.549656 0.1 0.27202031016 
0.549656 0.05 0.2737031877 0.549656 0 0.27576756477 0.59944 1.5 0.28180611134 
0.59944 1.45 0.28140956163 0.59944 1.4 0.28102755547 0.59944 1.35 0.28093528748 
0.59944 1.3 0.28047883511 0.59944 1.25 0.28005582094 0.59944 1.2 0.27968811989 
0.59944 1.15 0.27980130911 0.59944 1.1 0.28039675951 0.59944 1.05 0.28018990159 
0.59944 1 0.27916529775 0.59944 0.95 0.28016269207 0.59944 0.9 0.27987554669 
0.59944 0.85 0.28020054102 0.59944 0.8 0.280518502 0.59944 0.75 0.27860879898 
0.59944 0.7 0.27991515398 0.59944 0.65 0.2797690928 0.59944 0.6 0.27745947242 
0.59944 0.55 0.27609798312 0.59944 0.5 0.27613809705 0.59944 0.45 0.27664643526 
0.59944 0.4 0.2772500813 0.59944 0.35 0.27856889367 0.59944 0.3 0.27913093567 
[...]
CELL_DATA 9270
FIELD FieldData 7
B_Stress_n_p_m2 1 9270 float
0.257777 0.307535 0.304175 0.293371 0.286901 0.277427 0.271306 0.267653 0.265671 
0.268232 0.268415 0.266766 0.260396 0.256711 0.252503 0.203028 0.153196 0.126109 
0.108034 0.0954192 0.086412 0.0799123 0.0752469 0.0717877 0.0686684 0.0656909 0.0643227 
0.0629106 0.0603903 0.0420386 0.254924 0.310284 0.312508 0.297774 0.288117 0.279246 
0.270907 0.262633 0.256538 0.251593 0.250065 0.245083 0.235737 0.222457 0.203156 
0.165989 0.137469 0.117027 0.101737 0.0905121 0.0820002 0.0755185 0.0707918 0.0667491 
0.0626783 0.059029 0.0558348 0.0518972 0.0452362 0.028395 0.250555 0.305591 0.317185 
0.309548 0.295136 0.284131 0.274501 0.262902 0.253532 0.245384 0.239031 0.231614 
0.222911 0.211461 0.195332 0.172133 0.149798 0.132746 0.119702 0.109223 0.101108 
0.0954078 0.0910051 0.0864658 0.0812913 0.0764006 0.0714434 0.064541 0.0533295 0.0322218 
0.24454 0.298868 0.312744 0.314306 0.306178 0.291343 0.276854 0.264865 0.252387 
0.241732 0.232662 0.223564 0.214109 0.203319 0.189612 0.172996 0.158292 0.144668 
0.133566 0.124521 0.11721 0.111817 0.106368 0.100692 0.0943412 0.0876588 0.0813492 
0.0722603 0.057873 0.0342699 0.239543 0.293322 0.306878 0.309774 0.310103 0.300954 
0.285637 0.271934 0.257391 0.246133 0.235566 0.226455 0.216251 0.206229 0.193828 
0.181004 0.169817 0.16047 0.151886 0.143633 0.137066 0.130532 0.123641 0.115514 
0.107578 0.100203 0.0923753 0.0819458 0.0654188 0.0396362 0.235356 0.288168 0.300866 
0.303834 0.304011 0.304664 0.296647 0.285219 0.272788 0.260282 0.24882 0.238374 
0.228539 0.218983 0.207772 0.196108 0.185139 0.176774 0.168396 0.161615 0.154225 
0.14556 0.136399 0.126825 0.118242 0.110898 0.102589 0.0914004 0.0735324 0.0458393 
0.229177 0.281556 0.294035 0.296099 0.296137 0.296358 0.297518 0.293583 0.286921 
0.277789 0.266935 0.255035 0.243573 0.23245 0.22201 0.210792 0.200017 0.190511 
0.182289 0.17386 0.164778 0.154926 0.144033 0.134714 0.126832 0.119901 0.112035 
0.100678 0.0821558 0.0526418 0.223175 0.274908 0.286774 0.288884 0.288599 0.287911 
0.288532 0.288819 0.287831 0.28409 0.278458 0.268448 0.256068 0.24467 0.232825 
0.221295 0.211214 0.201527 0.191709 0.181403 0.171096 0.15968 0.149936 0.141602 
0.13443 0.127716 0.120332 0.109161 0.0904584 0.0594155 0.221228 0.272645 0.28431 
0.286063 0.285867 0.285078 0.284569 0.284497 0.283497 0.281352 0.278539 0.273405 
0.266196 0.255471 0.244523 0.233796 0.222987 0.212097 0.201165 0.189483 0.177294 
0.166844 0.158094 0.150496 0.143837 0.137219 0.129703 0.118797 0.099755 0.0671534 
0.223914 0.275719 0.287698 0.289586 0.289342 0.288791 0.288 0.287073 0.285637 
0.283266 0.27931 0.275487 0.269978 0.263102 0.254883 0.245041 0.235419 0.224127 
0.211709 0.199667 0.188502 0.178813 0.170299 0.16301 0.156303 0.149885 0.142252 
0.131307 0.111507 0.0769292 0.225241 0.277339 0.289661 0.291651 0.291521 0.290954 
0.289998 0.288574 0.286625 0.283955 0.280119 0.27557 0.270286 0.264311 0.257119 
0.248957 0.239891 0.229887 0.219245 0.208777 0.198957 0.189913 0.18171 0.174389 
0.167796 0.161499 0.154144 0.143268 0.123248 0.0866304 0.22223 0.273966 0.286146 
0.288005 0.287726 0.286929 0.285732 0.284027 0.281729 0.278892 0.275352 0.270873 
0.265806 0.259935 0.253211 0.245995 0.237748 0.229062 0.220285 0.211495 0.202926 
0.194862 0.187453 0.180703 0.17463 0.16881 0.162042 0.15179 0.132169 0.0942261 
0.21786 0.269113 0.28103 0.282716 0.282214 0.281179 0.279758 0.277907 0.275552 
0.272667 0.269163 0.26498 0.260202 0.254777 0.248697 0.242088 0.234873 0.227298 
0.219578 0.211887 0.204421 0.19736 0.190828 0.184874 0.179459 0.174255 0.168156 
0.158682 0.139609 0.100711 0.213763 0.264658 0.276399 0.277956 0.27731 0.276134 
0.27459 0.27266 0.270285 0.267436 0.264061 0.260127 0.255666 0.250667 0.245149 
0.239185 0.232798 0.226146 0.219383 0.212654 0.206111 0.199898 0.194119 0.188836 
0.184009 0.179375 0.173904 0.165146 0.146599 0.10681 0.209848 0.260427 0.272037 
0.273502 0.272764 0.271504 0.269898 0.267946 0.2656 0.262834 0.259616 0.255932 
0.251794 0.247211 0.242208 0.236842 0.231166 0.22529 0.219332 0.213415 0.20766 
0.202181 0.19707 0.192387 0.188101 0.183994 0.179108 0.171019 0.152991 0.112428 
0.206178 0.256465 0.267975 0.269379 0.268588 0.267291 0.265669 0.263736 0.261453 
0.258801 0.255761 0.252326 0.248505 0.244314 0.239783 0.234959 0.229899 0.224689 
0.219425 0.214204 0.209126 0.204286 0.199762 0.195612 0.191813 0.188184 0.18383 
0.176357 0.158838 0.117611 0.202768 0.252775 0.264203 0.26557 0.264757 0.263456 
0.261851 0.259967 0.257771 0.255253 0.252399 0.249209 0.245693 0.241869 0.237766 
0.233429 0.228909 0.224277 0.219611 0.214991 0.2105 0.206218 0.202211 0.198536 
0.195173 0.191972 0.188097 0.18119 0.164167 0.122376 0.199625 0.249356 0.260713 
0.26206 0.261248 0.259966 0.258403 0.256588 0.254496 0.252122 0.249457 0.246506 
0.243278 0.239794 0.236081 0.232179 0.228135 0.224008 0.219861 0.215764 0.211785 
0.207992 0.204441 0.201185 0.198212 0.195393 0.191946 0.185555 0.169012 0.126749 
0.196748 0.246204 0.257493 0.258832 0.258038 0.256792 0.255286 0.253555 0.251576 
0.249351 0.246873 0.244151 0.241194 0.238022 0.234663 0.231151 0.227527 0.223843 
0.220152 0.216512 0.212981 0.209616 0.206468 0.203585 0.200957 0.198476 0.195411 
0.18949 0.17341 0.130758 0.194128 0.243307 0.254531 0.255869 0.255103 0.253905 
0.252466 0.250827 0.248967 0.246891 0.244596 0.24209 0.239386 0.236502 0.233462 
0.230299 0.22705 0.223756 0.220465 0.217226 0.214088 0.211102 0.208309 0.205756 
0.203434 0.201252 0.198525 0.193032 0.177398 0.134431 0.191756 0.240654 0.251811 
0.253152 0.252421 0.251278 0.249914 0.248371 0.246631 0.244702 0.242582 0.240281 
0.23781 0.235189 0.232439 0.229589 0.226672 0.223724 0.220787 0.217901 0.215109 
0.212456 0.209978 0.207716 0.205666 0.203747 0.201322 0.196216 0.181009 0.137795 
0.189619 0.23823 0.249316 0.250663 0.249972 0.248888 0.247602 0.246155 0.244535 
0.242747 0.240794 0.238684 0.23643 0.234049 0.231561 0.228992 0.226372 0.223731 
0.221106 0.218532 0.216046 0.213687 0.211488 0.209485 0.207674 0.205988 0.20383 
0.199077 0.184278 0.140877 0.187704 0.236021 0.247031 0.248383 0.247735 0.246713 
0.245505 0.244155 0.242649 0.240998 0.239201 0.23727 0.235215 0.233053 0.230802 
0.228486 0.226131 0.223763 0.221415 0.219118 0.216903 0.214804 0.212851 0.211077 
0.209478 0.207998 0.206076 0.201643 0.187235 0.143702 0.185997 0.234011 0.24494 
0.246297 0.245693 0.244731 0.243601 0.242344 0.24095 0.239427 0.237777 0.236011 
0.234139 0.232177 0.230141 0.228053 0.225934 0.223811 0.221709 0.219657 0.217682 
0.215814 0.214079 0.212508 0.211097 0.209798 0.208086 0.203945 0.189911 0.146294 
0.184484 0.232187 0.243028 0.244388 0.243826 0.242925 0.24187 0.240704 0.239415 
0.238014 0.236501 0.234888 0.233184 0.231403 0.229562 0.227678 0.225772 0.223866 
0.221983 0.220149 0.218387 0.216725 0.215183 0.213792 0.212548 0.211407 0.209882 
0.206007 0.192332 0.148675 0.183151 0.230533 0.24128 0.242641 0.242121 0.241278 
0.240296 0.239215 0.238026 0.236737 0.235352 0.23388 0.232329 0.230714 0.229049 
0.227349 0.225634 0.223923 0.222236 0.220596 0.219023 0.217543 0.216173 0.214941 
0.213844 0.212845 0.211485 0.207853 0.194523 0.150867 0.181984 0.229036 0.239682 
0.241042 0.240561 0.239774 0.238861 0.237861 0.236765 0.235583 0.234315 0.232972 
0.231562 0.230098 0.228591 0.227058 0.225514 0.223977 0.222465 0.220997 0.219594 
0.218275 0.217058 0.215968 0.215002 0.214127 0.212915 0.209505 0.196506 0.152886 
0.180971 0.227683 0.238222 0.239577 0.239133 0.2384 0.237552 0.236628 0.235619 
0.234535 0.233376 0.232152 0.23087 0.229542 0.228179 0.226796 0.225405 0.224025 
0.222669 0.221356 0.220103 0.218929 0.217847 0.216882 0.216032 0.215268 0.214187 
0.210981 0.198302 0.154752 0.180099 0.226462 0.236888 0.238235 0.237826 0.237142 
0.236355 0.235503 0.234575 0.233581 0.232522 0.231407 0.230242 0.229038 0.227806 
0.226557 0.225305 0.224064 0.222849 0.221674 0.220555 0.219509 0.218549 0.217695 
0.216948 0.216281 0.215318 0.2123 0.199929 0.156479 0.179357 0.22536 0.235667 
0.237005 0.236628 0.23599 0.235261 0.234474 0.233621 0.232711 0.231744 0.230728 
0.229669 0.228578 0.227464 0.226337 0.22521 0.224095 0.223004 0.221953 0.220954 
0.220022 0.21917 0.218416 0.21776 0.21718 0.216321 0.213477 0.201405 0.158081 
0.178735 0.224368 0.23455 0.235876 0.235528 0.234934 0.234258 0.233532 0.232748 
0.231915 0.231032 0.230107 0.229145 0.228156 0.227148 0.226132 0.225116 0.224114 
0.223136 0.222195 0.221303 0.220474 0.219718 0.219052 0.218478 0.217974 0.217209 
0.214527 0.202744 0.159572 0.178222 0.223475 0.233528 0.234838 0.234517 0.233963 
0.233337 0.232667 0.231948 0.231184 0.230378 0.229536 0.228663 0.227767 0.226855 
0.225938 0.225023 0.224122 0.223245 0.222403 0.221607 0.220869 0.220198 0.219612 
0.21911 0.218674 0.217994 0.215461 0.203959 0.160962 0.17781 0.222672 0.232592 
0.233884 0.233587 0.233071 0.232489 0.231872 0.231211 0.230512 0.229776 0.22901 
0.228217 0.227404 0.22658 0.225752 0.224929 0.224119 0.223332 0.222579 0.221868 
0.221212 0.220618 0.220102 0.219665 0.21929 0.218685 0.216292 0.205064 0.162263 
0.17749 0.221951 0.231733 0.233005 0.232731 0.232248 0.231709 0.231139 0.230532 
0.229892 0.22922 0.228522 0.227802 0.227066 0.226321 0.225574 0.224832 0.224104 
0.223399 0.222725 0.222091 0.221508 0.220983 0.22053 0.22015 0.219829 0.219292 
0.217029 0.206069 0.163484 0.177254 0.221305 0.230944 0.232195 0.23194 0.231489 
0.230988 0.230462 0.229904 0.229318 0.228705 0.228069 0.227415 0.226748 0.226074 
0.2254 0.224732 0.224078 0.223446 0.222844 0.222279 0.221761 0.221297 0.2209 
0.220571 0.220298 0.219824 0.217682 0.206985 0.164633 0.177094 0.220726 0.23022 
0.231446 0.231209 0.230787 0.230321 0.229835 0.229322 0.228785 0.228226 0.227647 
0.227053 0.226448 0.225839 0.22523 0.224629 0.224042 0.223475 0.222937 0.222433 
0.221974 0.221565 0.221218 0.220935 0.220705 0.220287 0.21826 0.207819 0.165718 
0.177004 0.220208 0.229553 0.230754 0.230532 0.230136 0.229703 0.229254 0.228781 
0.22829 0.227778 0.227251 0.226711 0.226163 0.225612 0.225063 0.224522 0.223994 
0.223487 0.223006 0.222558 0.222151 0.221791 0.221489 0.221247 0.221055 0.220688 
0.218769 0.20858 0.166746 0.176975 0.219748 0.228939 0.230112 0.229904 0.229532 
0.229129 0.228713 0.228278 0.227827 0.227359 0.226879 0.226389 0.225892 0.225393 
0.224898 0.224411 0.223937 0.223483 0.223053 0.222655 0.222295 0.221979 0.221717 
0.221512 0.221355 0.221033 0.219217 0.209275 0.167724 0.177 0.219343 0.228372 
0.229516 0.22932 0.22897 0.228594 0.228208 0.227807 0.227393 0.226966 0.226528 
0.226082 0.225632 0.225181 0.224734 0.224296 0.223871 0.223464 0.223081 0.222727 
0.22241 0.222133 0.221907 0.221735 0.221608 0.221328 0.219609 0.209911 0.168656 
0.177073 0.218988 0.227848 0.228961 0.228776 0.228446 0.228094 0.227736 0.227367 
0.226986 0.226595 0.226196 0.225791 0.225382 0.224974 0.224571 0.224177 0.223795 
0.223431 0.22309 0.222777 0.222497 0.222256 0.222062 0.221919 0.22182 0.221578 
0.21995 0.210493 0.169548 0.177191 0.218678 0.227362 0.228444 0.228268 0.227956 
0.227627 0.227294 0.226952 0.226603 0.226245 0.22588 0.225512 0.225141 0.224772 
0.224409 0.224054 0.223712 0.223386 0.223083 0.222806 0.22256 0.22235 0.222186 
0.222069 0.221995 0.221787 0.220247 0.211027 0.170404 0.177349 0.218408 0.226912 
0.227961 0.227793 0.227496 0.227188 0.226878 0.226562 0.22624 0.225912 0.225579 
0.225244 0.224908 0.224574 0.224246 0.223927 0.22362 0.22333 0.22306 0.222815 
0.2226 0.222419 0.222281 0.222187 0.222135 0.22196 0.220502 0.211517 0.171229 
0.177545 0.218173 0.226494 0.227509 0.227347 0.227065 0.226775 0.226486 0.226194 
0.225897 0.225596 0.225292 0.224986 0.224681 0.224379 0.224083 0.223796 0.223522 
0.223263 0.223024 0.222808 0.22262 0.222465 0.222349 0.222277 0.222245 0.222099 
0.220721 0.211967 0.172026 0.177775 0.217971 0.226106 0.227084 0.226927 0.226659 
0.226386 0.226116 0.225844 0.225571 0.225294 0.225016 0.224737 0.22446 0.224187 
0.22392 0.223662 0.223417 0.223186 0.222974 0.222784 0.222622 0.222489 0.222395 
0.222341 0.222327 0.222207 0.220906 0.212382 0.172799 0.178037 0.217796 0.225743 
0.226684 0.226532 0.226276 0.226018 0.225765 0.225513 0.225259 0.225005 0.22475 
0.224497 0.224245 0.223997 0.223757 0.223525 0.223305 0.2231 0.222913 0.222747 
0.222607 0.222495 0.222419 0.222382 0.222384 0.222289 0.221061 0.212764 0.173551 
0.178328 0.217648 0.225405 0.226307 0.226158 0.225913 0.225669 0.225431 0.225196 
0.224962 0.224728 0.224494 0.224263 0.224034 0.22381 0.223593 0.223385 0.223189 
0.223006 0.222842 0.222696 0.222576 0.222483 0.222424 0.222402 0.222419 0.222346 
0.221188 0.213116 0.174284 0.178646 0.217522 0.225087 0.22595 0.225803 0.225568 
0.225337 0.225113 0.224894 0.224677 0.224461 0.224247 0.224035 0.223827 0.223624 
0.223428 0.223242 0.223067 0.222905 0.22276 0.222634 0.222532 0.222455 0.222411 
0.222403 0.222433 0.222381 0.22129 0.213442 0.175001 0.178989 0.217416 0.224789 
0.225612 0.225466 0.22524 0.22502 0.22481 0.224605 0.224402 0.224203 0.224006 
0.223813 0.223623 0.22344 0.223263 0.223096 0.22294 0.222797 0.22267 0.222561 
0.222475 0.222413 0.222383 0.222388 0.222429 0.222396 0.22137 0.213744 0.175704 
0.179356 0.217328 0.224507 0.22529 0.225145 0.224927 0.224717 0.224519 0.224326 
0.224138 0.223954 0.223773 0.223595 0.223423 0.223256 0.223097 0.222947 0.222809 
0.222682 0.222572 0.222478 0.222407 0.222359 0.222341 0.222356 0.222408 0.222393 
0.221429 0.214023 0.176395 0.179744 0.217257 0.22424 0.224983 0.224839 0.224628 
0.224427 0.224239 0.224058 0.223883 0.223712 0.223545 0.223383 0.223225 0.223074 
0.222931 0.222797 0.222673 0.222562 0.222466 0.222387 0.222328 0.222292 0.222286 
0.222311 0.222372 0.222373 0.22147 0.214282 0.177076 0.180153 0.217199 0.223987 
0.224689 0.224545 0.22434 0.224149 0.22397 0.2238 0.223635 0.223477 0.223322 
0.223174 0.22303 0.222893 0.222764 0.222644 0.222534 0.222437 0.222354 0.222287 
0.222241 0.222216 0.222219 0.222253 0.222322 0.222339 0.221494 0.214523 0.177749 
0.18058 0.217155 0.223746 0.224408 0.224263 0.224064 0.22388 0.22371 0.223549 
0.223395 0.223247 0.223105 0.222968 0.222837 0.222713 0.222596 0.222489 0.222392 
0.222307 0.222236 0.222181 0.222145 0.222129 0.222141 0.222183 0.222261 0.222291 
0.221502 0.214747 0.178415 0.181026 0.217121 0.223515 0.224137 0.223991 0.223798 
0.223621 0.223458 0.223306 0.223161 0.223024 0.222891 0.222766 0.222646 0.222533 
0.222428 0.222332 0.222247 0.222173 0.222113 0.222067 0.222041 0.222034 0.222054 
0.222104 0.222188 0.222231 0.221496 0.214956 0.179076 0.181489 0.217097 0.223294 
0.223876 0.223729 0.22354 0.223369 0.223214 0.22307 0.222933 0.222805 0.222682 
0.222566 0.222456 0.222354 0.222259 0.222174 0.222099 0.222034 0.221984 0.221948 
0.22193 0.221932 0.221959 0.222015 0.222105 0.222161 0.221477 0.21515 0.179732 
0.181967 0.217082 0.223081 0.223624 0.223475 0.223291 0.223126 0.222976 0.222839 
0.22271 0.22259 0.222476 0.222369 0.222268 0.222175 0.22209 0.222014 0.221948 
0.221893 0.221851 0.221823 0.221813 0.221822 0.221855 0.221917 0.222013 0.22208 
0.221447 0.215331 0.180385 0.18246 0.217074 0.222875 0.223379 0.223229 0.223048 
0.222888 0.222745 0.222614 0.222492 0.222379 0.222273 0.222174 0.222081 0.221997 
0.22192 0.221852 0.221795 0.221748 0.221714 0.221693 0.22169 0.221705 0.221745 
0.221812 0.221913 0.22199 0.221406 0.2155 0.181037 0.182968 0.217072 0.222676 
0.223142 0.222989 0.222812 0.222657 0.222519 0.222394 0.222278 0.222172 0.222072 
0.221981 0.221896 0.221819 0.22175 0.22169 0.221639 0.2216 0.221573 0.221559 
0.221562 0.221583 0.221628 0.2217 0.221805 0.221892 0.221355 0.215658 0.181687 
0.18349 0.217076 0.222482 0.222911 0.222756 0.222582 0.222432 0.222298 0.222178 
0.222068 0.221968 0.221874 0.221789 0.221711 0.221641 0.221579 0.221526 0.221482 
0.221449 0.221429 0.221421 0.22143 0.221456 0.221506 0.221581 0.221691 0.221786 
0.221295 0.215805 0.182337 0.184025 0.217084 0.222293 0.222685 0.222529 0.222358 
0.222211 0.222081 0.221966 0.221861 0.221766 0.221679 0.221599 0.221527 0.221463 
0.221408 0.221361 0.221323 0.221296 0.221281 0.221279 0.221293 0.221324 0.221378 
0.221457 0.221571 0.221674 0.221227 0.215943 0.182988 0.184572 0.217096 0.222109 
0.222465 0.222307 0.222138 0.221994 0.221868 0.221758 0.221657 0.221567 0.221485 
0.221411 0.221344 0.221286 0.221236 0.221194 0.221163 0.221141 0.221131 0.221134 
0.221153 0.221188 0.221245 0.221328 0.221445 0.221556 0.221151 0.216071 0.18364 
0.185132 0.217111 0.221929 0.222249 0.222089 0.221922 0.221782 0.221659 0.221553 
0.221456 0.221371 0.221293 0.221224 0.221162 0.221109 0.221064 0.221027 0.221 
0.220983 0.220979 0.220986 0.221009 0.221047 0.221109 0.221194 0.221314 0.221432 
0.221068 0.216191 0.184294 0.185704 0.217129 0.221751 0.222037 0.221875 0.22171 
0.221573 0.221454 0.22135 0.221258 0.221176 0.221102 0.221038 0.220981 0.220932 
0.220891 0.220859 0.220837 0.220824 0.220824 0.220835 0.220861 0.220904 0.220968 
0.221056 0.221179 0.221303 0.220979 0.216303 0.18495 0.186287 0.217148 0.221577 
0.221829 0.221665 0.221502 0.221367 0.221251 0.22115 0.221061 0.220983 0.220913 
0.220852 0.220799 0.220755 0.220718 0.22069 0.220672 0.220663 0.220666 0.220681 
0.220711 0.220756 0.220824 0.220914 0.22104 0.22117 0.220883 0.216407 0.18561 
0.186881 0.217168 0.221404 0.221624 0.221458 0.221297 0.221164 0.22105 0.220953 
0.220866 0.220792 0.220725 0.220668 0.220619 0.220578 0.220545 0.220521 0.220506 
0.220501 0.220507 0.220525 0.220558 0.220607 0.220676 0.220769 0.220896 0.221033 
0.220782 0.216504 0.186273 0.187487 0.217189 0.221234 0.221422 0.221254 0.221094 
0.220964 0.220852 0.220757 0.220674 0.220602 0.220538 0.220484 0.220438 0.220401 
0.220371 0.220351 0.220339 0.220337 0.220347 0.220368 0.220403 0.220454 0.220526 
0.220621 0.22075 0.220891 0.220676 0.216594 0.186941 0.188103 0.217209 0.221065 
0.221222 0.221052 0.220894 0.220766 0.220656 0.220564 0.220482 0.220413 0.220353 
0.220302 0.220258 0.220224 0.220197 0.22018 0.220171 0.220172 0.220184 0.220208 
0.220246 0.220299 0.220373 0.22047 0.220601 0.220746 0.220565 0.216677 0.187614 
0.18873 0.21723 0.220897 0.221025 0.220853 0.220696 0.22057 0.220462 0.220371 
0.220293 0.220226 0.220168 0.220119 0.220079 0.220047 0.220023 0.220008 0.220002 
0.220006 0.220021 0.220047 0.220087 0.220142 0.220218 0.220316 0.220448 0.220599 
0.22045 0.216753 0.188291 0.189367 0.21725 0.22073 0.220829 0.220656 0.2205 
0.220375 0.220269 0.220181 0.220104 0.220039 0.219984 0.219937 0.219899 0.21987 
0.219849 0.219836 0.219833 0.219839 0.219856 0.219884 0.219926 0.219983 0.22006 
0.22016 0.220294 0.220448 0.22033 0.216823 0.188974 0.190015 0.217268 0.220564 
0.220636 0.220461 0.220306 0.220183 0.220078 0.219992 0.219917 0.219854 0.2198 
0.219756 0.21972 0.219693 0.219674 0.219664 0.219662 0.21967 0.219689 0.219719 
0.219763 0.219822 0.219901 0.220001 0.220137 0.220294 0.220206 0.216887 0.189663 
0.190673 0.217285 0.220399 0.220444 0.220268 0.220114 0.219992 0.219888 0.219803 
0.21973 0.219669 0.219617 0.219575 0.219541 0.219516 0.219499 0.219491 0.219491 
0.219501 0.219522 0.219554 0.219599 0.219659 0.219739 0.219841 0.219978 0.220138 
0.220079 0.216945 0.190358 0.191341 0.2173 0.220234 0.220253 0.220076 0.219923 
0.219802 0.2197 0.219616 0.219545 0.219485 0.219435 0.219395 0.219363 0.219339 
0.219324 0.219317 0.21932 0.219331 0.219354 0.219387 0.219434 0.219495 0.219577 
0.219679 0.219817 0.21998 0.219948 0.216997 0.191059 0.192019 0.217313 0.220068 
0.220064 0.219885 0.219733 0.219613 0.219512 0.21943 0.21936 0.219302 0.219253 
0.219215 0.219184 0.219162 0.219149 0.219144 0.219148 0.219161 0.219185 0.219219 
0.219268 0.21933 0.219412 0.219516 0.219654 0.21982 0.219814 0.217043 0.191768 
0.192707 0.217323 0.219903 0.219875 0.219696 0.219544 0.219426 0.219326 0.219245 
0.219176 0.219119 0.219072 0.219035 0.219006 0.218985 0.218973 0.21897 0.218975 
0.21899 0.219015 0.21905 0.2191 0.219163 0.219246 0.219351 0.21949 0.219658 
0.219677 0.217083 0.192483 0.193406 0.217331 0.219738 0.219688 0.219507 0.219357 
0.219239 0.21914 0.21906 0.218992 0.218937 0.218891 0.218855 0.218828 0.218809 