# vtk DataFile Version 5.1
vtk output
ASCII
DATASET UNSTRUCTURED_GRID
POINTS 10043 double
-10.1 1.4499999993 -3.1683089219e-07 -10.049999999 1.4499999993 -1.9979982824e-07 -10.049999999 1.5 7.3252681432e-07 
-9.9999999985 1.4499999993 -1.5377302987e-07 -9.9999999985 1.5 5.7977899814e-07 -9.9499999978 1.4499999993 -1.3029988111e-07 
-9.9499999978 1.5 4.9448112804e-07 -9.899999997 1.4499999993 -1.1525775534e-07 -9.899999997 1.5 4.387336503e-07 
-9.8499999963 1.4499999993 -1.0465395661e-07 -9.8499999963 1.5 3.9890323933e-07 -9.7999999955 1.4499999993 -9.6690421003e-08 
-9.7999999955 1.5 3.688335255e-07 -9.7499999948 1.4499999993 -9.0487667137e-08 -9.7499999948 1.5 3.4527306525e-07 
-9.699999994 1.4499999993 -8.5529102023e-08 -9.699999994 1.5 3.2626644497e-07 -9.6499999933 1.4499999993 -8.1365435278e-08 
-9.6499999933 1.5 3.1054219107e-07 -9.5999999925 1.4499999993 -7.7907536422e-08 -9.5999999925 1.5 2.9739271667e-07 
-9.5499999918 1.4499999993 -7.4979872977e-08 -9.5499999918 1.5 2.8623685466e-07 -9.4999999911 1.4499999993 -7.2482400526e-08 
-9.4999999911 1.5 2.7661985769e-07 -9.4499999903 1.4499999993 -7.0181378931e-08 -9.4499999903 1.5 2.6828888622e-07 
-9.3999999896 1.4499999993 -6.8335104686e-08 -9.3999999896 1.5 2.6095381145e-07 -9.3499999888 1.4499999993 -6.6678914834e-08 
-9.3499999888 1.5 2.5453550734e-07 -9.2999999881 1.4499999993 -6.5124588389e-08 -9.2999999881 1.5 2.4889845918e-07 
-9.2499999873 1.4499999993 -6.382310147e-08 -9.2499999873 1.5 2.438471256e-07 -9.1999999866 1.4499999993 -6.2686233093e-08 
-9.1999999866 1.5 2.3935422178e-07 -9.1499999858 1.4499999993 -6.1623033787e-08 -9.1499999858 1.5 2.3532426496e-07 
-9.0999999851 1.4499999993 -6.0682616265e-08 -9.0999999851 1.5 2.3169720009e-07 -9.0499999844 1.4499999993 -5.9821324783e-08 
-9.0499999844 1.5 2.2849850723e-07 -8.9999999836 1.4499999993 -5.9046431744e-08 -8.9999999836 1.5 2.2559267165e-07 
-8.9499999829 1.4499999993 -5.8390686064e-08 -8.9499999829 1.5 2.2301243519e-07 -8.8999999821 1.4499999993 -5.7783143603e-08 
-8.8999999821 1.5 2.2062501159e-07 -8.8499999814 1.4499999993 -5.7207433457e-08 -8.8499999814 1.5 2.1856682508e-07 
-8.7999999806 1.4499999993 -5.669538794e-08 -8.7999999806 1.5 2.1664597227e-07 -8.7499999799 1.4499999993 -5.6272472904e-08 
-8.7499999799 1.5 2.1495795011e-07 -8.6999999791 1.4499999993 -5.6091483458e-08 -8.6999999791 1.5 2.1418124163e-07 
-8.6499999784 1.4499999993 -5.5700400736e-08 -8.6499999784 1.5 2.1276788686e-07 -8.5999999776 1.4499999993 -5.5344788308e-08 
-8.5999999776 1.5 2.1145275753e-07 -8.5499999769 1.4499999993 -5.5098315244e-08 -8.5499999769 1.5 2.1039137721e-07 
-8.4999999762 1.4499999993 -5.478817755e-08 -8.4999999762 1.5 2.0936001022e-07 -8.4499999754 1.4499999993 -5.4539885497e-08 
-8.4499999754 1.5 2.0849871873e-07 -8.3999999747 1.4499999993 -5.4419832196e-08 -8.3999999747 1.5 2.0779840781e-07 
-8.3499999739 1.4499999993 -5.4278860517e-08 -8.3499999739 1.5 2.0714448112e-07 -8.2999999732 1.4499999993 -5.4146983786e-08 
-8.2999999732 1.5 2.0662061218e-07 -8.2499999724 1.4499999993 -5.4013288064e-08 -8.2499999724 1.5 2.0620952057e-07 
-8.1999999717 1.4499999993 -5.3902329711e-08 -8.1999999717 1.5 2.0585117966e-07 -8.1499999709 1.4499999993 -5.3865949923e-08 
-8.1499999709 1.5 2.0560925407e-07 -8.0999999702 1.4499999993 -5.3767724495e-08 -8.0999999702 1.5 2.053800614e-07 
-8.0499999695 1.4499999993 -5.379955681e-08 -8.0499999695 1.5 2.0530048062e-07 -7.9999999687 1.4499999993 -5.375317258e-08 
-7.9999999687 1.5 2.0536050727e-07 -7.949999968 1.4499999993 -5.3701331382e-08 -7.949999968 1.5 2.0542826462e-07 
-7.8999999672 1.4499999993 -5.3792735599e-08 -7.8999999672 1.5 2.0551102864e-07 -7.8499999665 1.4499999993 -5.3890051532e-08 
-7.8499999665 1.5 2.0567337344e-07 -7.7999999657 1.4499999993 -5.3901420216e-08 -7.7999999657 1.5 2.0588119298e-07 
-7.749999965 1.4499999993 -5.4016016549e-08 -7.749999965 1.5 2.0627273045e-07 -7.6999999642 1.4499999993 -5.4142436312e-08 
-7.6999999642 1.5 2.065564928e-07 -7.6499999635 1.4499999993 -5.4219743362e-08 -7.6499999635 1.5 2.0698304581e-07 
-7.5999999627 1.4499999993 -5.4352984336e-08 -7.5999999627 1.5 2.0745552831e-07 -7.549999962 1.4499999993 -5.447758511e-08 
-7.549999962 1.5 2.0795711464e-07 -7.4999999613 1.4499999993 -5.4610826083e-08 -7.4999999613 1.5 2.0850553994e-07 
-7.4499999605 1.4499999993 -5.4761802204e-08 -7.4499999605 1.5 2.0908261433e-07 -7.3999999598 1.4499999993 -5.4951886597e-08 
-7.3999999598 1.5 2.0973017456e-07 -7.349999959 1.4499999993 -5.5111502917e-08 -7.349999959 1.5 2.104354877e-07 
-7.2999999583 1.4499999993 -5.5289309131e-08 -7.2999999583 1.5 2.1109669035e-07 -7.2499999575 1.4499999993 -5.5464386861e-08 
-7.2499999575 1.5 2.1185248045e-07 -7.1999999568 1.4499999993 -5.5655835496e-08 -7.1999999568 1.5 2.1260872529e-07 
-7.149999956 1.4499999993 -5.5876970606e-08 -7.149999956 1.5 2.133972572e-07 -7.0999999553 1.4499999993 -5.598643682e-08 
-7.0999999553 1.5 2.137919779e-07 -7.0499999546 1.4499999993 -5.6191982623e-08 -7.0499999546 1.5 2.1461279687e-07 
-6.9999999538 1.4499999993 -5.6443457908e-08 -6.9999999538 1.5 2.1545089623e-07 -6.9499999531 1.4499999993 -5.6645820479e-08 
-6.9499999531 1.5 2.1627444369e-07 -6.8999999523 1.4499999993 -5.6870010923e-08 -6.8999999523 1.5 2.1715347032e-07 
-6.8499999516 1.4499999993 -5.7088744398e-08 -6.8499999516 1.5 2.1806296502e-07 -6.7999999508 1.4499999993 -5.7300656664e-08 
-6.7999999508 1.5 2.1894653912e-07 -6.7499999501 1.4499999993 -5.7545765486e-08 -6.7499999501 1.5 2.1977145082e-07 
-6.6999999493 1.4499999993 -5.7787691077e-08 -6.6999999493 1.5 2.2065638916e-07 -6.6499999486 1.4499999993 -5.8009153037e-08 
-6.6499999486 1.5 2.2149630752e-07 -6.5999999478 1.4499999993 -5.8213334597e-08 -6.5999999478 1.5 2.2233440689e-07 
-6.5499999471 1.4499999993 -5.8471176345e-08 -6.5499999471 1.5 2.2313339798e-07 -6.4999999464 1.4499999993 -5.8634430644e-08 
-6.4999999464 1.5 2.2392283938e-07 -6.4499999456 1.4499999993 -5.8810872616e-08 -6.4499999456 1.5 2.2462951677e-07 
-6.3999999449 1.4499999993 -5.8991862062e-08 -6.3999999449 1.5 2.2531800425e-07 -6.3499999441 1.4499999993 -5.9174670497e-08 
-6.3499999441 1.5 2.2591008531e-07 -6.2999999434 1.4499999993 -5.9264710472e-08 -6.2999999434 1.5 2.2647488152e-07 
-6.2499999426 1.4499999993 -5.9394540841e-08 -6.2499999426 1.5 2.2691575907e-07 -6.1999999419 1.4499999993 -5.951755e-08 
-6.1999999419 1.5 2.2725477322e-07 -6.1499999411 1.4499999993 -5.9548018072e-08 -6.1499999411 1.5 2.2748805861e-07 
-6.0999999404 1.4499999993 -5.9600768765e-08 -6.0999999404 1.5 2.2757355111e-07 -6.0499999397 1.4499999993 -5.9579850387e-08 
-6.0499999397 1.5 2.2749624407e-07 -5.9999999389 1.4499999993 -5.9507545558e-08 -5.9999999389 1.5 2.2728819715e-07 
-5.9499999382 1.4499999993 -5.9404317909e-08 -5.9499999382 1.5 2.2683117606e-07 -5.8999999374 1.4499999993 -5.9202410085e-08 
-5.8999999374 1.5 2.2615746786e-07 -5.8499999367 1.4499999993 -5.8971853178e-08 -5.8499999367 1.5 2.2521818721e-07 
-5.7999999359 1.4499999993 -5.863420327e-08 -5.7999999359 1.5 2.2395421695e-07 -5.7499999352 1.4499999993 -5.8250851254e-08 
-5.7499999352 1.5 2.2237351516e-07 -5.6999999344 1.4499999993 -5.7720843216e-08 -5.6999999344 1.5 2.2039036196e-07 
-5.6499999337 1.4499999993 -5.7060095315e-08 -5.6499999337 1.5 2.1796110161e-07 -5.5999999329 1.4499999993 -5.631684985e-08 
-5.5999999329 1.5 2.1499410252e-07 -5.5499999322 1.4499999993 -5.5848875746e-08 -5.5499999322 1.5 2.1331790379e-07 
-5.4999999315 1.4499999993 -5.4846157838e-08 -5.4999999315 1.5 2.0950302826e-07 -5.4499999307 1.4499999993 -5.365608402e-08 
-5.4499999307 1.5 2.0495419051e-07 -5.39999993 1.4499999993 -5.2272287832e-08 -5.39999993 1.5 1.9960522479e-07 
-5.3499999292 1.4499999993 -5.0623146564e-08 -5.3499999292 1.5 1.9334108003e-07 -5.2999999285 1.4499999993 -4.8693880927e-08 
-5.2999999285 1.5 1.8603283536e-07 -5.2499999277 1.4499999993 -4.6474259108e-08 -5.2499999277 1.5 1.7752451242e-07 
-5.199999927 1.4499999993 -4.3893795265e-08 -5.199999927 1.5 1.6761897825e-07 -5.1499999262 1.4499999993 -4.0875864471e-08 
-5.1499999262 1.5 1.5610704907e-07 -5.0999999255 1.4499999993 -3.7371581385e-08 -5.0999999255 1.5 1.4279341087e-07 
-5.0499999247 1.4499999993 -3.3339336625e-08 -5.0499999247 1.5 1.2732267862e-07 -4.999999924 1.4499999993 -2.8622812565e-08 
-4.999999924 1.5 1.093977815e-07 -4.9499999233 1.4499999993 -2.3178804653e-08 -4.9499999233 1.5 8.8586951108e-08 
-4.8999999225 1.4499999993 -1.6839171835e-08 -4.8999999225 1.5 6.4427361224e-08 -4.8499999218 1.4499999993 -9.4748795476e-09 
-4.8499999218 1.5 3.6297830519e-08 -4.799999921 1.4499999993 -8.7617535449e-10 -4.799999921 1.5 3.5158882472e-09 
-4.7499999203 1.4499999993 9.1651006784e-09 -4.7499999203 1.5 -3.4752350331e-08 -4.6999999195 1.4499999993 2.0937600098e-08 
-4.6999999195 1.5 -7.9583962531e-08 -4.6499999188 1.4499999993 3.4738274479e-08 -4.6499999188 1.5 -1.322865586e-07 
-4.599999918 1.4499999993 5.1064613871e-08 -4.599999918 1.5 -1.9442892096e-07 -4.5499999173 1.4499999993 7.0382277784e-08 
-4.5499999173 1.5 -2.6804138997e-07 -4.4999999166 1.4499999993 9.3374531218e-08 -4.4999999166 1.5 -3.5567643408e-07 
-4.4499999158 1.4499999993 1.2095064506e-07 -4.4499999158 1.5 -4.6057698455e-07 -4.3999999151 1.4499999993 1.5413469612e-07 
-4.3999999151 1.5 -5.8698969951e-07 -4.3499999143 1.4499999993 1.9446373756e-07 -4.3499999143 1.5 -7.4036597653e-07 
-4.2999999136 1.4499999993 2.4384985409e-07 -4.2999999136 1.5 -9.2811546892e-07 -4.2499999128 1.4499999993 3.0493526992e-07 
-4.2499999128 1.5 -1.1601647429e-06 -4.1999999121 1.4499999993 3.8131861402e-07 -4.1999999121 1.5 -1.4501356418e-06 
-4.1499999113 1.4499999993 4.7813898618e-07 -4.1499999113 1.5 -1.8172748923e-06 -4.0999999106 1.4499999993 6.027589734e-07 
-4.0999999106 1.5 -2.2892406832e-06 -4.0499999098 1.4499999993 7.6620642631e-07 -4.0499999098 1.5 -2.9071277368e-06 
-3.9999999091 1.4499999993 9.8542636806e-07 -3.9999999091 1.5 -3.7340157633e-06 -3.9499999084 1.4499999993 1.1239126252e-06 
[...]
CELL_DATA 9510
FIELD FieldData 4
Water_Depth_m 1 9510 float
0.75 0.750001 0.750001 0.750001 0.750001 0.750002 0.750002 0.750002 0.750003 
0.750003 0.750003 0.750004 0.750004 0.750004 0.750005 0.750005 0.750005 0.750005 
0.750006 0.750006 0.750006 0.750007 0.750007 0.750007 0.750008 0.750008 0.750008 
0.750009 0.750009 0.750009 0.75001 0.75001 0.75001 0.75001 0.750011 0.750011 
0.750011 0.750012 0.750012 0.750012 0.750013 0.750013 0.750013 0.750014 0.750014 
0.750014 0.750014 0.750015 0.750015 0.750015 0.750016 0.750016 0.750016 0.750017 
0.750017 0.750017 0.750018 0.750018 0.750018 0.750018 0.750019 0.750019 0.750019 
0.75002 0.75002 0.75002 0.750021 0.750021 0.750021 0.750022 0.750022 0.750022 
0.750022 0.750023 0.750023 0.750023 0.750024 0.750024 0.750024 0.750025 0.750025 
0.750025 0.750026 0.750026 0.750026 0.750027 0.750027 0.750027 0.750027 0.750028 
0.750028 0.750028 0.750029 0.750029 0.75003 0.75003 0.75003 0.750031 0.750031 
0.750031 0.750032 0.750032 0.750032 0.750033 0.750033 0.750034 0.750034 0.750035 
0.750035 0.750036 0.750036 0.750037 0.750038 0.750039 0.750039 0.75004 0.750041 
0.750042 0.750044 0.750045 0.750047 0.750048 0.750051 0.750053 0.750057 0.750061 
0.750068 0.750079 0.750099 0.750165 0.75037 0.750262 0.744818 0.731503 0.712079 
0.688219 0.66122 0.632208 0.60223 0.57228 0.543864 0.517811 0.495103 0.477184 
0.466062 0.464177 0.464176 0.464177 0.464181 0.464185 0.464189 0.464193 0.464198 
0.464202 0.464206 0.46421 0.464214 0.464219 0.464223 0.464228 0.464233 0.464238 
0.464243 0.464249 0.464255 0.464261 0.464268 0.464276 0.464284 0.464292 0.4643 
0.464311 0.467817 0.48291 0.483666 0.482449 0.482165 0.480748 0.480423 0.480852 
0.481954 0.476322 0.447226 0.415887 0.382991 0.355467 0.325378 0.303641 0.31486 
0.328357 0.34455 0.360514 0.384014 0.410955 0.443063 0.476371 0.513519 0.552646 
0.630837 0.600634 0.57504 0.546692 0.51825 0.501296 0.50097 0.503787 0.503492 
0.492925 0.49266 0.492508 0.49246 0.492439 0.492428 0.492422 0.492418 0.492416 
0.492415 0.492415 0.492415 0.492416 0.492416 0.492417 0.492418 0.492419 0.49242 
0.492421 0.492422 0.492424 0.492425 0.492426 0.492427 0.492429 0.49243 0.492431 
0.492433 0.492434 0.492435 0.492437 0.492438 0.492439 0.492441 0.492442 0.492443 
0.492445 0.492446 0.492447 0.492448 0.49245 0.492451 0.492452 0.492454 0.492455 
0.492456 0.492458 0.492459 0.49246 0.492462 0.492463 0.492464 0.492465 0.492467 
0.492468 0.492469 0.492471 0.492472 0.492473 0.492474 0.492476 0.492477 0.492478 
0.49248 0.492481 0.492482 0.492484 0.492485 0.492486 0.492487 0.492489 0.49249 
0.492491 0.492493 0.492494 0.492495 0.492497 0.492498 0.492499 0.4925 0.492502 
0.492503 0.492504 0.492506 0.492507 0.492465 0.492441 0.488295 0.75 0.750001 
0.750001 0.750001 0.750002 0.750002 0.750002 0.750002 0.750003 0.750003 0.750003 
0.750004 0.750004 0.750004 0.750005 0.750005 0.750005 0.750006 0.750006 0.750006 
0.750006 0.750007 0.750007 0.750007 0.750008 0.750008 0.750008 0.750009 0.750009 
0.750009 0.75001 0.75001 0.75001 0.75001 0.750011 0.750011 0.750011 0.750012 
0.750012 0.750012 0.750013 0.750013 0.750013 0.750014 0.750014 0.750014 0.750014 
0.750015 0.750015 0.750015 0.750016 0.750016 0.750016 0.750017 0.750017 0.750017 
0.750018 0.750018 0.750018 0.750018 0.750019 0.750019 0.750019 0.75002 0.75002 
0.75002 0.750021 0.750021 0.750021 0.750022 0.750022 0.750022 0.750022 0.750023 
0.750023 0.750023 0.750024 0.750024 0.750024 0.750025 0.750025 0.750025 0.750026 
0.750026 0.750026 0.750027 0.750027 0.750027 0.750028 0.750028 0.750028 0.750028 
0.750029 0.750029 0.75003 0.75003 0.75003 0.750031 0.750031 0.750031 0.750032 
0.750032 0.750032 0.750033 0.750033 0.750034 0.750034 0.750035 0.750035 0.750036 
0.750036 0.750037 0.750037 0.750038 0.750039 0.750039 0.75004 0.750041 0.750042 
0.750043 0.750044 0.750045 0.750046 0.750048 0.750049 0.750051 0.750053 0.750056 
0.750059 0.750063 0.750099 0.750059 0.745178 0.732553 0.713584 0.689833 0.662672 
0.633322 0.6029 0.572423 0.543191 0.516323 0.493233 0.475629 0.465723 0.464194 
0.464186 0.464182 0.464183 0.464187 0.46419 0.464194 0.464198 0.464202 0.464207 
0.464211 0.464215 0.464219 0.464224 0.464228 0.464233 0.464238 0.464244 0.464249 
0.464255 0.464262 0.464269 0.464276 0.464284 0.464292 0.464299 0.464311 0.467753 
0.482633 0.483606 0.482003 0.481882 0.481332 0.48059 0.481064 0.480719 0.471702 
0.433422 0.401625 0.367522 0.331928 0.307133 0.297458 0.304523 0.316616 0.334121 
0.355358 0.382488 0.417497 0.453512 0.482356 0.523014 0.545198 0.620681 0.590714 
0.559294 0.53581 0.519384 0.504564 0.508587 0.509832 0.507461 0.493547 0.492415 
0.492412 0.492409 0.492408 0.492408 0.492408 0.492408 0.492409 0.49241 0.492411 
0.492412 0.492413 0.492414 0.492416 0.492417 0.492418 0.49242 0.492421 0.492422 
0.492423 0.492425 0.492426 0.492427 0.492429 0.49243 0.492431 0.492433 0.492434 
0.492435 0.492437 0.492438 0.492439 0.492441 0.492442 0.492443 0.492445 0.492446 
0.492447 0.492449 0.49245 0.492451 0.492452 0.492454 0.492455 0.492456 0.492458 
0.492459 0.49246 0.492462 0.492463 0.492464 0.492465 0.492467 0.492468 0.492469 
0.492471 0.492472 0.492473 0.492475 0.492476 0.492477 0.492478 0.49248 0.492481 
0.492482 0.492484 0.492485 0.492486 0.492488 0.492489 0.49249 0.492491 0.492493 
0.492494 0.492495 0.492497 0.492498 0.492499 0.4925 0.492502 0.492503 0.492504 
0.492506 0.492507 0.492465 0.492441 0.488295 0.75 0.75 0.750001 0.750001 
0.750001 0.750002 0.750002 0.750002 0.750003 0.750003 0.750003 0.750004 0.750004 
0.750004 0.750005 0.750005 0.750005 0.750005 0.750006 0.750006 0.750006 0.750007 
0.750007 0.750007 0.750008 0.750008 0.750008 0.750009 0.750009 0.750009 0.750009 
0.75001 0.75001 0.75001 0.750011 0.750011 0.750011 0.750012 0.750012 0.750012 
0.750013 0.750013 0.750013 0.750013 0.750014 0.750014 0.750014 0.750015 0.750015 
0.750015 0.750016 0.750016 0.750016 0.750017 0.750017 0.750017 0.750018 0.750018 
0.750018 0.750018 0.750019 0.750019 0.750019 0.75002 0.75002 0.75002 0.750021 
0.750021 0.750021 0.750022 0.750022 0.750022 0.750022 0.750023 0.750023 0.750023 
0.750024 0.750024 0.750024 0.750025 0.750025 0.750025 0.750026 0.750026 0.750026 
0.750027 0.750027 0.750027 0.750027 0.750028 0.750028 0.750028 0.750029 0.750029 
0.75003 0.75003 0.75003 0.750031 0.750031 0.750031 0.750032 0.750032 0.750032 
0.750033 0.750033 0.750034 0.750034 0.750035 0.750035 0.750036 0.750036 0.750037 
0.750037 0.750038 0.750039 0.750039 0.75004 0.750041 0.750042 0.750043 0.750044 
0.750045 0.750046 0.750048 0.750049 0.750051 0.750053 0.750056 0.75006 0.750068 
0.750152 0.750058 0.745325 0.733044 0.714403 0.690811 0.663616 0.634071 0.60334 
0.57251 0.542854 0.515627 0.492464 0.475169 0.465651 0.464165 0.46417 0.464175 
0.464179 0.464184 0.464188 0.464193 0.464197 0.464201 0.464205 0.464209 0.464213 
0.464218 0.464222 0.464226 0.464231 0.464236 0.464241 0.464247 0.464252 0.464259 
0.464265 0.464272 0.46428 0.464289 0.464298 0.46431 0.467494 0.481805 0.483099 
0.481244 0.481062 0.480991 0.480406 0.481119 0.479099 0.462267 0.43067 0.400722 
0.363739 0.328912 0.29684 0.271306 0.280124 0.304689 0.329388 0.357543 0.389054 
0.42349 0.457609 0.494347 0.53186 0.556275 0.628134 0.59386 0.570554 0.546854 
0.520719 0.508094 0.513422 0.514205 0.5108 0.493205 0.492418 0.492416 0.49241 
0.492408 0.492408 0.492408 0.492408 0.492409 0.49241 0.492411 0.492412 0.492413 
0.492414 0.492416 0.492417 0.492418 0.49242 0.492421 0.492422 0.492423 0.492425 
0.492426 0.492427 0.492429 0.49243 0.492431 0.492433 0.492434 0.492435 0.492437 
0.492438 0.492439 0.492441 0.492442 0.492443 0.492445 0.492446 0.492447 0.492448 
0.49245 0.492451 0.492452 0.492454 0.492455 0.492456 0.492458 0.492459 0.49246 
0.492461 0.492463 0.492464 0.492465 0.492467 0.492468 0.492469 0.492471 0.492472 
0.492473 0.492474 0.492476 0.492477 0.492478 0.49248 0.492481 0.492482 0.492484 
0.492485 0.492486 0.492487 0.492489 0.49249 0.492491 0.492493 0.492494 0.492495 
0.492497 0.492498 0.492499 0.4925 0.492502 0.492503 0.492504 0.492506 0.492507 
0.492465 0.492441 0.488295 0.75 0.75 0.750001 0.750001 0.750001 0.750002 
0.750002 0.750002 0.750003 0.750003 0.750003 0.750004 0.750004 0.750004 0.750005 
0.750005 0.750005 0.750005 0.750006 0.750006 0.750006 0.750007 0.750007 0.750007 
0.750008 0.750008 0.750008 0.750009 0.750009 0.750009 0.750009 0.75001 0.75001 
0.75001 0.750011 0.750011 0.750011 0.750012 0.750012 0.750012 0.750013 0.750013 
0.750013 0.750014 0.750014 0.750014 0.750014 0.750015 0.750015 0.750015 0.750016 
0.750016 0.750016 0.750017 0.750017 0.750017 0.750018 0.750018 0.750018 0.750018 
0.750019 0.750019 0.750019 0.75002 0.75002 0.75002 0.750021 0.750021 0.750021 
0.750022 0.750022 0.750022 0.750022 0.750023 0.750023 0.750023 0.750024 0.750024 
0.750024 0.750025 0.750025 0.750025 0.750026 0.750026 0.750026 0.750027 0.750027 
0.750027 0.750027 0.750028 0.750028 0.750028 0.750029 0.750029 0.75003 0.75003 
0.75003 0.750031 0.750031 0.750031 0.750032 0.750032 0.750032 0.750033 0.750033 
0.750034 0.750034 0.750035 0.750035 0.750036 0.750036 0.750037 0.750037 0.750038 
0.750038 0.750039 0.75004 0.750041 0.750042 0.750042 0.750043 0.750045 0.750046 
0.750047 0.750048 0.75005 0.750052 0.750054 0.750056 0.750059 0.750136 0.750055 
0.745387 0.733276 0.714831 0.691363 0.664176 0.634523 0.6036 0.57256 0.542679 
0.515326 0.492185 0.475036 0.465652 0.464167 0.464172 0.464176 0.46418 0.464185 
0.464189 0.464193 0.464197 0.464201 0.464205 0.464209 0.464213 0.464217 0.464222 
0.464226 0.464231 0.464235 0.46424 0.464246 0.464251 0.464257 0.464264 0.464271 
0.464278 0.464287 0.464296 0.464308 0.467598 0.481903 0.482688 0.481083 0.480426 
0.479639 0.478951 0.480799 0.476105 0.445688 0.416343 0.390617 0.354873 0.320031 
0.290815 0.27899 0.294688 0.313347 0.338585 0.362956 0.391544 0.424359 0.45625 
0.494145 0.529428 0.55406 0.632297 0.594237 0.570242 0.546622 0.520635 0.511955 
0.516773 0.516874 0.512062 0.49349 0.492404 0.492404 0.492404 0.492405 0.492405 
0.492406 0.492407 0.492408 0.492409 0.492411 0.492412 0.492413 0.492414 0.492416 
0.492417 0.492418 0.492419 0.492421 0.492422 0.492423 0.492425 0.492426 0.492427 
0.492429 0.49243 0.492431 0.492433 0.492434 0.492435 0.492437 0.492438 0.492439 
0.492441 0.492442 0.492443 0.492445 0.492446 0.492447 0.492448 0.49245 0.492451 
0.492452 0.492454 0.492455 0.492456 0.492458 0.492459 0.49246 0.492461 0.492463 
0.492464 0.492465 0.492467 0.492468 0.492469 0.492471 0.492472 0.492473 0.492474 
0.492476 0.492477 0.492478 0.49248 0.492481 0.492482 0.492484 0.492485 0.492486 
0.492487 0.492489 0.49249 0.492491 0.492493 0.492494 0.492495 0.492497 0.492498 
0.492499 0.4925 0.492502 0.492503 0.492504 0.492506 0.492507 0.492465 0.492441 
0.488295 0.75 0.75 0.750001 0.750001 0.750001 0.750002 0.750002 0.750002 
0.750003 0.750003 0.750003 0.750004 0.750004 0.750004 0.750005 0.750005 0.750005 
0.750005 0.750006 0.750006 0.750006 0.750007 0.750007 0.750007 0.750008 0.750008 
0.750008 0.750009 0.750009 0.750009 0.750009 0.75001 0.75001 0.75001 0.750011 
0.750011 0.750011 0.750012 0.750012 0.750012 0.750013 0.750013 0.750013 0.750014 
0.750014 0.750014 0.750014 0.750015 0.750015 0.750015 0.750016 0.750016 0.750016 
0.750017 0.750017 0.750017 0.750018 0.750018 0.750018 0.750018 0.750019 0.750019 
0.750019 0.75002 0.75002 0.75002 0.750021 0.750021 0.750021 0.750022 0.750022 
0.750022 0.750022 0.750023 0.750023 0.750023 0.750024 0.750024 0.750024 0.750025 
0.750025 0.750025 0.750026 0.750026 0.750026 0.750027 0.750027 0.750027 0.750027 
0.750028 0.750028 0.750028 0.750029 0.750029 0.75003 0.75003 0.75003 0.750031 
0.750031 0.750031 0.750032 0.750032 0.750032 0.750033 0.750033 0.750034 0.750034 
0.750035 0.750035 0.750035 0.750036 0.750037 0.750037 0.750038 0.750038 0.750039 
0.75004 0.75004 0.750041 0.750042 0.750043 0.750044 0.750045 0.750047 0.750048 
0.750049 0.750051 0.750053 0.750055 0.750059 0.750137 0.750054 0.745412 0.733382 
0.715042 0.691652 0.664479 0.634771 0.603741 0.572586 0.542593 0.5152 0.492092 
0.475003 0.465652 0.464166 0.464172 0.464176 0.464181 0.464185 0.464189 0.464193 
0.464197 0.464201 0.464205 0.464209 0.464213 0.464217 0.464221 0.464225 0.46423 
0.464234 0.464239 0.464244 0.464249 0.464255 0.464261 0.464268 0.464276 0.464284 
0.464293 0.464304 0.467637 0.482085 0.483044 0.480798 0.481471 0.481159 0.480831 
0.478172 0.468903 0.430962 0.401127 0.372247 0.341102 0.306556 0.295472 0.309864 
0.323645 0.342147 0.360302 0.377182 0.397963 0.424926 0.445946 0.484213 0.511268 
0.539913 0.627056 0.588177 0.562318 0.539789 0.519845 0.51563 0.519762 0.519683 
0.513719 0.49339 0.492402 0.492403 0.492403 0.492403 0.492404 0.492405 0.492407 
0.492408 0.492409 0.49241 0.492412 0.492413 0.492414 0.492415 0.492417 0.492418 
0.492419 0.492421 0.492422 0.492423 0.492425 0.492426 0.492427 0.492429 0.49243 
0.492431 0.492433 0.492434 0.492435 0.492437 0.492438 0.492439 0.492441 0.492442 
0.492443 0.492445 0.492446 0.492447 0.492448 0.49245 0.492451 0.492452 0.492454 
0.492455 0.492456 0.492458 0.492459 0.49246 0.492461 0.492463 0.492464 0.492465 
0.492467 0.492468 0.492469 0.492471 0.492472 0.492473 0.492474 0.492476 0.492477 
0.492478 0.49248 0.492481 0.492482 0.492484 0.492485 0.492486 0.492487 0.492489 
0.49249 0.492491 0.492493 0.492494 0.492495 0.492497 0.492498 0.492499 0.4925 
0.492502 0.492503 0.492504 0.492506 0.492507 0.492465 0.492441 0.488295 0.75 
0.75 0.750001 0.750001 0.750001 0.750002 0.750002 0.750002 0.750003 0.750003 
0.750003 0.750004 0.750004 0.750004 0.750005 0.750005 0.750005 0.750005 0.750006 
0.750006 0.750006 0.750007 0.750007 0.750007 0.750008 0.750008 0.750008 0.750009 
0.750009 0.750009 0.750009 0.75001 0.75001 0.75001 0.750011 0.750011 0.750011 
0.750012 0.750012 0.750012 0.750013 0.750013 0.750013 0.750013 0.750014 0.750014 
0.750014 0.750015 0.750015 0.750015 0.750016 0.750016 0.750016 0.750017 0.750017 
0.750017 0.750018 0.750018 0.750018 0.750018 0.750019 0.750019 0.750019 0.75002 
0.75002 0.75002 0.750021 0.750021 0.750021 0.750022 0.750022 0.750022 0.750022 
0.750023 0.750023 0.750023 0.750024 0.750024 0.750024 0.750025 0.750025 0.750025 
0.750026 0.750026 0.750026 0.750027 0.750027 0.750027 0.750027 0.750028 0.750028 
0.750028 0.750029 0.750029 0.750029 0.75003 0.75003 0.750031 0.750031 0.750031 
0.750032 0.750032 0.750032 0.750033 0.750033 0.750034 0.750034 0.750034 0.750035 
0.750035 0.750036 0.750036 0.750037 0.750037 0.750038 0.750039 0.750039 0.75004 
0.750041 0.750042 0.750043 0.750044 0.750045 0.750046 0.750047 0.750049 0.75005 
0.750052 0.750054 0.750057 0.750135 0.750052 0.745421 0.733424 0.715135 0.691787 
0.664627 0.634892 0.603809 0.572599 0.542551 0.515147 0.492061 0.474998 0.465655 
0.464168 0.464173 0.464178 0.464182 0.464186 0.46419 0.464194 0.464198 0.464201 
0.464205 0.464209 0.464213 0.464216 0.46422 0.464224 0.464228 0.464233 0.464237 
0.464242 0.464247 0.464253 0.464259 0.464265 0.464272 0.46428 0.464289 0.4643 
0.467762 0.483135 0.484277 0.482107 0.481359 0.481751 0.482499 0.477548 0.454222 
0.41759 0.386302 0.354061 0.322841 0.302997 0.311256 0.325117 0.33725 0.354274 
0.368577 0.385785 0.40413 0.428924 0.453826 0.482807 0.520438 0.539128 0.612746 
0.589419 0.5695 0.545809 0.524974 0.518582 0.522517 0.522385 0.515442 0.493525 
0.492398 0.4924 0.4924 0.492402 0.492403 0.492405 0.492406 0.492407 0.492409 
0.49241 0.492411 0.492413 0.492414 0.492415 0.492417 0.492418 0.492419 0.492421 
0.492422 0.492423 0.492425 0.492426 0.492427 0.492429 0.49243 0.492431 0.492433 
0.492434 0.492435 0.492437 0.492438 0.492439 0.492441 0.492442 0.492443 0.492445 
0.492446 0.492447 0.492448 0.49245 0.492451 0.492452 0.492454 0.492455 0.492456 
0.492458 0.492459 0.49246 0.492461 0.492463 0.492464 0.492465 0.492467 0.492468 
0.492469 0.492471 0.492472 0.492473 0.492474 0.492476 0.492477 0.492478 0.49248 
0.492481 0.492482 0.492484 0.492485 0.492486 0.492487 0.492489 0.49249 0.492491 
0.492493 0.492494 0.492495 0.492497 0.492498 0.492499 0.4925 0.492502 0.492503 
0.492504 0.492506 0.492507 0.492465 0.492441 0.488295 0.75 0.75 0.750001 
0.750001 0.750001 0.750002 0.750002 0.750002 0.750003 0.750003 0.750003 0.750004 
0.750004 0.750004 0.750005 0.750005 0.750005 0.750005 0.750006 0.750006 0.750006 
0.750007 0.750007 0.750007 0.750008 0.750008 0.750008 0.750009 0.750009 0.750009 
0.750009 0.75001 0.75001 0.75001 0.750011 0.750011 0.750011 0.750012 0.750012 
0.750012 0.750013 0.750013 0.750013 0.750013 0.750014 0.750014 0.750014 0.750015 
0.750015 0.750015 0.750016 0.750016 0.750016 0.750017 0.750017 0.750017 0.750018 
0.750018 0.750018 0.750018 0.750019 0.750019 0.750019 0.75002 0.75002 0.75002 
0.750021 0.750021 0.750021 0.750022 0.750022 0.750022 0.750022 0.750023 0.750023 
0.750023 0.750024 0.750024 0.750024 0.750025 0.750025 0.750025 0.750026 0.750026 
0.750026 0.750026 0.750027 0.750027 0.750027 0.750028 0.750028 0.750028 0.750029 
0.750029 0.750029 0.75003 0.75003 0.75003 0.750031 0.750031 0.750032 0.750032 
0.750032 0.750033 0.750033 0.750033 0.750034 0.750034 0.750035 0.750035 0.750036 
0.750036 0.750037 0.750037 0.750038 0.750039 0.750039 0.75004 0.750041 0.750041 
0.750042 0.750043 0.750044 0.750045 0.750046 0.750048 0.750049 0.750051 0.750052 
0.750055 0.750133 0.75005 0.745421 0.733435 0.715167 0.691839 0.664687 0.634942 
0.603837 0.572605 0.542533 0.515126 0.492051 0.475 0.465657 0.46417 0.464175 
0.464179 0.464183 0.464187 0.464191 0.464194 0.464198 0.464202 0.464205 0.464209 
0.464212 0.464216 0.464219 0.464223 0.464227 0.464231 0.464236 0.46424 0.464245 
0.46425 0.464256 0.464262 0.464268 0.464275 0.464283 0.464294 0.467722 0.482953 
0.484173 0.482044 0.481231 0.481638 0.482474 0.476509 0.446338 0.409664 0.378997 
0.347236 0.314927 0.3153 0.324919 0.333965 0.346492 0.360736 0.375465 0.390329 
0.405722 0.4285 0.453603 0.483766 0.521975 0.551149 0.626815 0.598349 0.576942 
0.553163 0.527669 0.521084 0.525383 0.525199 0.517184 0.4936 0.492395 0.492398 
0.492399 0.4924 0.492402 0.492404 0.492405 0.492407 0.492408 0.49241 0.492411 
0.492413 0.492414 0.492415 0.492417 0.492418 0.492419 0.492421 0.492422 0.492423 
0.492425 0.492426 0.492427 0.492429 0.49243 0.492431 0.492433 0.492434 0.492435 
0.492437 0.492438 0.492439 0.492441 0.492442 0.492443 0.492445 0.492446 0.492447 
0.492448 0.49245 0.492451 0.492452 0.492454 0.492455 0.492456 0.492458 0.492459 
0.49246 0.492461 0.492463 0.492464 0.492465 0.492467 0.492468 0.492469 0.492471 
0.492472 0.492473 0.492474 0.492476 0.492477 0.492478 0.49248 0.492481 0.492482 
0.492484 0.492485 0.492486 0.492487 0.492489 0.49249 0.492491 0.492493 0.492494 
0.492495 0.492497 0.492498 0.492499 0.4925 0.492502 0.492503 0.492504 0.492506 
0.492507 0.492465 0.492441 0.488295 0.75 0.75 0.750001 0.750001 0.750001 
0.750002 0.750002 0.750002 0.750003 0.750003 0.750003 0.750004 0.750004 0.750004 
0.750005 0.750005 0.750005 0.750005 0.750006 0.750006 0.750006 0.750007 0.750007 
0.750007 0.750008 0.750008 0.750008 0.750009 0.750009 0.750009 0.750009 0.75001 
0.75001 0.75001 0.750011 0.750011 0.750011 0.750012 0.750012 0.750012 0.750013 
0.750013 0.750013 0.750013 0.750014 0.750014 0.750014 0.750015 0.750015 0.750015 
0.750016 0.750016 0.750016 0.750017 0.750017 0.750017 0.750017 0.750018 0.750018 
0.750018 0.750019 0.750019 0.750019 0.75002 0.75002 0.75002 0.750021 0.750021 
0.750021 0.750022 0.750022 0.750022 0.750022 0.750023 0.750023 0.750023 0.750024 
0.750024 0.750024 0.750025 0.750025 0.750025 0.750026 0.750026 0.750026 0.750026 
0.750027 0.750027 0.750027 0.750028 0.750028 0.750028 0.750029 0.750029 0.750029 
0.75003 0.75003 0.75003 0.750031 0.750031 0.750031 0.750032 0.750032 0.750033 
0.750033 0.750033 0.750034 0.750034 0.750035 0.750035 0.750036 0.750036 0.750036 
0.750037 0.750038 0.750038 0.750039 0.750039 0.75004 0.750041 0.750042 0.750042 
0.750043 0.750044 0.750045 0.750047 0.750048 0.750049 0.750051 0.750054 0.750131 
0.750048 0.745418 0.733433 0.715168 0.69185 0.664702 0.634956 0.603846 0.572608 
0.542526 0.515118 0.49205 0.475002 0.465661 0.464173 0.464177 0.464181 0.464184 