# vtk DataFile Version 5.1
vtk output
ASCII
DATASET UNSTRUCTURED_GRID
POINTS 10043 double
-10.1 1.4499999993 0 -10.049999999 1.4499999993 0 -10.049999999 1.5 0 
-9.9999999985 1.4499999993 0 -9.9999999985 1.5 0 -9.9499999978 1.4499999993 0 
-9.9499999978 1.5 0 -9.899999997 1.4499999993 0 -9.899999997 1.5 0 
-9.8499999963 1.4499999993 0 -9.8499999963 1.5 0 -9.7999999955 1.4499999993 0 
-9.7999999955 1.5 0 -9.7499999948 1.4499999993 0 -9.7499999948 1.5 0 
-9.699999994 1.4499999993 0 -9.699999994 1.5 0 -9.6499999933 1.4499999993 0 
-9.6499999933 1.5 0 -9.5999999925 1.4499999993 0 -9.5999999925 1.5 0 
-9.5499999918 1.4499999993 0 -9.5499999918 1.5 0 -9.4999999911 1.4499999993 0 
-9.4999999911 1.5 0 -9.4499999903 1.4499999993 0 -9.4499999903 1.5 0 
-9.3999999896 1.4499999993 0 -9.3999999896 1.5 0 -9.3499999888 1.4499999993 0 
-9.3499999888 1.5 0 -9.2999999881 1.4499999993 0 -9.2999999881 1.5 0 
-9.2499999873 1.4499999993 0 -9.2499999873 1.5 0 -9.1999999866 1.4499999993 0 
-9.1999999866 1.5 0 -9.1499999858 1.4499999993 0 -9.1499999858 1.5 0 
-9.0999999851 1.4499999993 0 -9.0999999851 1.5 0 -9.0499999844 1.4499999993 0 
-9.0499999844 1.5 0 -8.9999999836 1.4499999993 0 -8.9999999836 1.5 0 
-8.9499999829 1.4499999993 0 -8.9499999829 1.5 0 -8.8999999821 1.4499999993 0 
-8.8999999821 1.5 0 -8.8499999814 1.4499999993 0 -8.8499999814 1.5 0 
-8.7999999806 1.4499999993 0 -8.7999999806 1.5 0 -8.7499999799 1.4499999993 0 
-8.7499999799 1.5 0 -8.6999999791 1.4499999993 0 -8.6999999791 1.5 0 
-8.6499999784 1.4499999993 0 -8.6499999784 1.5 0 -8.5999999776 1.4499999993 0 
-8.5999999776 1.5 0 -8.5499999769 1.4499999993 0 -8.5499999769 1.5 0 
-8.4999999762 1.4499999993 0 -8.4999999762 1.5 0 -8.4499999754 1.4499999993 0 
-8.4499999754 1.5 0 -8.3999999747 1.4499999993 0 -8.3999999747 1.5 0 
-8.3499999739 1.4499999993 0 -8.3499999739 1.5 0 -8.2999999732 1.4499999993 0 
-8.2999999732 1.5 0 -8.2499999724 1.4499999993 0 -8.2499999724 1.5 0 
-8.1999999717 1.4499999993 0 -8.1999999717 1.5 0 -8.1499999709 1.4499999993 0 
-8.1499999709 1.5 0 -8.0999999702 1.4499999993 0 -8.0999999702 1.5 0 
-8.0499999695 1.4499999993 0 -8.0499999695 1.5 0 -7.9999999687 1.4499999993 0 
-7.9999999687 1.5 0 -7.949999968 1.4499999993 0 -7.949999968 1.5 0 
-7.8999999672 1.4499999993 0 -7.8999999672 1.5 0 -7.8499999665 1.4499999993 0 
-7.8499999665 1.5 0 -7.7999999657 1.4499999993 0 -7.7999999657 1.5 0 
-7.749999965 1.4499999993 0 -7.749999965 1.5 0 -7.6999999642 1.4499999993 0 
-7.6999999642 1.5 0 -7.6499999635 1.4499999993 0 -7.6499999635 1.5 0 
-7.5999999627 1.4499999993 0 -7.5999999627 1.5 0 -7.549999962 1.4499999993 0 
-7.549999962 1.5 0 -7.4999999613 1.4499999993 0 -7.4999999613 1.5 0 
-7.4499999605 1.4499999993 0 -7.4499999605 1.5 0 -7.3999999598 1.4499999993 0 
-7.3999999598 1.5 0 -7.349999959 1.4499999993 0 -7.349999959 1.5 0 
-7.2999999583 1.4499999993 0 -7.2999999583 1.5 0 -7.2499999575 1.4499999993 0 
-7.2499999575 1.5 0 -7.1999999568 1.4499999993 0 -7.1999999568 1.5 0 
-7.149999956 1.4499999993 0 -7.149999956 1.5 0 -7.0999999553 1.4499999993 0 
-7.0999999553 1.5 0 -7.0499999546 1.4499999993 0 -7.0499999546 1.5 0 
-6.9999999538 1.4499999993 0 -6.9999999538 1.5 0 -6.9499999531 1.4499999993 0 
-6.9499999531 1.5 0 -6.8999999523 1.4499999993 0 -6.8999999523 1.5 0 
-6.8499999516 1.4499999993 0 -6.8499999516 1.5 0 -6.7999999508 1.4499999993 0 
-6.7999999508 1.5 0 -6.7499999501 1.4499999993 0 -6.7499999501 1.5 0 
-6.6999999493 1.4499999993 0 -6.6999999493 1.5 0 -6.6499999486 1.4499999993 0 
-6.6499999486 1.5 0 -6.5999999478 1.4499999993 0 -6.5999999478 1.5 0 
-6.5499999471 1.4499999993 0 -6.5499999471 1.5 0 -6.4999999464 1.4499999993 0 
-6.4999999464 1.5 0 -6.4499999456 1.4499999993 0 -6.4499999456 1.5 0 
-6.3999999449 1.4499999993 0 -6.3999999449 1.5 0 -6.3499999441 1.4499999993 0 
-6.3499999441 1.5 0 -6.2999999434 1.4499999993 0 -6.2999999434 1.5 0 
-6.2499999426 1.4499999993 0 -6.2499999426 1.5 0 -6.1999999419 1.4499999993 0 
-6.1999999419 1.5 0 -6.1499999411 1.4499999993 0 -6.1499999411 1.5 0 
-6.0999999404 1.4499999993 0 -6.0999999404 1.5 0 -6.0499999397 1.4499999993 0 
-6.0499999397 1.5 0 -5.9999999389 1.4499999993 0 -5.9999999389 1.5 0 
-5.9499999382 1.4499999993 0 -5.9499999382 1.5 0 -5.8999999374 1.4499999993 0 
-5.8999999374 1.5 0 -5.8499999367 1.4499999993 0 -5.8499999367 1.5 0 
-5.7999999359 1.4499999993 0 -5.7999999359 1.5 0 -5.7499999352 1.4499999993 0 
-5.7499999352 1.5 0 -5.6999999344 1.4499999993 0 -5.6999999344 1.5 0 
-5.6499999337 1.4499999993 0 -5.6499999337 1.5 0 -5.5999999329 1.4499999993 0 
-5.5999999329 1.5 0 -5.5499999322 1.4499999993 0 -5.5499999322 1.5 0 
-5.4999999315 1.4499999993 0 -5.4999999315 1.5 0 -5.4499999307 1.4499999993 0 
-5.4499999307 1.5 0 -5.39999993 1.4499999993 0 -5.39999993 1.5 0 
-5.3499999292 1.4499999993 0 -5.3499999292 1.5 0 -5.2999999285 1.4499999993 0 
-5.2999999285 1.5 0 -5.2499999277 1.4499999993 0 -5.2499999277 1.5 0 
-5.199999927 1.4499999993 0 -5.199999927 1.5 0 -5.1499999262 1.4499999993 0 
-5.1499999262 1.5 0 -5.0999999255 1.4499999993 0 -5.0999999255 1.5 0 
-5.0499999247 1.4499999993 0 -5.0499999247 1.5 0 -4.999999924 1.4499999993 0 
-4.999999924 1.5 0 -4.9499999233 1.4499999993 0 -4.9499999233 1.5 0 
-4.8999999225 1.4499999993 0 -4.8999999225 1.5 0 -4.8499999218 1.4499999993 0 
-4.8499999218 1.5 0 -4.799999921 1.4499999993 0 -4.799999921 1.5 0 
-4.7499999203 1.4499999993 0 -4.7499999203 1.5 0 -4.6999999195 1.4499999993 0 
-4.6999999195 1.5 0 -4.6499999188 1.4499999993 0 -4.6499999188 1.5 0 
-4.599999918 1.4499999993 0 -4.599999918 1.5 0 -4.5499999173 1.4499999993 0 
-4.5499999173 1.5 0 -4.4999999166 1.4499999993 0 -4.4999999166 1.5 0 
-4.4499999158 1.4499999993 0 -4.4499999158 1.5 0 -4.3999999151 1.4499999993 0 
-4.3999999151 1.5 0 -4.3499999143 1.4499999993 0 -4.3499999143 1.5 0 
-4.2999999136 1.4499999993 0 -4.2999999136 1.5 0 -4.2499999128 1.4499999993 0 
-4.2499999128 1.5 0 -4.1999999121 1.4499999993 0 -4.1999999121 1.5 0 
-4.1499999113 1.4499999993 0 -4.1499999113 1.5 0 -4.0999999106 1.4499999993 0 
-4.0999999106 1.5 0 -4.0499999098 1.4499999993 0 -4.0499999098 1.5 0 
-3.9999999091 1.4499999993 0 -3.9999999091 1.5 0 -3.9499999084 1.4499999993 0 
-3.9499999084 1.5 0 -3.8999999076 1.4499999993 0 -3.8999999076 1.5 0 
-3.8499999069 1.4499999993 0 -3.8499999069 1.5 0 -3.7999999061 1.4499999993 0 
-3.7999999061 1.5 0 -3.7499999054 1.4499999993 0 -3.7499999054 1.5 0 
-3.6999999046 1.4499999993 0 -3.6999999046 1.5 0 -3.6499999039 1.4499999993 0 
-3.6499999039 1.5 0 -3.5999999031 1.4499999993 0 -3.5999999031 1.5 0 
-3.5499999024 1.4499999993 0 -3.5499999024 1.5 0 -3.4999999017 1.4499999993 0 
-3.4999999017 1.5 0 -3.4499999009 1.4499999993 0 -3.4499999009 1.5 0 
-3.3999999002 1.4499999993 0 -3.3999999002 1.5 0 -3.3499998994 1.4499999993 0 
-3.3499998994 1.5 0 -3.2999998987 1.4499999993 0 -3.2999998987 1.5 0 
-3.2499998979 1.4499999993 0 -3.2499998979 1.5 0 -3.1999998972 1.4499999993 0 
-3.1999998972 1.5 0 -3.1499998964 1.4499999993 0 -3.1499998964 1.5 0 
-3.0999998957 1.4499999993 0 -3.0999998957 1.5 0 -3.0499998949 1.4499999993 0 
-3.0499998949 1.5 0 -2.9999998942 1.4499999993 0 -2.9999998942 1.5 0 
-2.9499998935 1.4499999993 0 -2.9499998935 1.5 0 -2.8999998927 1.4499999993 0 
-2.8999998927 1.5 0 -2.849999892 1.4499999993 0 -2.849999892 1.5 0 
-2.7999998912 1.4499999993 0 -2.7999998912 1.5 0 -2.7499998905 1.4499999993 0 
-2.7499998905 1.5 0 -2.6999998897 1.4499999993 0 -2.6999998897 1.5 0 
-2.649999889 1.4499999993 0 -2.649999889 1.5 0 -2.5999998882 1.4499999993 0 
-2.5999998882 1.5 0 -2.5499998875 1.4499999993 0 -2.5499998875 1.5 0 
-2.4999998868 1.4499999993 0 -2.4999998868 1.5 0 -2.449999886 1.4499999993 0 
-2.449999886 1.5 0 -2.3999998853 1.4499999993 0 -2.3999998853 1.5 0 
-2.3499998845 1.4499999993 0 -2.3499998845 1.5 0 -2.2999998838 1.4499999993 0 
-2.2999998838 1.5 0 -2.249999883 1.4499999993 0 -2.249999883 1.5 0 
-2.1999998823 1.4499999993 0 -2.1999998823 1.5 0 -2.1499998815 1.4499999993 0 
-2.1499998815 1.5 0 -2.0999998808 1.4499999993 0 -2.0999998808 1.5 0 
-2.04999988 1.4499999993 0 -2.04999988 1.5 0 -1.9999998793 1.4499999993 0 
-1.9999998793 1.5 0 -1.9499998786 1.4499999993 0 -1.9499998786 1.5 0 
-1.8999998778 1.4499999993 0 -1.8999998778 1.5 0 -1.8499998771 1.4499999993 0 
-1.8499998771 1.5 0 -1.7999998763 1.4499999993 0 -1.7999998763 1.5 0 
-1.7499998756 1.4499999993 0 -1.7499998756 1.5 0 -1.6999998748 1.4499999993 0 
-1.6999998748 1.5 0 -1.6499998741 1.4499999993 0 -1.6499998741 1.5 0 
-1.5999998733 1.4499999993 0 -1.5999998733 1.5 0 -1.5499998726 1.4499999993 0 
-1.5499998726 1.5 0 -1.4999998718 1.4499999993 0 -1.4999998718 1.5 0 
-1.4499998711 1.4499999993 0 -1.4499998711 1.5 0 -1.3999998704 1.4499999993 0 
-1.3999998704 1.5 0 -1.3499998696 1.4499999993 0 -1.3499998696 1.5 0 
-1.2999998689 1.4499999993 0 -1.2999998689 1.5 0 -1.2499998681 1.4499999993 0 
-1.2499998681 1.5 0 -1.1999998674 1.4499999993 0 -1.1999998674 1.5 0 
-1.1499998666 1.4499999993 0 -1.1499998666 1.5 0 -1.0999998659 1.4499999993 0 
-1.0999998659 1.5 0 -1.0499998651 1.4499999993 0 -1.0499998651 1.5 0 
-0.9999998644 1.4499999993 0 -0.9999998644 1.5 0 -0.94999986365 1.4499999993 0 
-0.94999986365 1.5 0 -0.89999986291 1.4499999993 0 -0.89999986291 1.5 0 
-0.84999986216 1.4499999993 0 -0.84999986216 1.5 0 -0.79999986142 1.4499999993 0 
-0.79999986142 1.5 0 -0.74999986067 1.4499999993 0 -0.74999986067 1.5 0 
-0.69999985993 1.4499999993 0 -0.69999985993 1.5 0 -0.64999985918 1.4499999993 0 
-0.64999985918 1.5 0 -0.59999985844 1.4499999993 0 -0.59999985844 1.5 0 
-0.54999985769 1.4499999993 0 -0.54999985769 1.5 0 -0.49999985695 1.4499999993 0 
-0.49999985695 1.5 0 -0.4499998562 1.4499999993 0 -0.4499998562 1.5 0 
-0.39999985546 1.4499999993 0 -0.39999985546 1.5 0 -0.34999985471 1.4499999993 0 
-0.34999985471 1.5 0 -0.29999985397 1.4499999993 0 -0.29999985397 1.5 0 
-0.24999985322 1.4499999993 0 -0.24999985322 1.5 0 -0.191663057 1.4499999993 0 
-0.17548248559 1.5 0 0.18862900414 1.4499999993 0 0.25000015423 1.4499999993 0 
[...]
CELL_DATA 9510
FIELD FieldData 4
Water_Depth_m 1 9510 float
0.345001 0.345006 0.345012 0.345018 0.345026 0.345035 0.345047 0.34506 0.345076 
0.345095 0.345116 0.34514 0.345168 0.345198 0.34523 0.345266 0.345305 0.345347 
0.345391 0.345437 0.345486 0.345537 0.345589 0.345643 0.345698 0.345753 0.345809 
0.345865 0.34592 0.345974 0.346027 0.346077 0.346126 0.346172 0.346216 0.346256 
0.346292 0.346325 0.346354 0.346378 0.346398 0.346413 0.346424 0.34643 0.34643 
0.346426 0.346417 0.346403 0.346384 0.346359 0.34633 0.346296 0.346257 0.346214 
0.346166 0.346114 0.346058 0.345998 0.345935 0.345868 0.345799 0.345728 0.345656 
0.345582 0.345508 0.345435 0.345362 0.345292 0.345224 0.34516 0.3451 0.345045 
0.344996 0.344953 0.344917 0.344888 0.344866 0.344852 0.344845 0.344846 0.344853 
0.344866 0.344885 0.344908 0.344935 0.344964 0.344995 0.345027 0.345058 0.345089 
0.345117 0.345142 0.345163 0.34518 0.345193 0.3452 0.345202 0.345198 0.345189 
0.345174 0.345152 0.345126 0.345093 0.345056 0.345013 0.344966 0.344914 0.344859 
0.3448 0.344739 0.344676 0.344612 0.344547 0.344483 0.344421 0.34436 0.344302 
0.344248 0.344199 0.344154 0.344115 0.344082 0.344055 0.344034 0.344019 0.344009 
0.344005 0.344005 0.344009 0.344015 0.344024 0.344034 0.344045 0.344055 0.344065 
0.344073 0.344079 0.344084 0.344086 0.344085 0.344083 0.344078 0.344071 0.344062 
0.344051 0.344039 0.344025 0.344011 0.343996 0.343981 0.343965 0.34395 0.343934 
0.343919 0.343905 0.343891 0.343877 0.343864 0.343853 0.343842 0.343832 0.343822 
0.343814 0.343807 0.343801 0.343796 0.343792 0.34379 0.343789 0.34379 0.343792 
0.343796 0.343802 0.34381 0.343821 0.343835 0.343853 0.343874 0.3439 0.343931 
0.343968 0.344011 0.344063 0.344123 0.344193 0.344274 0.344368 0.344476 0.344599 
0.344739 0.344899 0.345075 0.345276 0.345492 0.345731 0.345922 0.346202 0.346511 
0.350503 0.35092 0.351261 0.351572 0.351854 0.352109 0.352338 0.352544 0.352727 
0.35289 0.353034 0.353163 0.353277 0.353377 0.353466 0.353545 0.353615 0.353676 
0.35373 0.353778 0.35382 0.353857 0.35389 0.353918 0.353944 0.353966 0.353985 
0.354002 0.354016 0.354029 0.35404 0.35405 0.354058 0.354065 0.354071 0.354075 
0.35408 0.354083 0.354086 0.354088 0.35409 0.354091 0.354092 0.354092 0.354093 
0.354093 0.354092 0.354092 0.354091 0.354091 0.35409 0.354089 0.354088 0.354087 
0.354086 0.354085 0.354084 0.354083 0.354082 0.354081 0.35408 0.35408 0.354079 
0.354078 0.354077 0.354077 0.354076 0.354076 0.354075 0.354075 0.354075 0.354074 
0.354074 0.354074 0.354074 0.354075 0.354075 0.354075 0.354076 0.354076 0.354077 
0.354078 0.354079 0.35408 0.354081 0.354082 0.354083 0.354085 0.354086 0.354088 
0.35409 0.354091 0.354093 0.354095 0.354043 0.35404 0.349301 0.345 0.345005 
0.34501 0.345016 0.345023 0.345033 0.345044 0.345057 0.345072 0.345091 0.345112 
0.345136 0.345163 0.345192 0.345225 0.345261 0.3453 0.345341 0.345385 0.345432 
0.345481 0.345532 0.345585 0.345639 0.345694 0.34575 0.345806 0.345862 0.345917 
0.345972 0.346025 0.346077 0.346126 0.346173 0.346217 0.346257 0.346294 0.346328 
0.346357 0.346382 0.346402 0.346418 0.346428 0.346434 0.346435 0.346431 0.346422 
0.346408 0.346389 0.346365 0.346336 0.346302 0.346263 0.34622 0.346172 0.34612 
0.346063 0.346003 0.345939 0.345872 0.345803 0.345731 0.345658 0.345584 0.345509 
0.345435 0.345362 0.345291 0.345222 0.345157 0.345097 0.345041 0.344991 0.344948 
0.344911 0.344882 0.34486 0.344845 0.344838 0.344839 0.344846 0.34486 0.344879 
0.344903 0.34493 0.344961 0.344993 0.345026 0.345058 0.345089 0.345118 0.345144 
0.345166 0.345184 0.345197 0.345205 0.345207 0.345204 0.345195 0.34518 0.345159 
0.345132 0.3451 0.345062 0.345019 0.344971 0.344919 0.344863 0.344804 0.344743 
0.344679 0.344614 0.344549 0.344484 0.34442 0.344359 0.3443 0.344246 0.344195 
0.34415 0.344111 0.344077 0.34405 0.344029 0.344014 0.344005 0.344001 0.344001 
0.344006 0.344013 0.344023 0.344034 0.344045 0.344056 0.344066 0.344075 0.344081 
0.344086 0.344088 0.344088 0.344085 0.34408 0.344073 0.344064 0.344053 0.34404 
0.344027 0.344012 0.343997 0.343982 0.343966 0.34395 0.343935 0.343919 0.343905 
0.34389 0.343877 0.343864 0.343852 0.343841 0.343831 0.343822 0.343814 0.343806 
0.3438 0.343795 0.343792 0.343789 0.343788 0.343788 0.34379 0.343794 0.3438 
0.343808 0.343818 0.343832 0.343849 0.343869 0.343894 0.343924 0.34396 0.344003 
0.344053 0.344111 0.34418 0.344259 0.344351 0.344457 0.344579 0.344717 0.344874 
0.34505 0.345246 0.345458 0.345696 0.345949 0.346288 0.346778 0.350499 0.350919 
0.351263 0.351576 0.35186 0.352117 0.352346 0.352552 0.352735 0.352897 0.353042 
0.35317 0.353283 0.353384 0.353472 0.35355 0.35362 0.353681 0.353734 0.353782 
0.353823 0.35386 0.353892 0.353921 0.353946 0.353967 0.353987 0.354003 0.354018 
0.35403 0.354041 0.354051 0.354059 0.354065 0.354071 0.354076 0.35408 0.354084 
0.354086 0.354088 0.35409 0.354091 0.354092 0.354093 0.354093 0.354093 0.354093 
0.354092 0.354092 0.354091 0.35409 0.354089 0.354088 0.354087 0.354086 0.354085 
0.354084 0.354083 0.354082 0.354081 0.35408 0.35408 0.354079 0.354078 0.354077 
0.354077 0.354076 0.354076 0.354075 0.354075 0.354075 0.354074 0.354074 0.354074 
0.354074 0.354075 0.354075 0.354075 0.354076 0.354076 0.354077 0.354078 0.354079 
0.35408 0.354081 0.354082 0.354083 0.354085 0.354086 0.354088 0.35409 0.354091 
0.354093 0.354095 0.354043 0.35404 0.349301 0.345 0.345004 0.345008 0.345013 
0.34502 0.345028 0.345039 0.345052 0.345067 0.345085 0.345106 0.345129 0.345156 
0.345186 0.345218 0.345254 0.345293 0.345335 0.345379 0.345426 0.345475 0.345527 
0.34558 0.345634 0.34569 0.345747 0.345804 0.34586 0.345917 0.345972 0.346026 
0.346079 0.346129 0.346177 0.346221 0.346263 0.346301 0.346335 0.346364 0.34639 
0.346411 0.346427 0.346438 0.346444 0.346445 0.346441 0.346432 0.346418 0.346399 
0.346374 0.346345 0.34631 0.346271 0.346227 0.346178 0.346125 0.346068 0.346007 
0.345942 0.345874 0.345804 0.345731 0.345656 0.345581 0.345505 0.345429 0.345355 
0.345282 0.345213 0.345146 0.345085 0.345028 0.344977 0.344933 0.344896 0.344866 
0.344845 0.344831 0.344824 0.344826 0.344834 0.344849 0.34487 0.344895 0.344925 
0.344957 0.344991 0.345025 0.34506 0.345093 0.345123 0.34515 0.345174 0.345193 
0.345207 0.345215 0.345218 0.345215 0.345206 0.345191 0.34517 0.345142 0.345109 
0.345071 0.345027 0.344978 0.344925 0.344868 0.344807 0.344744 0.344679 0.344613 
0.344546 0.344479 0.344414 0.344351 0.344291 0.344235 0.344184 0.344138 0.344098 
0.344065 0.344038 0.344017 0.344003 0.343995 0.343992 0.343994 0.344 0.344009 
0.34402 0.344033 0.344045 0.344058 0.344069 0.344078 0.344085 0.34409 0.344093 
0.344092 0.344089 0.344084 0.344076 0.344067 0.344056 0.344043 0.344029 0.344014 
0.343998 0.343982 0.343966 0.34395 0.343934 0.343918 0.343903 0.343889 0.343875 
0.343863 0.343851 0.343839 0.343829 0.34382 0.343812 0.343804 0.343798 0.343793 
0.343789 0.343786 0.343785 0.343785 0.343787 0.34379 0.343796 0.343803 0.343813 
0.343826 0.343842 0.343861 0.343885 0.343914 0.343948 0.343989 0.344036 0.344093 
0.344159 0.344235 0.344324 0.344427 0.344544 0.344679 0.344833 0.345006 0.345201 
0.345418 0.345651 0.345926 0.346245 0.346626 0.350507 0.350934 0.351283 0.351599 
0.351885 0.352143 0.352372 0.352577 0.352759 0.352921 0.353064 0.35319 0.353302 
0.353401 0.353488 0.353565 0.353632 0.353692 0.353745 0.353791 0.353832 0.353868 
0.353899 0.353927 0.353951 0.353972 0.353991 0.354007 0.354021 0.354034 0.354044 
0.354053 0.354061 0.354068 0.354073 0.354078 0.354082 0.354085 0.354088 0.35409 
0.354091 0.354092 0.354093 0.354093 0.354094 0.354093 0.354093 0.354093 0.354092 
0.354091 0.35409 0.35409 0.354089 0.354088 0.354087 0.354086 0.354085 0.354084 
0.354083 0.354082 0.354081 0.35408 0.354079 0.354078 0.354077 0.354077 0.354076 
0.354076 0.354075 0.354075 0.354075 0.354074 0.354074 0.354074 0.354074 0.354075 
0.354075 0.354075 0.354076 0.354076 0.354077 0.354078 0.354079 0.35408 0.354081 
0.354082 0.354083 0.354085 0.354086 0.354088 0.35409 0.354091 0.354093 0.354095 
0.354043 0.35404 0.349301 0.344999 0.345002 0.345005 0.345009 0.345015 0.345022 
0.345032 0.345044 0.345059 0.345076 0.345097 0.34512 0.345146 0.345176 0.345208 
0.345244 0.345283 0.345325 0.34537 0.345417 0.345467 0.345519 0.345573 0.345628 
0.345685 0.345742 0.3458 0.345859 0.345916 0.345973 0.346028 0.346082 0.346134 
0.346183 0.346229 0.346271 0.34631 0.346345 0.346376 0.346402 0.346423 0.34644 
0.346452 0.346458 0.346459 0.346456 0.346446 0.346432 0.346413 0.346388 0.346358 
0.346323 0.346283 0.346238 0.346188 0.346134 0.346075 0.346013 0.345946 0.345877 
0.345805 0.34573 0.345654 0.345576 0.345498 0.345421 0.345344 0.34527 0.345198 
0.34513 0.345066 0.345008 0.344956 0.344911 0.344874 0.344844 0.344822 0.344808 
0.344803 0.344806 0.344816 0.344833 0.344856 0.344884 0.344916 0.344951 0.344988 
0.345025 0.345062 0.345098 0.345131 0.34516 0.345186 0.345206 0.345222 0.345231 
0.345235 0.345232 0.345223 0.345208 0.345186 0.345158 0.345124 0.345084 0.345039 
0.344989 0.344934 0.344875 0.344812 0.344747 0.344679 0.34461 0.344541 0.344472 
0.344404 0.344339 0.344277 0.34422 0.344167 0.34412 0.344079 0.344045 0.344019 
0.343999 0.343986 0.343979 0.343978 0.343983 0.343991 0.344003 0.344016 0.344031 
0.344046 0.34406 0.344073 0.344084 0.344092 0.344097 0.3441 0.344099 0.344096 
0.34409 0.344082 0.344072 0.344059 0.344046 0.344031 0.344015 0.343999 0.343982 
0.343966 0.343949 0.343933 0.343917 0.343902 0.343887 0.343873 0.34386 0.343848 
0.343837 0.343826 0.343817 0.343809 0.343801 0.343795 0.34379 0.343786 0.343783 
0.343781 0.343781 0.343782 0.343785 0.343789 0.343796 0.343805 0.343817 0.343831 
0.343849 0.343871 0.343898 0.343929 0.343967 0.344012 0.344065 0.344127 0.344199 
0.344283 0.34438 0.344493 0.344622 0.344771 0.34494 0.345132 0.345349 0.345582 
0.345862 0.34615 0.346483 0.35052 0.350958 0.351313 0.351635 0.351924 0.352182 
0.352412 0.352616 0.352796 0.352956 0.353097 0.353221 0.35333 0.353426 0.353511 
0.353586 0.353652 0.35371 0.35376 0.353805 0.353845 0.353879 0.35391 0.353936 
0.35396 0.35398 0.353998 0.354013 0.354027 0.354038 0.354048 0.354057 0.354065 
0.354071 0.354076 0.35408 0.354084 0.354087 0.354089 0.354091 0.354093 0.354094 
0.354094 0.354094 0.354094 0.354094 0.354094 0.354093 0.354093 0.354092 0.354091 
0.35409 0.354089 0.354088 0.354087 0.354086 0.354085 0.354084 0.354083 0.354082 
0.354081 0.35408 0.354079 0.354078 0.354078 0.354077 0.354076 0.354076 0.354075 
0.354075 0.354075 0.354075 0.354074 0.354074 0.354075 0.354075 0.354075 0.354075 
0.354076 0.354076 0.354077 0.354078 0.354079 0.35408 0.354081 0.354082 0.354083 
0.354085 0.354086 0.354088 0.35409 0.354091 0.354093 0.354095 0.354043 0.35404 
0.349301 0.344998 0.344999 0.345001 0.345004 0.345008 0.345015 0.345023 0.345034 
0.345048 0.345065 0.345085 0.345107 0.345133 0.345163 0.345195 0.345231 0.34527 
0.345312 0.345357 0.345405 0.345455 0.345508 0.345563 0.34562 0.345678 0.345737 
0.345796 0.345856 0.345915 0.345974 0.346031 0.346087 0.34614 0.346191 0.346238 
0.346282 0.346323 0.346359 0.346391 0.346418 0.346441 0.346458 0.34647 0.346477 
0.346478 0.346475 0.346465 0.346451 0.346431 0.346405 0.346375 0.346339 0.346298 
0.346252 0.3462 0.346145 0.346085 0.34602 0.345952 0.345881 0.345806 0.345729 
0.34565 0.34557 0.34549 0.345409 0.34533 0.345253 0.345178 0.345108 0.345042 
0.344982 0.344928 0.344882 0.344843 0.344813 0.344791 0.344779 0.344774 0.344779 
0.344791 0.344811 0.344837 0.344868 0.344904 0.344943 0.344984 0.345025 0.345066 
0.345105 0.345141 0.345174 0.345202 0.345225 0.345242 0.345252 0.345257 0.345255 
0.345246 0.34523 0.345208 0.345179 0.345144 0.345103 0.345056 0.345003 0.344946 
0.344884 0.344819 0.34475 0.34468 0.344607 0.344535 0.344462 0.344392 0.344323 
0.344258 0.344198 0.344143 0.344095 0.344053 0.344019 0.343993 0.343974 0.343963 
0.343958 0.34396 0.343968 0.34398 0.343995 0.344012 0.34403 0.344047 0.344064 
0.344079 0.344091 0.344101 0.344107 0.344109 0.344109 0.344105 0.344099 0.344089 
0.344078 0.344065 0.34405 0.344034 0.344017 0.344 0.343982 0.343965 0.343948 
0.343931 0.343915 0.343899 0.343884 0.34387 0.343857 0.343844 0.343833 0.343823 
0.343813 0.343805 0.343797 0.343791 0.343785 0.343781 0.343778 0.343776 0.343775 
0.343775 0.343778 0.343781 0.343787 0.343795 0.343805 0.343818 0.343834 0.343853 
0.343877 0.343906 0.34394 0.34398 0.344028 0.344085 0.344151 0.344229 0.344319 
0.344425 0.344547 0.344688 0.34485 0.345036 0.34525 0.345481 0.34576 0.346028 
0.346327 0.350538 0.35099 0.351355 0.351684 0.351977 0.352236 0.352466 0.352668 
0.352847 0.353003 0.35314 0.353261 0.353367 0.35346 0.353542 0.353614 0.353677 
0.353732 0.353781 0.353824 0.353861 0.353894 0.353923 0.353948 0.353971 0.35399 
0.354007 0.354021 0.354034 0.354045 0.354054 0.354062 0.354069 0.354075 0.35408 
0.354084 0.354087 0.35409 0.354092 0.354093 0.354095 0.354095 0.354096 0.354096 
0.354096 0.354095 0.354095 0.354094 0.354094 0.354093 0.354092 0.354091 0.35409 
0.354089 0.354087 0.354086 0.354085 0.354084 0.354083 0.354082 0.354081 0.35408 
0.354079 0.354078 0.354078 0.354077 0.354076 0.354076 0.354075 0.354075 0.354075 
0.354075 0.354074 0.354074 0.354075 0.354075 0.354075 0.354075 0.354076 0.354076 
0.354077 0.354078 0.354079 0.35408 0.354081 0.354082 0.354083 0.354085 0.354086 
0.354088 0.35409 0.354091 0.354093 0.354095 0.354043 0.35404 0.349301 0.344997 
0.344996 0.344996 0.344997 0.345 0.345005 0.345012 0.345022 0.345035 0.345051 
0.34507 0.345092 0.345118 0.345146 0.345179 0.345215 0.345254 0.345296 0.345341 
0.34539 0.345441 0.345495 0.345551 0.345609 0.345669 0.345729 0.345791 0.345852 
0.345914 0.345975 0.346034 0.346092 0.346147 0.3462 0.34625 0.346296 0.346338 
0.346376 0.34641 0.346438 0.346462 0.34648 0.346493 0.3465 0.346502 0.346498 
0.346489 0.346474 0.346453 0.346427 0.346396 0.346359 0.346316 0.346269 0.346216 
0.346159 0.346096 0.34603 0.345959 0.345885 0.345808 0.345728 0.345646 0.345563 
0.345479 0.345395 0.345312 0.345231 0.345154 0.34508 0.345011 0.344949 0.344893 
0.344845 0.344805 0.344774 0.344753 0.344741 0.344738 0.344745 0.34476 0.344783 
0.344813 0.344849 0.34489 0.344934 0.344979 0.345026 0.345071 0.345114 0.345155 
0.345191 0.345222 0.345247 0.345267 0.345279 0.345285 0.345283 0.345274 0.345258 
0.345235 0.345205 0.345168 0.345125 0.345076 0.345021 0.344961 0.344896 0.344827 
0.344755 0.34468 0.344603 0.344526 0.34445 0.344375 0.344303 0.344234 0.344171 
0.344113 0.344063 0.34402 0.343985 0.343959 0.343942 0.343933 0.343932 0.343937 
0.343949 0.343965 0.343984 0.344006 0.344028 0.34405 0.34407 0.344088 0.344102 
0.344113 0.344119 0.344122 0.344121 0.344117 0.344109 0.344099 0.344086 0.344071 
0.344055 0.344038 0.34402 0.344001 0.343983 0.343964 0.343946 0.343929 0.343912 
0.343896 0.34388 0.343866 0.343852 0.34384 0.343828 0.343818 0.343808 0.3438 
0.343792 0.343785 0.34378 0.343775 0.343772 0.343769 0.343768 0.343768 0.343769 
0.343772 0.343776 0.343782 0.343791 0.343801 0.343815 0.343832 0.343852 0.343877 
0.343907 0.343942 0.343984 0.344035 0.344094 0.344163 0.344245 0.344341 0.344453 
0.344584 0.344735 0.344913 0.345119 0.345345 0.345619 0.345883 0.346161 0.350562 
0.351034 0.351412 0.351748 0.352045 0.352306 0.352535 0.352735 0.35291 0.353062 
0.353195 0.353312 0.353413 0.353502 0.35358 0.353648 0.353708 0.353761 0.353806 
0.353847 0.353882 0.353913 0.35394 0.353963 0.353984 0.354002 0.354018 0.354031 
0.354043 0.354053 0.354061 0.354069 0.354075 0.35408 0.354085 0.354088 0.354091 
0.354093 0.354095 0.354096 0.354097 0.354098 0.354098 0.354098 0.354097 0.354097 
0.354096 0.354096 0.354095 0.354094 0.354093 0.354091 0.35409 0.354089 0.354088 
0.354087 0.354086 0.354084 0.354083 0.354082 0.354081 0.35408 0.354079 0.354079 
0.354078 0.354077 0.354077 0.354076 0.354076 0.354075 0.354075 0.354075 0.354075 
0.354075 0.354075 0.354075 0.354075 0.354075 0.354076 0.354077 0.354077 0.354078 
0.354079 0.35408 0.354081 0.354082 0.354083 0.354085 0.354086 0.354088 0.35409 
0.354091 0.354093 0.354095 0.354043 0.35404 0.349301 0.344996 0.344992 0.34499 
0.344989 0.34499 0.344994 0.345 0.345008 0.34502 0.345035 0.345053 0.345074 
0.345099 0.345128 0.34516 0.345195 0.345235 0.345277 0.345323 0.345372 0.345424 
0.345479 0.345537 0.345596 0.345658 0.34572 0.345784 0.345848 0.345912 0.345975 
0.346037 0.346098 0.346156 0.346211 0.346263 0.346312 0.346356 0.346396 0.346431 
0.346462 0.346486 0.346506 0.346519 0.346527 0.346529 0.346526 0.346516 0.346501 
0.34648 0.346453 0.34642 0.346382 0.346338 0.346289 0.346235 0.346175 0.34611 
0.346041 0.345968 0.34589 0.34581 0.345726 0.345641 0.345553 0.345465 0.345377 
0.345291 0.345206 0.345124 0.345047 0.344974 0.344908 0.34485 0.3448 0.344759 
0.344727 0.344706 0.344695 0.344694 0.344703 0.344722 0.344749 0.344784 0.344826 
0.344872 0.344922 0.344974 0.345026 0.345077 0.345126 0.345171 0.345212 0.345246 
0.345275 0.345297 0.345311 0.345318 0.345317 0.345308 0.345291 0.345267 0.345236 
0.345198 0.345152 0.3451 0.345042 0.344978 0.344909 0.344836 0.344759 0.34468 
0.344598 0.344516 0.344435 0.344355 0.344277 0.344205 0.344137 0.344076 0.344023 
0.343979 0.343944 0.343918 0.343903 0.343896 0.343899 0.343909 0.343926 0.343948 
0.343973 0.344 0.344028 0.344054 0.344078 0.344099 0.344116 0.344128 0.344135 
0.344138 0.344136 0.344131 0.344122 0.34411 0.344096 0.344079 0.344061 0.344042 
0.344022 0.344002 0.343982 0.343963 0.343944 0.343925 0.343908 0.343891 0.343876 
0.343861 0.343847 0.343835 0.343823 0.343812 0.343803 0.343794 0.343786 0.34378 
0.343774 0.343769 0.343765 0.343762 0.34376 0.343759 0.34376 0.343761 0.343764 
0.343769 0.343775 0.343783 0.343794 0.343807 0.343824 0.343844 0.343869 0.343899 
0.343934 0.343977 0.344027 0.344087 0.344158 0.344242 0.344341 0.344458 0.344597 
0.344759 0.344955 0.34517 0.345438 0.345698 0.345967 0.350594 0.351092 0.351485 
0.35183 0.352132 0.352394 0.35262 0.352816 0.352986 0.353133 0.353261 0.353372 
0.353468 0.353552 0.353625 0.353689 0.353745 0.353794 0.353836 0.353874 0.353906 
0.353935 0.353959 0.353981 0.354 0.354016 0.35403 0.354043 0.354053 0.354062 
0.35407 0.354076 0.354082 0.354086 0.35409 0.354093 0.354095 0.354097 0.354099 
0.354099 0.3541 0.3541 0.3541 0.3541 0.354099 0.354099 0.354098 0.354097 
0.354096 0.354095 0.354094 0.354092 0.354091 0.35409 0.354089 0.354087 0.354086 
0.354085 0.354084 0.354083 0.354082 0.354081 0.35408 0.354079 0.354078 0.354077 
0.354077 0.354076 0.354076 0.354075 0.354075 0.354075 0.354075 0.354075 0.354075 
0.354075 0.354075 0.354075 0.354076 0.354077 0.354077 0.354078 0.354079 0.35408 
0.354081 0.354082 0.354083 0.354085 0.354086 0.354088 0.35409 0.354091 0.354093 
0.354095 0.354043 0.35404 0.349301 0.344995 0.344988 0.344984 0.344981 0.34498 
0.344981 0.344986 0.344993 0.345003 0.345017 0.345034 0.345054 0.345079 0.345107 
0.345138 0.345174 0.345213 0.345256 0.345302 0.345352 0.345405 0.345462 0.34552 
0.345582 0.345645 0.34571 0.345776 0.345843 0.34591 0.345976 0.346041 0.346104 
0.346165 0.346224 0.346279 0.34633 0.346377 0.346419 0.346456 0.346488 0.346514 
0.346535 0.34655 0.346558 0.346561 0.346557 0.346547 0.346532 0.34651 0.346482 
0.346448 0.346409 0.346363 0.346312 0.346255 0.346193 0.346126 0.346054 0.345977 
0.345896 0.345812 0.345724 0.345634 0.345542 0.34545 0.345357 0.345266 0.345176 
0.34509 0.345008 0.344931 0.344862 0.3448 0.344747 0.344704 0.344672 0.344651 
0.344641 0.344643 0.344655 0.344678 0.34471 0.344751 0.344799 0.344853 0.34491 
0.344969 0.345028 0.345085 0.34514 0.345191 0.345236 0.345275 0.345307 0.345332 
0.345348 0.345356 0.345356 0.345347 0.34533 0.345305 0.345272 0.345231 0.345183 
0.345128 0.345066 0.344998 0.344925 0.344847 0.344765 0.344679 0.344592 0.344504 
0.344416 0.34433 0.344247 0.344169 0.344097 0.344032 0.343976 0.343929 0.343894 
0.343869 0.343856 0.343853 0.34386 0.343876 0.3439 0.343928 0.34396 0.343994 
0.344028 0.344061 0.344089 0.344114 0.344133 0.344147 0.344155 0.344157 0.344155 
0.344148 0.344137 0.344123 0.344107 0.344088 0.344068 0.344046 0.344025 0.344003 