# vtk DataFile Version 5.1
vtk output
ASCII
DATASET UNSTRUCTURED_GRID
POINTS 10043 double
-10.1 1.4499999993 0 -10.049999999 1.4499999993 0 -10.049999999 1.5 0 
-9.9999999985 1.4499999993 0 -9.9999999985 1.5 0 -9.9499999978 1.4499999993 0 
-9.9499999978 1.5 0 -9.899999997 1.4499999993 0 -9.899999997 1.5 0 
-9.8499999963 1.4499999993 0 -9.8499999963 1.5 0 -9.7999999955 1.4499999993 0 
-9.7999999955 1.5 0 -9.7499999948 1.4499999993 0 -9.7499999948 1.5 0 
-9.699999994 1.4499999993 0 -9.699999994 1.5 0 -9.6499999933 1.4499999993 0 
-9.6499999933 1.5 0 -9.5999999925 1.4499999993 0 -9.5999999925 1.5 0 
-9.5499999918 1.4499999993 0 -9.5499999918 1.5 0 -9.4999999911 1.4499999993 0 
-9.4999999911 1.5 0 -9.4499999903 1.4499999993 0 -9.4499999903 1.5 0 
-9.3999999896 1.4499999993 0 -9.3999999896 1.5 0 -9.3499999888 1.4499999993 0 
-9.3499999888 1.5 0 -9.2999999881 1.4499999993 0 -9.2999999881 1.5 0 
-9.2499999873 1.4499999993 0 -9.2499999873 1.5 0 -9.1999999866 1.4499999993 0 
-9.1999999866 1.5 0 -9.1499999858 1.4499999993 0 -9.1499999858 1.5 0 
-9.0999999851 1.4499999993 0 -9.0999999851 1.5 0 -9.0499999844 1.4499999993 0 
-9.0499999844 1.5 0 -8.9999999836 1.4499999993 0 -8.9999999836 1.5 0 
-8.9499999829 1.4499999993 0 -8.9499999829 1.5 0 -8.8999999821 1.4499999993 0 
-8.8999999821 1.5 0 -8.8499999814 1.4499999993 0 -8.8499999814 1.5 0 
-8.7999999806 1.4499999993 0 -8.7999999806 1.5 0 -8.7499999799 1.4499999993 0 
-8.7499999799 1.5 0 -8.6999999791 1.4499999993 0 -8.6999999791 1.5 0 
-8.6499999784 1.4499999993 0 -8.6499999784 1.5 0 -8.5999999776 1.4499999993 0 
-8.5999999776 1.5 0 -8.5499999769 1.4499999993 0 -8.5499999769 1.5 0 
-8.4999999762 1.4499999993 0 -8.4999999762 1.5 0 -8.4499999754 1.4499999993 0 
-8.4499999754 1.5 0 -8.3999999747 1.4499999993 0 -8.3999999747 1.5 0 
-8.3499999739 1.4499999993 0 -8.3499999739 1.5 0 -8.2999999732 1.4499999993 0 
-8.2999999732 1.5 0 -8.2499999724 1.4499999993 0 -8.2499999724 1.5 0 
-8.1999999717 1.4499999993 0 -8.1999999717 1.5 0 -8.1499999709 1.4499999993 0 
-8.1499999709 1.5 0 -8.0999999702 1.4499999993 0 -8.0999999702 1.5 0 
-8.0499999695 1.4499999993 0 -8.0499999695 1.5 0 -7.9999999687 1.4499999993 0 
-7.9999999687 1.5 0 -7.949999968 1.4499999993 0 -7.949999968 1.5 0 
-7.8999999672 1.4499999993 0 -7.8999999672 1.5 0 -7.8499999665 1.4499999993 0 
-7.8499999665 1.5 0 -7.7999999657 1.4499999993 0 -7.7999999657 1.5 0 
-7.749999965 1.4499999993 0 -7.749999965 1.5 0 -7.6999999642 1.4499999993 0 
-7.6999999642 1.5 0 -7.6499999635 1.4499999993 0 -7.6499999635 1.5 0 
-7.5999999627 1.4499999993 0 -7.5999999627 1.5 0 -7.549999962 1.4499999993 0 
-7.549999962 1.5 0 -7.4999999613 1.4499999993 0 -7.4999999613 1.5 0 
-7.4499999605 1.4499999993 0 -7.4499999605 1.5 0 -7.3999999598 1.4499999993 0 
-7.3999999598 1.5 0 -7.349999959 1.4499999993 0 -7.349999959 1.5 0 
-7.2999999583 1.4499999993 0 -7.2999999583 1.5 0 -7.2499999575 1.4499999993 0 
-7.2499999575 1.5 0 -7.1999999568 1.4499999993 0 -7.1999999568 1.5 0 
-7.149999956 1.4499999993 0 -7.149999956 1.5 0 -7.0999999553 1.4499999993 0 
-7.0999999553 1.5 0 -7.0499999546 1.4499999993 0 -7.0499999546 1.5 0 
-6.9999999538 1.4499999993 0 -6.9999999538 1.5 0 -6.9499999531 1.4499999993 0 
-6.9499999531 1.5 0 -6.8999999523 1.4499999993 0 -6.8999999523 1.5 0 
-6.8499999516 1.4499999993 0 -6.8499999516 1.5 0 -6.7999999508 1.4499999993 0 
-6.7999999508 1.5 0 -6.7499999501 1.4499999993 0 -6.7499999501 1.5 0 
-6.6999999493 1.4499999993 0 -6.6999999493 1.5 0 -6.6499999486 1.4499999993 0 
-6.6499999486 1.5 0 -6.5999999478 1.4499999993 0 -6.5999999478 1.5 0 
-6.5499999471 1.4499999993 0 -6.5499999471 1.5 0 -6.4999999464 1.4499999993 0 
-6.4999999464 1.5 0 -6.4499999456 1.4499999993 0 -6.4499999456 1.5 0 
-6.3999999449 1.4499999993 0 -6.3999999449 1.5 0 -6.3499999441 1.4499999993 0 
-6.3499999441 1.5 0 -6.2999999434 1.4499999993 0 -6.2999999434 1.5 0 
-6.2499999426 1.4499999993 0 -6.2499999426 1.5 0 -6.1999999419 1.4499999993 0 
-6.1999999419 1.5 0 -6.1499999411 1.4499999993 0 -6.1499999411 1.5 0 
-6.0999999404 1.4499999993 0 -6.0999999404 1.5 0 -6.0499999397 1.4499999993 0 
-6.0499999397 1.5 0 -5.9999999389 1.4499999993 0 -5.9999999389 1.5 0 
-5.9499999382 1.4499999993 0 -5.9499999382 1.5 0 -5.8999999374 1.4499999993 0 
-5.8999999374 1.5 0 -5.8499999367 1.4499999993 0 -5.8499999367 1.5 0 
-5.7999999359 1.4499999993 0 -5.7999999359 1.5 0 -5.7499999352 1.4499999993 0 
-5.7499999352 1.5 0 -5.6999999344 1.4499999993 0 -5.6999999344 1.5 0 
-5.6499999337 1.4499999993 0 -5.6499999337 1.5 0 -5.5999999329 1.4499999993 0 
-5.5999999329 1.5 0 -5.5499999322 1.4499999993 0 -5.5499999322 1.5 0 
-5.4999999315 1.4499999993 0 -5.4999999315 1.5 0 -5.4499999307 1.4499999993 0 
-5.4499999307 1.5 0 -5.39999993 1.4499999993 0 -5.39999993 1.5 0 
-5.3499999292 1.4499999993 0 -5.3499999292 1.5 0 -5.2999999285 1.4499999993 0 
-5.2999999285 1.5 0 -5.2499999277 1.4499999993 0 -5.2499999277 1.5 0 
-5.199999927 1.4499999993 0 -5.199999927 1.5 0 -5.1499999262 1.4499999993 0 
-5.1499999262 1.5 0 -5.0999999255 1.4499999993 0 -5.0999999255 1.5 0 
-5.0499999247 1.4499999993 0 -5.0499999247 1.5 0 -4.999999924 1.4499999993 0 
-4.999999924 1.5 0 -4.9499999233 1.4499999993 0 -4.9499999233 1.5 0 
-4.8999999225 1.4499999993 0 -4.8999999225 1.5 0 -4.8499999218 1.4499999993 0 
-4.8499999218 1.5 0 -4.799999921 1.4499999993 0 -4.799999921 1.5 0 
-4.7499999203 1.4499999993 0 -4.7499999203 1.5 0 -4.6999999195 1.4499999993 0 
-4.6999999195 1.5 0 -4.6499999188 1.4499999993 0 -4.6499999188 1.5 0 
-4.599999918 1.4499999993 0 -4.599999918 1.5 0 -4.5499999173 1.4499999993 0 
-4.5499999173 1.5 0 -4.4999999166 1.4499999993 0 -4.4999999166 1.5 0 
-4.4499999158 1.4499999993 0 -4.4499999158 1.5 0 -4.3999999151 1.4499999993 0 
-4.3999999151 1.5 0 -4.3499999143 1.4499999993 0 -4.3499999143 1.5 0 
-4.2999999136 1.4499999993 0 -4.2999999136 1.5 0 -4.2499999128 1.4499999993 0 
-4.2499999128 1.5 0 -4.1999999121 1.4499999993 0 -4.1999999121 1.5 0 
-4.1499999113 1.4499999993 0 -4.1499999113 1.5 0 -4.0999999106 1.4499999993 0 
-4.0999999106 1.5 0 -4.0499999098 1.4499999993 0 -4.0499999098 1.5 0 
-3.9999999091 1.4499999993 0 -3.9999999091 1.5 0 -3.9499999084 1.4499999993 0 
-3.9499999084 1.5 0 -3.8999999076 1.4499999993 0 -3.8999999076 1.5 0 
-3.8499999069 1.4499999993 0 -3.8499999069 1.5 0 -3.7999999061 1.4499999993 0 
-3.7999999061 1.5 0 -3.7499999054 1.4499999993 0 -3.7499999054 1.5 0 
-3.6999999046 1.4499999993 0 -3.6999999046 1.5 0 -3.6499999039 1.4499999993 0 
-3.6499999039 1.5 0 -3.5999999031 1.4499999993 0 -3.5999999031 1.5 0 
-3.5499999024 1.4499999993 0 -3.5499999024 1.5 0 -3.4999999017 1.4499999993 0 
-3.4999999017 1.5 0 -3.4499999009 1.4499999993 0 -3.4499999009 1.5 0 
-3.3999999002 1.4499999993 0 -3.3999999002 1.5 0 -3.3499998994 1.4499999993 0 
-3.3499998994 1.5 0 -3.2999998987 1.4499999993 0 -3.2999998987 1.5 0 
-3.2499998979 1.4499999993 0 -3.2499998979 1.5 0 -3.1999998972 1.4499999993 0 
-3.1999998972 1.5 0 -3.1499998964 1.4499999993 0 -3.1499998964 1.5 0 
-3.0999998957 1.4499999993 0 -3.0999998957 1.5 0 -3.0499998949 1.4499999993 0 
-3.0499998949 1.5 0 -2.9999998942 1.4499999993 0 -2.9999998942 1.5 0 
-2.9499998935 1.4499999993 0 -2.9499998935 1.5 0 -2.8999998927 1.4499999993 0 
-2.8999998927 1.5 0 -2.849999892 1.4499999993 0 -2.849999892 1.5 0 
-2.7999998912 1.4499999993 0 -2.7999998912 1.5 0 -2.7499998905 1.4499999993 0 
-2.7499998905 1.5 0 -2.6999998897 1.4499999993 0 -2.6999998897 1.5 0 
-2.649999889 1.4499999993 0 -2.649999889 1.5 0 -2.5999998882 1.4499999993 0 
-2.5999998882 1.5 0 -2.5499998875 1.4499999993 0 -2.5499998875 1.5 0 
-2.4999998868 1.4499999993 0 -2.4999998868 1.5 0 -2.449999886 1.4499999993 0 
-2.449999886 1.5 0 -2.3999998853 1.4499999993 0 -2.3999998853 1.5 0 
-2.3499998845 1.4499999993 0 -2.3499998845 1.5 0 -2.2999998838 1.4499999993 0 
-2.2999998838 1.5 0 -2.249999883 1.4499999993 0 -2.249999883 1.5 0 
-2.1999998823 1.4499999993 0 -2.1999998823 1.5 0 -2.1499998815 1.4499999993 0 
-2.1499998815 1.5 0 -2.0999998808 1.4499999993 0 -2.0999998808 1.5 0 
-2.04999988 1.4499999993 0 -2.04999988 1.5 0 -1.9999998793 1.4499999993 0 
-1.9999998793 1.5 0 -1.9499998786 1.4499999993 0 -1.9499998786 1.5 0 
-1.8999998778 1.4499999993 0 -1.8999998778 1.5 0 -1.8499998771 1.4499999993 0 
-1.8499998771 1.5 0 -1.7999998763 1.4499999993 0 -1.7999998763 1.5 0 
-1.7499998756 1.4499999993 0 -1.7499998756 1.5 0 -1.6999998748 1.4499999993 0 
-1.6999998748 1.5 0 -1.6499998741 1.4499999993 0 -1.6499998741 1.5 0 
-1.5999998733 1.4499999993 0 -1.5999998733 1.5 0 -1.5499998726 1.4499999993 0 
-1.5499998726 1.5 0 -1.4999998718 1.4499999993 0 -1.4999998718 1.5 0 
-1.4499998711 1.4499999993 0 -1.4499998711 1.5 0 -1.3999998704 1.4499999993 0 
-1.3999998704 1.5 0 -1.3499998696 1.4499999993 0 -1.3499998696 1.5 0 
-1.2999998689 1.4499999993 0 -1.2999998689 1.5 0 -1.2499998681 1.4499999993 0 
-1.2499998681 1.5 0 -1.1999998674 1.4499999993 0 -1.1999998674 1.5 0 
-1.1499998666 1.4499999993 0 -1.1499998666 1.5 0 -1.0999998659 1.4499999993 0 
-1.0999998659 1.5 0 -1.0499998651 1.4499999993 0 -1.0499998651 1.5 0 
-0.9999998644 1.4499999993 0 -0.9999998644 1.5 0 -0.94999986365 1.4499999993 0 
-0.94999986365 1.5 0 -0.89999986291 1.4499999993 0 -0.89999986291 1.5 0 
-0.84999986216 1.4499999993 0 -0.84999986216 1.5 0 -0.79999986142 1.4499999993 0 
-0.79999986142 1.5 0 -0.74999986067 1.4499999993 0 -0.74999986067 1.5 0 
-0.69999985993 1.4499999993 0 -0.69999985993 1.5 0 -0.64999985918 1.4499999993 0 
-0.64999985918 1.5 0 -0.59999985844 1.4499999993 0 -0.59999985844 1.5 0 
-0.54999985769 1.4499999993 0 -0.54999985769 1.5 0 -0.49999985695 1.4499999993 0 
-0.49999985695 1.5 0 -0.4499998562 1.4499999993 0 -0.4499998562 1.5 0 
-0.39999985546 1.4499999993 0 -0.39999985546 1.5 0 -0.34999985471 1.4499999993 0 
-0.34999985471 1.5 0 -0.29999985397 1.4499999993 0 -0.29999985397 1.5 0 
-0.24999985322 1.4499999993 0 -0.24999985322 1.5 0 -0.191663057 1.4499999993 0 
-0.17548248559 1.5 0 0.18862900414 1.4499999993 0 0.25000015423 1.4499999993 0 
[...]
CELL_DATA 9510
FIELD FieldData 4
Water_Depth_m 1 9510 float
0.479985 0.479959 0.479933 0.479906 0.479879 0.479851 0.479824 0.479796 0.479768 
0.479741 0.479713 0.479686 0.479659 0.479633 0.479607 0.479583 0.47956 0.479538 
0.479518 0.479499 0.479483 0.479468 0.479456 0.479446 0.479439 0.479434 0.479432 
0.479433 0.479437 0.479444 0.479454 0.479466 0.479482 0.479501 0.479523 0.479548 
0.479575 0.479605 0.479637 0.479672 0.479708 0.479746 0.479785 0.479826 0.479868 
0.47991 0.479952 0.479995 0.480037 0.480078 0.480119 0.480159 0.480197 0.480234 
0.480268 0.480301 0.480331 0.480359 0.480384 0.480406 0.480426 0.480442 0.480456 
0.480466 0.480473 0.480478 0.480479 0.480477 0.480472 0.480464 0.480453 0.480439 
0.480423 0.480404 0.480382 0.480357 0.480331 0.480302 0.480271 0.480239 0.480204 
0.480169 0.480132 0.480095 0.480057 0.480019 0.479981 0.479943 0.479907 0.479872 
0.479838 0.479807 0.479778 0.479751 0.479728 0.479708 0.479692 0.479679 0.47967 
0.479665 0.479664 0.479667 0.479673 0.479683 0.479696 0.479711 0.479729 0.479749 
0.47977 0.479793 0.479816 0.47984 0.479863 0.479887 0.47991 0.479932 0.479954 
0.479974 0.479993 0.480012 0.480029 0.480045 0.48006 0.480074 0.480087 0.480099 
0.48011 0.48012 0.480129 0.480138 0.480145 0.480152 0.480159 0.480164 0.480169 
0.480174 0.480177 0.480181 0.480183 0.480186 0.480187 0.480189 0.48019 0.480191 
0.480191 0.480191 0.480191 0.480191 0.480191 0.480191 0.48019 0.48019 0.480189 
0.480189 0.480188 0.480188 0.480187 0.480187 0.480186 0.480186 0.480186 0.480186 
0.480187 0.480188 0.480189 0.48019 0.480192 0.480194 0.480198 0.480202 0.480206 
0.480212 0.48022 0.480228 0.480238 0.480251 0.480265 0.480282 0.480302 0.480326 
0.480353 0.480386 0.480423 0.480467 0.480517 0.480576 0.480643 0.48072 0.480808 
0.480909 0.481023 0.481151 0.481295 0.481455 0.481639 0.481802 0.482005 0.482262 
0.484359 0.484598 0.484796 0.48498 0.485148 0.485301 0.48544 0.485564 0.485676 
0.485776 0.485866 0.485946 0.486018 0.486082 0.48614 0.486191 0.486237 0.486278 
0.486315 0.486348 0.486378 0.486405 0.486429 0.486451 0.486471 0.486489 0.486506 
0.48652 0.486534 0.486546 0.486557 0.486568 0.486577 0.486586 0.486594 0.486601 
0.486608 0.486614 0.48662 0.486626 0.486631 0.486636 0.48664 0.486644 0.486648 
0.486652 0.486656 0.486659 0.486662 0.486666 0.486669 0.486671 0.486674 0.486677 
0.486679 0.486682 0.486684 0.486687 0.486689 0.486691 0.486693 0.486695 0.486698 
0.4867 0.486702 0.486704 0.486706 0.486708 0.486709 0.486711 0.486713 0.486715 
0.486717 0.486719 0.48672 0.486722 0.486724 0.486726 0.486727 0.486729 0.486731 
0.486732 0.486734 0.486736 0.486737 0.486739 0.48674 0.486742 0.486744 0.486745 
0.486747 0.486748 0.48675 0.486751 0.486708 0.486685 0.482437 0.479986 0.479961 
0.479934 0.479908 0.479881 0.479853 0.479825 0.479798 0.47977 0.479742 0.479714 
0.479687 0.47966 0.479633 0.479608 0.479583 0.47956 0.479538 0.479517 0.479498 
0.479482 0.479467 0.479454 0.479444 0.479436 0.479431 0.479429 0.47943 0.479434 
0.47944 0.47945 0.479463 0.479479 0.479498 0.479519 0.479544 0.479571 0.479601 
0.479633 0.479668 0.479704 0.479742 0.479782 0.479823 0.479864 0.479907 0.479949 
0.479992 0.480035 0.480077 0.480118 0.480158 0.480196 0.480233 0.480268 0.480301 
0.480332 0.48036 0.480385 0.480408 0.480428 0.480444 0.480458 0.480469 0.480476 
0.480481 0.480482 0.48048 0.480475 0.480468 0.480457 0.480443 0.480427 0.480407 
0.480386 0.480361 0.480334 0.480306 0.480275 0.480242 0.480207 0.480172 0.480135 
0.480097 0.480059 0.48002 0.479982 0.479944 0.479907 0.479872 0.479838 0.479806 
0.479777 0.47975 0.479726 0.479706 0.479689 0.479676 0.479667 0.479662 0.479661 
0.479664 0.47967 0.47968 0.479693 0.479709 0.479727 0.479747 0.479768 0.479791 
0.479815 0.479839 0.479863 0.479887 0.47991 0.479932 0.479954 0.479974 0.479994 
0.480012 0.48003 0.480046 0.480061 0.480075 0.480088 0.480099 0.48011 0.480121 
0.48013 0.480138 0.480146 0.480153 0.480159 0.480165 0.48017 0.480174 0.480178 
0.480181 0.480184 0.480186 0.480188 0.480189 0.48019 0.480191 0.480192 0.480192 
0.480192 0.480192 0.480191 0.480191 0.480191 0.48019 0.48019 0.480189 0.480188 
0.480188 0.480187 0.480187 0.480187 0.480186 0.480186 0.480187 0.480187 0.480188 
0.480188 0.48019 0.480192 0.480194 0.480197 0.480201 0.480206 0.480211 0.480218 
0.480227 0.480237 0.480248 0.480262 0.480279 0.480298 0.480321 0.480348 0.48038 
0.480416 0.480459 0.480508 0.480565 0.480631 0.480706 0.480793 0.480891 0.481003 
0.48113 0.481271 0.481428 0.481598 0.481789 0.482004 0.482342 0.484352 0.484594 
0.484795 0.48498 0.48515 0.485304 0.485443 0.485568 0.48568 0.48578 0.48587 
0.48595 0.486021 0.486085 0.486142 0.486194 0.486239 0.48628 0.486317 0.48635 
0.48638 0.486407 0.486431 0.486453 0.486472 0.48649 0.486506 0.486521 0.486535 
0.486547 0.486558 0.486568 0.486578 0.486586 0.486594 0.486602 0.486608 0.486615 
0.486621 0.486626 0.486631 0.486636 0.48664 0.486645 0.486649 0.486652 0.486656 
0.486659 0.486663 0.486666 0.486669 0.486672 0.486674 0.486677 0.486679 0.486682 
0.486684 0.486687 0.486689 0.486691 0.486693 0.486696 0.486698 0.4867 0.486702 
0.486704 0.486706 0.486708 0.486709 0.486711 0.486713 0.486715 0.486717 0.486719 
0.48672 0.486722 0.486724 0.486726 0.486727 0.486729 0.486731 0.486732 0.486734 
0.486736 0.486737 0.486739 0.48674 0.486742 0.486744 0.486745 0.486747 0.486748 
0.48675 0.486751 0.486708 0.486685 0.482437 0.479986 0.47996 0.479934 0.479907 
0.47988 0.479853 0.479825 0.479797 0.479769 0.479741 0.479713 0.479685 0.479658 
0.479631 0.479605 0.47958 0.479557 0.479534 0.479514 0.479494 0.479477 0.479462 
0.479449 0.479439 0.479431 0.479426 0.479424 0.479424 0.479428 0.479434 0.479444 
0.479457 0.479473 0.479492 0.479514 0.479538 0.479566 0.479596 0.479628 0.479663 
0.4797 0.479738 0.479778 0.47982 0.479862 0.479905 0.479948 0.479991 0.480035 
0.480077 0.480119 0.480159 0.480199 0.480236 0.480272 0.480305 0.480336 0.480364 
0.48039 0.480413 0.480433 0.48045 0.480464 0.480475 0.480483 0.480487 0.480488 
0.480486 0.480481 0.480473 0.480462 0.480448 0.480432 0.480412 0.48039 0.480365 
0.480338 0.480309 0.480277 0.480244 0.480209 0.480172 0.480135 0.480097 0.480058 
0.480019 0.47998 0.479941 0.479904 0.479867 0.479833 0.4798 0.47977 0.479743 
0.479719 0.479698 0.479681 0.479668 0.479659 0.479655 0.479654 0.479657 0.479664 
0.479674 0.479688 0.479704 0.479723 0.479744 0.479766 0.47979 0.479814 0.479839 
0.479863 0.479887 0.479911 0.479934 0.479956 0.479976 0.479996 0.480015 0.480032 
0.480048 0.480063 0.480077 0.480089 0.480101 0.480112 0.480122 0.480131 0.48014 
0.480148 0.480154 0.480161 0.480166 0.480171 0.480175 0.480179 0.480182 0.480185 
0.480187 0.480189 0.48019 0.480191 0.480192 0.480192 0.480192 0.480192 0.480192 
0.480192 0.480191 0.480191 0.48019 0.48019 0.480189 0.480188 0.480188 0.480187 
0.480187 0.480186 0.480186 0.480186 0.480186 0.480186 0.480187 0.480188 0.480189 
0.480191 0.480193 0.480196 0.480199 0.480204 0.480209 0.480216 0.480223 0.480233 
0.480244 0.480258 0.480273 0.480292 0.480314 0.480339 0.480369 0.480404 0.480445 
0.480493 0.480547 0.480611 0.480684 0.480767 0.480863 0.480972 0.481095 0.481234 
0.481389 0.48156 0.481746 0.481977 0.482256 0.484352 0.484599 0.484803 0.484992 
0.485163 0.485318 0.485457 0.485582 0.485693 0.485793 0.485882 0.485961 0.486032 
0.486095 0.486151 0.486202 0.486247 0.486287 0.486323 0.486356 0.486385 0.486411 
0.486435 0.486456 0.486476 0.486493 0.486509 0.486524 0.486537 0.486549 0.48656 
0.48657 0.486579 0.486588 0.486595 0.486603 0.486609 0.486616 0.486621 0.486627 
0.486632 0.486636 0.486641 0.486645 0.486649 0.486653 0.486656 0.48666 0.486663 
0.486666 0.486669 0.486672 0.486674 0.486677 0.48668 0.486682 0.486684 0.486687 
0.486689 0.486691 0.486693 0.486696 0.486698 0.4867 0.486702 0.486704 0.486706 
0.486708 0.486709 0.486711 0.486713 0.486715 0.486717 0.486719 0.48672 0.486722 
0.486724 0.486726 0.486727 0.486729 0.486731 0.486732 0.486734 0.486736 0.486737 
0.486739 0.48674 0.486742 0.486744 0.486745 0.486747 0.486748 0.48675 0.486751 
0.486708 0.486685 0.482437 0.479986 0.47996 0.479934 0.479907 0.47988 0.479852 
0.479824 0.479796 0.479767 0.479739 0.47971 0.479682 0.479655 0.479628 0.479601 
0.479576 0.479552 0.479529 0.479508 0.479489 0.479471 0.479456 0.479442 0.479432 
0.479424 0.479418 0.479416 0.479416 0.479419 0.479426 0.479435 0.479448 0.479464 
0.479483 0.479505 0.47953 0.479558 0.479588 0.479621 0.479656 0.479694 0.479733 
0.479773 0.479815 0.479858 0.479902 0.479946 0.47999 0.480034 0.480078 0.48012 
0.480162 0.480202 0.48024 0.480276 0.480311 0.480342 0.480371 0.480398 0.480421 
0.480442 0.480459 0.480473 0.480484 0.480492 0.480496 0.480497 0.480495 0.48049 
0.480482 0.48047 0.480456 0.480439 0.480419 0.480396 0.480371 0.480343 0.480313 
0.480281 0.480247 0.480211 0.480173 0.480135 0.480096 0.480056 0.480016 0.479976 
0.479936 0.479898 0.47986 0.479825 0.479791 0.47976 0.479732 0.479708 0.479687 
0.47967 0.479656 0.479648 0.479643 0.479642 0.479646 0.479654 0.479665 0.47968 
0.479697 0.479717 0.479739 0.479763 0.479787 0.479813 0.479838 0.479864 0.479889 
0.479913 0.479936 0.479959 0.47998 0.479999 0.480018 0.480035 0.480051 0.480066 
0.48008 0.480092 0.480104 0.480115 0.480125 0.480134 0.480142 0.48015 0.480157 
0.480163 0.480168 0.480173 0.480177 0.480181 0.480184 0.480186 0.480188 0.48019 
0.480191 0.480192 0.480193 0.480193 0.480193 0.480193 0.480193 0.480192 0.480192 
0.480191 0.48019 0.48019 0.480189 0.480188 0.480188 0.480187 0.480187 0.480186 
0.480186 0.480186 0.480186 0.480186 0.480186 0.480187 0.480188 0.480189 0.480191 
0.480194 0.480197 0.480201 0.480206 0.480212 0.480219 0.480228 0.480238 0.48025 
0.480265 0.480282 0.480303 0.480327 0.480354 0.480387 0.480425 0.48047 0.480521 
0.480581 0.48065 0.480729 0.48082 0.480925 0.481043 0.481178 0.481329 0.481498 
0.481683 0.481908 0.482159 0.484352 0.484607 0.484817 0.485009 0.485183 0.485339 
0.485479 0.485603 0.485714 0.485813 0.485901 0.485979 0.486048 0.48611 0.486165 
0.486214 0.486258 0.486297 0.486332 0.486364 0.486392 0.486418 0.486441 0.486462 
0.486481 0.486498 0.486513 0.486527 0.48654 0.486552 0.486562 0.486572 0.486581 
0.48659 0.486597 0.486604 0.486611 0.486617 0.486622 0.486628 0.486633 0.486637 
0.486642 0.486646 0.48665 0.486653 0.486657 0.48666 0.486663 0.486666 0.486669 
0.486672 0.486675 0.486677 0.48668 0.486682 0.486685 0.486687 0.486689 0.486691 
0.486694 0.486696 0.486698 0.4867 0.486702 0.486704 0.486706 0.486708 0.48671 
0.486711 0.486713 0.486715 0.486717 0.486719 0.48672 0.486722 0.486724 0.486726 
0.486727 0.486729 0.486731 0.486732 0.486734 0.486736 0.486737 0.486739 0.48674 
0.486742 0.486744 0.486745 0.486747 0.486748 0.48675 0.486751 0.486708 0.486685 
0.482437 0.479986 0.47996 0.479934 0.479907 0.479879 0.479851 0.479823 0.479794 
0.479765 0.479736 0.479708 0.479679 0.479651 0.479623 0.479597 0.479571 0.479546 
0.479523 0.479501 0.479481 0.479463 0.479447 0.479433 0.479422 0.479413 0.479408 
0.479405 0.479405 0.479408 0.479414 0.479424 0.479437 0.479453 0.479472 0.479494 
0.479519 0.479548 0.479578 0.479612 0.479648 0.479686 0.479725 0.479767 0.47981 
0.479854 0.479899 0.479944 0.479989 0.480034 0.480079 0.480123 0.480165 0.480206 
0.480246 0.480283 0.480318 0.480351 0.48038 0.480408 0.480432 0.480452 0.48047 
0.480485 0.480496 0.480504 0.480508 0.480509 0.480507 0.480501 0.480493 0.480481 
0.480466 0.480448 0.480428 0.480404 0.480378 0.48035 0.480319 0.480285 0.48025 
0.480213 0.480175 0.480135 0.480095 0.480053 0.480012 0.47997 0.47993 0.47989 
0.479851 0.479814 0.479779 0.479747 0.479719 0.479693 0.479671 0.479654 0.47964 
0.479631 0.479627 0.479627 0.479632 0.47964 0.479653 0.479669 0.479688 0.479709 
0.479733 0.479758 0.479784 0.479811 0.479838 0.479865 0.479891 0.479916 0.47994 
0.479963 0.479984 0.480004 0.480022 0.48004 0.480055 0.48007 0.480084 0.480096 
0.480108 0.480118 0.480128 0.480137 0.480145 0.480153 0.480159 0.480165 0.480171 
0.480176 0.48018 0.480183 0.480186 0.480188 0.48019 0.480192 0.480193 0.480194 
0.480194 0.480194 0.480194 0.480194 0.480193 0.480193 0.480192 0.480191 0.480191 
0.48019 0.480189 0.480188 0.480188 0.480187 0.480186 0.480186 0.480185 0.480185 
0.480185 0.480185 0.480185 0.480185 0.480186 0.480187 0.480189 0.480191 0.480194 
0.480197 0.480201 0.480207 0.480213 0.480221 0.48023 0.480241 0.480254 0.48027 
0.480288 0.48031 0.480335 0.480365 0.480399 0.48044 0.480487 0.480542 0.480606 
0.480679 0.480764 0.480862 0.480974 0.481102 0.481247 0.481411 0.481591 0.481808 
0.482047 0.484353 0.484619 0.484837 0.485034 0.48521 0.485368 0.485508 0.485632 
0.485742 0.485839 0.485925 0.486002 0.486069 0.486129 0.486183 0.48623 0.486272 
0.48631 0.486344 0.486375 0.486402 0.486427 0.486449 0.486469 0.486487 0.486503 
0.486518 0.486532 0.486544 0.486556 0.486566 0.486575 0.486584 0.486592 0.486599 
0.486606 0.486613 0.486619 0.486624 0.486629 0.486634 0.486638 0.486643 0.486647 
0.48665 0.486654 0.486657 0.486661 0.486664 0.486667 0.48667 0.486672 0.486675 
0.486678 0.48668 0.486683 0.486685 0.486687 0.486689 0.486692 0.486694 0.486696 
0.486698 0.4867 0.486702 0.486704 0.486706 0.486708 0.48671 0.486711 0.486713 
0.486715 0.486717 0.486719 0.48672 0.486722 0.486724 0.486726 0.486727 0.486729 
0.486731 0.486732 0.486734 0.486736 0.486737 0.486739 0.48674 0.486742 0.486744 
0.486745 0.486747 0.486748 0.48675 0.486751 0.486708 0.486685 0.482437 0.479986 
0.47996 0.479933 0.479906 0.479878 0.47985 0.479821 0.479792 0.479763 0.479734 
0.479704 0.479675 0.479646 0.479618 0.479591 0.479564 0.479539 0.479515 0.479492 
0.479471 0.479453 0.479436 0.479422 0.47941 0.479401 0.479395 0.479392 0.479392 
0.479394 0.479401 0.47941 0.479423 0.479439 0.479458 0.479481 0.479506 0.479535 
0.479566 0.4796 0.479637 0.479676 0.479717 0.479759 0.479803 0.479848 0.479894 
0.479941 0.479987 0.480034 0.48008 0.480125 0.480169 0.480212 0.480252 0.480291 
0.480327 0.480361 0.480392 0.48042 0.480444 0.480466 0.480484 0.480499 0.48051 
0.480518 0.480522 0.480523 0.480521 0.480515 0.480506 0.480494 0.480479 0.48046 
0.480439 0.480414 0.480387 0.480358 0.480325 0.480291 0.480255 0.480216 0.480176 
0.480135 0.480093 0.48005 0.480007 0.479964 0.479921 0.479879 0.479839 0.479801 
0.479765 0.479731 0.479701 0.479674 0.479652 0.479634 0.47962 0.479611 0.479607 
0.479608 0.479614 0.479624 0.479638 0.479655 0.479676 0.4797 0.479725 0.479753 
0.479781 0.47981 0.479839 0.479867 0.479894 0.47992 0.479945 0.479968 0.479989 
0.48001 0.480028 0.480045 0.480061 0.480075 0.480089 0.480101 0.480112 0.480123 
0.480132 0.480141 0.480149 0.480156 0.480163 0.480169 0.480174 0.480179 0.480183 
0.480186 0.480189 0.480191 0.480193 0.480194 0.480195 0.480195 0.480195 0.480195 
0.480195 0.480194 0.480194 0.480193 0.480192 0.480192 0.480191 0.48019 0.480189 
0.480188 0.480188 0.480187 0.480186 0.480186 0.480185 0.480184 0.480184 0.480184 
0.480184 0.480184 0.480184 0.480185 0.480186 0.480188 0.48019 0.480193 0.480196 
0.480201 0.480206 0.480213 0.480221 0.48023 0.480242 0.480255 0.480271 0.48029 
0.480312 0.480338 0.480368 0.480404 0.480446 0.480495 0.480552 0.480618 0.480695 
0.480784 0.480888 0.481007 0.481144 0.481298 0.481471 0.48168 0.481926 0.484356 
0.484636 0.484863 0.485067 0.485247 0.485406 0.485546 0.48567 0.485778 0.485873 
0.485956 0.48603 0.486096 0.486153 0.486204 0.48625 0.486291 0.486327 0.486359 
0.486388 0.486414 0.486438 0.486459 0.486478 0.486495 0.486511 0.486525 0.486538 
0.48655 0.48656 0.48657 0.486579 0.486588 0.486595 0.486602 0.486609 0.486615 
0.486621 0.486626 0.486631 0.486635 0.48664 0.486644 0.486648 0.486651 0.486655 
0.486658 0.486661 0.486664 0.486667 0.48667 0.486673 0.486675 0.486678 0.48668 
0.486683 0.486685 0.486687 0.48669 0.486692 0.486694 0.486696 0.486698 0.4867 
0.486702 0.486704 0.486706 0.486708 0.48671 0.486712 0.486713 0.486715 0.486717 
0.486719 0.48672 0.486722 0.486724 0.486726 0.486727 0.486729 0.486731 0.486732 
0.486734 0.486736 0.486737 0.486739 0.48674 0.486742 0.486744 0.486745 0.486747 
0.486748 0.48675 0.486751 0.486708 0.486685 0.482437 0.479986 0.47996 0.479933 
0.479906 0.479878 0.479849 0.47982 0.47979 0.479761 0.479731 0.479701 0.479671 
0.479641 0.479612 0.479584 0.479557 0.47953 0.479505 0.479482 0.479461 0.479441 
0.479424 0.479409 0.479397 0.479387 0.47938 0.479377 0.479376 0.479379 0.479385 
0.479394 0.479407 0.479423 0.479442 0.479465 0.479491 0.479521 0.479553 0.479587 
0.479625 0.479664 0.479706 0.47975 0.479795 0.479842 0.479889 0.479937 0.479985 
0.480034 0.480081 0.480128 0.480174 0.480218 0.48026 0.4803 0.480338 0.480373 
0.480405 0.480433 0.480459 0.480481 0.4805 0.480515 0.480527 0.480535 0.480539 
0.48054 0.480537 0.480531 0.480522 0.480509 0.480493 0.480474 0.480451 0.480426 
0.480398 0.480367 0.480333 0.480297 0.480259 0.480219 0.480178 0.480135 0.480091 
0.480046 0.480001 0.479956 0.479911 0.479867 0.479825 0.479785 0.479747 0.479712 
0.47968 0.479652 0.479629 0.47961 0.479596 0.479587 0.479584 0.479585 0.479592 
0.479604 0.47962 0.479639 0.479663 0.479689 0.479717 0.479747 0.479778 0.479809 
0.479839 0.479869 0.479898 0.479925 0.479951 0.479974 0.479996 0.480017 0.480035 
0.480052 0.480067 0.480082 0.480094 0.480106 0.480117 0.480127 0.480137 0.480145 
0.480153 0.48016 0.480167 0.480173 0.480178 0.480182 0.480186 0.480189 0.480192 
0.480194 0.480195 0.480196 0.480197 0.480197 0.480197 0.480197 0.480196 0.480195 
0.480195 0.480194 0.480193 0.480192 0.480191 0.48019 0.480189 0.480188 0.480188 
0.480187 0.480186 0.480185 0.480184 0.480184 0.480183 0.480183 0.480182 0.480182 
0.480182 0.480182 0.480183 0.480184 0.480186 0.480188 0.48019 0.480194 0.480198 
0.480204 0.48021 0.480218 0.480227 0.480238 0.480251 0.480267 0.480285 0.480307 
0.480333 0.480363 0.480399 0.48044 0.480489 0.480547 0.480614 0.480693 0.480785 
0.480892 0.481018 0.481161 0.481324 0.481531 0.481804 0.484362 0.484661 0.484899 
0.48511 0.485294 0.485454 0.485594 0.485715 0.485821 0.485913 0.485994 0.486065 
0.486127 0.486182 0.486231 0.486274 0.486312 0.486346 0.486377 0.486404 0.486428 
0.48645 0.48647 0.486488 0.486504 0.486519 0.486533 0.486545 0.486556 0.486566 
0.486575 0.486584 0.486592 0.486599 0.486606 0.486612 0.486618 0.486623 0.486628 
0.486633 0.486637 0.486641 0.486645 0.486649 0.486653 0.486656 0.486659 0.486662 
0.486665 0.486668 0.486671 0.486673 0.486676 0.486678 0.486681 0.486683 0.486685 
0.486688 0.48669 0.486692 0.486694 0.486696 0.486698 0.4867 0.486702 0.486704 
0.486706 0.486708 0.48671 0.486712 0.486713 0.486715 0.486717 0.486719 0.486721 
0.486722 0.486724 0.486726 0.486727 0.486729 0.486731 0.486732 0.486734 0.486736 
0.486737 0.486739 0.486741 0.486742 0.486744 0.486745 0.486747 0.486748 0.48675 
0.486751 0.486708 0.486685 0.482437 0.479986 0.47996 0.479933 0.479905 0.479877 
0.479848 0.479818 0.479788 0.479758 0.479727 0.479696 0.479666 0.479635 0.479606 
0.479576 0.479548 0.479521 0.479495 0.479471 0.479449 0.479428 0.47941 0.479395 
0.479382 0.479371 0.479364 0.47936 0.479359 0.479361 0.479367 0.479376 0.479389 
0.479405 0.479425 0.479448 0.479475 0.479505 0.479537 0.479573 0.479611 0.479652 
0.479695 0.47974 0.479786 0.479834 0.479883 0.479933 0.479983 0.480033 0.480083 
0.480132 0.480179 0.480225 0.480269 0.480311 0.48035 0.480386 0.480419 0.480449 
0.480476 0.480499 0.480518 0.480534 0.480546 0.480554 0.480558 0.480559 0.480556 
0.480549 0.480539 0.480526 0.480509 0.480489 0.480465 0.480439 0.480409 0.480377 
0.480342 0.480304 0.480265 0.480223 0.480179 0.480134 0.480088 0.480041 0.479994 
0.479946 0.479899 0.479853 0.479809 0.479766 0.479726 0.479689 0.479656 0.479626 
0.479602 0.479582 0.479568 0.479559 0.479556 0.479559 0.479567 0.479581 0.479599 
0.479621 0.479648 0.479677 0.479708 0.479741 0.479775 0.479808 0.479841 0.479873 
0.479903 0.479932 0.479958 0.479982 0.480005 0.480025 0.480043 0.48006 0.480075 
0.480088 0.480101 0.480112 0.480123 0.480133 0.480142 0.48015 0.480158 0.480165 
0.480171 0.480177 0.480182 0.480186 0.48019 0.480193 0.480195 0.480197 0.480198 
0.480199 0.480199 0.480199 0.480199 0.480198 0.480197 0.480196 0.480195 0.480194 