# vtk DataFile Version 5.1
vtk output
ASCII
DATASET UNSTRUCTURED_GRID
POINTS 10043 double
-10.1 1.4499999993 7.5966234192e-08 -10.049999999 1.4499999993 9.0079772974e-08 -10.049999999 1.5 -3.5011566979e-07 
-9.9999999985 1.4499999993 9.3647720689e-08 -9.9999999985 1.5 -3.5856669456e-07 -9.9499999978 1.4499999993 9.382780064e-08 
-9.9499999978 1.5 -3.5875314097e-07 -9.899999997 1.4499999993 9.331120765e-08 -9.899999997 1.5 -3.5646758079e-07 
-9.8499999963 1.4499999993 9.2503576354e-08 -9.8499999963 1.5 -3.5344780258e-07 -9.7999999955 1.4499999993 9.1680483649e-08 
-9.7999999955 1.5 -3.5018115341e-07 -9.7499999948 1.4499999993 9.0857390944e-08 -9.7499999948 1.5 -3.4689878703e-07 
-9.699999994 1.4499999993 9.0027931776e-08 -9.699999994 1.5 -3.438146905e-07 -9.6499999933 1.4499999993 8.9220300481e-08 
-9.6499999933 1.5 -3.4090248846e-07 -9.5999999925 1.4499999993 8.8516351582e-08 -9.5999999925 1.5 -3.3815035749e-07 
-9.5499999918 1.4499999993 8.785242045e-08 -9.5499999918 1.5 -3.3557103052e-07 -9.4999999911 1.4499999993 8.7279438787e-08 
-9.4999999911 1.5 -3.3324545257e-07 -9.4499999903 1.4499999993 8.6665529864e-08 -9.4499999903 1.5 -3.3107176023e-07 
-9.3999999896 1.4499999993 8.6117104559e-08 -9.3999999896 1.5 -3.2906632441e-07 -9.3499999888 1.4499999993 8.5657809734e-08 
-9.3499999888 1.5 -3.2721277421e-07 -9.2999999881 1.4499999993 8.5206700362e-08 -9.2999999881 1.5 -3.2556749829e-07 
-9.2499999873 1.4499999993 8.4829260061e-08 -9.2499999873 1.5 -3.2402954275e-07 -9.1999999866 1.4499999993 8.4430901381e-08 
-9.1999999866 1.5 -3.2260373928e-07 -9.1499999858 1.4499999993 8.4100754805e-08 -9.1499999858 1.5 -3.2135199035e-07 
-9.0999999851 1.4499999993 8.3799712058e-08 -9.0999999851 1.5 -3.2018965612e-07 -9.0499999844 1.4499999993 8.3531411121e-08 
-9.0499999844 1.5 -3.1909644349e-07 -8.9999999836 1.4499999993 8.3297670983e-08 -8.9999999836 1.5 -3.1820422919e-07 
-8.9499999829 1.4499999993 8.3090306191e-08 -8.9499999829 1.5 -3.1739614315e-07 -8.8999999821 1.4499999993 8.2907952503e-08 
-8.8999999821 1.5 -3.1667627809e-07 -8.8499999814 1.4499999993 8.2735603257e-08 -8.8499999814 1.5 -3.1606646189e-07 
-8.7999999806 1.4499999993 8.2584627137e-08 -8.7999999806 1.5 -3.1549711821e-07 -8.7499999799 1.4499999993 8.2456843131e-08 
-8.7499999799 1.5 -3.1508147913e-07 -8.6999999791 1.4499999993 8.2434560511e-08 -8.6999999791 1.5 -3.1484501051e-07 
-8.6499999784 1.4499999993 8.2303138527e-08 -8.6499999784 1.5 -3.1456670513e-07 -8.5999999776 1.4499999993 8.2261756518e-08 
-8.5999999776 1.5 -3.1429249248e-07 -8.5499999769 1.4499999993 8.2229014708e-08 -8.5499999769 1.5 -3.1411559576e-07 
-8.4999999762 1.4499999993 8.2215827035e-08 -8.4999999762 1.5 -3.1406284506e-07 -8.4499999754 1.4499999993 8.2217646025e-08 
-8.4499999754 1.5 -3.1402009881e-07 -8.3999999747 1.4499999993 8.2206732088e-08 -8.3999999747 1.5 -3.1407694223e-07 
-8.3499999739 1.4499999993 8.2272215707e-08 -8.3499999739 1.5 -3.1421063795e-07 -8.2999999732 1.4499999993 8.2299500548e-08 
-8.2999999732 1.5 -3.1443755688e-07 -8.2499999724 1.4499999993 8.2368167398e-08 -8.2499999724 1.5 -3.1465401662e-07 
-8.1999999717 1.4499999993 8.2463209594e-08 -8.1999999717 1.5 -3.1499075703e-07 -8.1499999709 1.4499999993 8.2572348958e-08 
-8.1499999709 1.5 -3.1535932976e-07 -8.0999999702 1.4499999993 8.2687854785e-08 -8.0999999702 1.5 -3.1583817872e-07 
-8.0499999695 1.4499999993 8.2818367275e-08 -8.0499999695 1.5 -3.1633112485e-07 -7.9999999687 1.4499999993 8.2925232903e-08 
-7.9999999687 1.5 -3.1694867175e-07 -7.949999968 1.4499999993 8.3078937507e-08 -7.949999968 1.5 -3.1757213037e-07 
-7.8999999672 1.4499999993 8.3319498856e-08 -7.8999999672 1.5 -3.1826061786e-07 -7.8499999665 1.4499999993 8.3490029112e-08 
-7.8499999665 1.5 -3.1906733966e-07 -7.7999999657 1.4499999993 8.3715129051e-08 -7.7999999657 1.5 -3.1988679439e-07 
-7.749999965 1.4499999993 8.393340778e-08 -7.749999965 1.5 -3.2079219636e-07 -7.6999999642 1.4499999993 8.420625619e-08 
-7.6999999642 1.5 -3.2170942177e-07 -7.6499999635 1.4499999993 8.448092359e-08 -7.6499999635 1.5 -3.2271259442e-07 
-7.5999999627 1.4499999993 8.4725122917e-08 -7.5999999627 1.5 -3.2385946724e-07 -7.549999962 1.4499999993 8.5042991316e-08 
-7.549999962 1.5 -3.2493792901e-07 -7.4999999613 1.4499999993 8.5367226177e-08 -7.4999999613 1.5 -3.2615366763e-07 
-7.4499999605 1.4499999993 8.5698736996e-08 -7.4499999605 1.5 -3.2743969314e-07 -7.3999999598 1.4499999993 8.6026155088e-08 
-7.3999999598 1.5 -3.2876982914e-07 -7.349999959 1.4499999993 8.6404050137e-08 -7.349999959 1.5 -3.3015089684e-07 
-7.2999999583 1.4499999993 8.6809230027e-08 -7.2999999583 1.5 -3.3164837987e-07 -7.2499999575 1.4499999993 8.7205769717e-08 
-7.2499999575 1.5 -3.3316632653e-07 -7.1999999568 1.4499999993 8.7597307186e-08 -7.1999999568 1.5 -3.3479159356e-07 
-7.149999956 1.4499999993 8.8083886851e-08 -7.149999956 1.5 -3.3646006159e-07 -7.0999999553 1.4499999993 8.8316262747e-08 
-7.0999999553 1.5 -3.3734545468e-07 -7.0499999546 1.4499999993 8.8747363236e-08 -7.0499999546 1.5 -3.3914989217e-07 
-6.9999999538 1.4499999993 8.9268048953e-08 -6.9999999538 1.5 -3.4105892155e-07 -6.9499999531 1.4499999993 8.9767361544e-08 
-6.9499999531 1.5 -3.4299614526e-07 -6.8999999523 1.4499999993 9.0306237155e-08 -6.8999999523 1.5 -3.4503023016e-07 
-6.8499999516 1.4499999993 9.0873761849e-08 -6.8499999516 1.5 -3.4719255382e-07 -6.7999999508 1.4499999993 9.14485625e-08 
-6.7999999508 1.5 -3.4943764149e-07 -6.7499999501 1.4499999993 9.2051557488e-08 -6.7499999501 1.5 -3.5176367419e-07 
-6.6999999493 1.4499999993 9.2712305388e-08 -6.6999999493 1.5 -3.5417792787e-07 -6.6499999486 1.4499999993 9.3384421973e-08 
-6.6499999486 1.5 -3.5672860577e-07 -6.5999999478 1.4499999993 9.4048353105e-08 -6.5999999478 1.5 -3.5937159737e-07 
-6.5499999471 1.4499999993 9.480277896e-08 -6.5499999471 1.5 -3.6212571786e-07 -6.4999999464 1.4499999993 9.5570847236e-08 
-6.4999999464 1.5 -3.6501728573e-07 -6.4499999456 1.4499999993 9.6319361376e-08 -6.4499999456 1.5 -3.6805818127e-07 
-6.3999999449 1.4499999993 9.7174286395e-08 -6.3999999449 1.5 -3.7122185859e-07 -6.3499999441 1.4499999993 9.8049675046e-08 
-6.3499999441 1.5 -3.7455788515e-07 -6.2999999434 1.4499999993 9.8934613391e-08 -6.2999999434 1.5 -3.7803897612e-07 
-6.2499999426 1.4499999993 9.9890492322e-08 -6.2499999426 1.5 -3.8169923755e-07 -6.1999999419 1.4499999993 1.0091140012e-07 
-6.1999999419 1.5 -3.8552889237e-07 -6.1499999411 1.4499999993 1.0198096589e-07 -6.1499999411 1.5 -3.8957841753e-07 
-6.0999999404 1.4499999993 1.030744059e-07 -6.0999999404 1.5 -3.9383076e-07 -6.0499999397 1.4499999993 1.0425402053e-07 
-6.0499999397 1.5 -3.9834958443e-07 -5.9999999389 1.4499999993 1.054868406e-07 -5.9999999389 1.5 -4.0310874283e-07 
-5.9499999382 1.4499999993 1.0681811347e-07 -5.9499999382 1.5 -4.0811096369e-07 -5.8999999374 1.4499999993 1.0820827612e-07 
-5.8999999374 1.5 -4.1346885382e-07 -5.8499999367 1.4499999993 1.0969529995e-07 -5.8499999367 1.5 -4.1916291593e-07 
-5.7999999359 1.4499999993 1.1128486932e-07 -5.7999999359 1.5 -4.2519650378e-07 -5.7499999352 1.4499999993 1.1297039038e-07 
-5.7499999352 1.5 -4.3161435315e-07 -5.6999999344 1.4499999993 1.1477323625e-07 -5.6999999344 1.5 -4.3853287934e-07 
-5.6499999337 1.4499999993 1.1671318845e-07 -5.6499999337 1.5 -4.4593593884e-07 -5.5999999329 1.4499999993 1.1880116091e-07 
-5.5999999329 1.5 -4.5386582315e-07 -5.5499999322 1.4499999993 1.1990779569e-07 -5.5499999322 1.5 -4.5806075377e-07 
-5.4999999315 1.4499999993 1.2221109102e-07 -5.4999999315 1.5 -4.6696231948e-07 -5.4499999307 1.4499999993 1.2472675337e-07 
-5.4499999307 1.5 -4.7660250857e-07 -5.39999993 1.4499999993 1.2747501899e-07 -5.39999993 1.5 -4.8703213906e-07 
-5.3499999292 1.4499999993 1.304417907e-07 -5.3499999292 1.5 -4.9841764849e-07 -5.2999999285 1.4499999993 1.3370119234e-07 
-5.2999999285 1.5 -5.1081974561e-07 -5.2499999277 1.4499999993 1.3725890824e-07 -5.2499999277 1.5 -5.2442396736e-07 
-5.199999927 1.4499999993 1.4118019465e-07 -5.199999927 1.5 -5.3940198086e-07 -5.1499999262 1.4499999993 1.4549529226e-07 
-5.1499999262 1.5 -5.5590521697e-07 -5.0999999255 1.4499999993 1.5028150813e-07 -5.0999999255 1.5 -5.7419379118e-07 
-5.0499999247 1.4499999993 1.5560796385e-07 -5.0499999247 1.5 -5.9451713241e-07 -4.999999924 1.4499999993 1.6155696869e-07 
-4.999999924 1.5 -6.1721380007e-07 -4.9499999233 1.4499999993 1.68220609e-07 -4.9499999233 1.5 -6.4265873334e-07 
-4.8999999225 1.4499999993 1.7572848776e-07 -4.8999999225 1.5 -6.7132066306e-07 -4.8499999218 1.4499999993 1.842186208e-07 
-4.8499999218 1.5 -7.0373766903e-07 -4.799999921 1.4499999993 1.9387563555e-07 -4.799999921 1.5 -7.4057629718e-07 
-4.7499999203 1.4499999993 2.0492826991e-07 -4.7499999203 1.5 -7.8267635217e-07 -4.6999999195 1.4499999993 2.1759707636e-07 
-4.6999999195 1.5 -8.3102236204e-07 -4.6499999188 1.4499999993 2.3224107792e-07 -4.6499999188 1.5 -8.8686806521e-07 
-4.599999918 1.4499999993 2.4927885534e-07 -4.599999918 1.5 -9.5177324511e-07 -4.5499999173 1.4499999993 2.6919815355e-07 
-4.5499999173 1.5 -1.0277037745e-06 -4.4999999166 1.4499999993 2.9266925594e-07 -4.4999999166 1.5 -1.11708232e-06 
-4.4499999158 1.4499999993 3.2050979826e-07 -4.4499999158 1.5 -1.2231273558e-06 -4.3999999151 1.4499999993 3.5382004171e-07 
-4.3999999151 1.5 -1.3499836768e-06 -4.3499999143 1.4499999993 3.940751867e-07 -4.3499999143 1.5 -1.5030591385e-06 
-4.2999999136 1.4499999993 4.4311843794e-07 -4.2999999136 1.5 -1.6895775161e-06 -4.2499999128 1.4499999993 5.0360745263e-07 
-4.2499999128 1.5 -1.9193489607e-06 -4.1999999121 1.4499999993 5.7909596762e-07 -4.1999999121 1.5 -2.2058982267e-06 
-4.1499999113 1.4499999993 6.7466055498e-07 -4.1499999113 1.5 -2.5682988962e-06 -4.0999999106 1.4499999993 7.9765379724e-07 
-4.0999999106 1.5 -3.0340597732e-06 -4.0499999098 1.4499999993 9.590269201e-07 -4.0499999098 1.5 -3.6440421809e-06 
-3.9999999091 1.4499999993 1.1756841332e-06 -3.9999999091 1.5 -4.4611479098e-06 -3.9499999084 1.4499999993 1.3126763179e-06 
[...]
CELL_DATA 9510
FIELD FieldData 4
Water_Depth_m 1 9510 float
0.760005 0.760017 0.76003 0.760043 0.760056 0.760069 0.760084 0.760098 0.760113 
0.760129 0.760145 0.760162 0.760179 0.760196 0.760214 0.760232 0.76025 0.760268 
0.760285 0.760303 0.76032 0.760336 0.760351 0.760366 0.76038 0.760393 0.760404 
0.760414 0.760423 0.760429 0.760435 0.760438 0.76044 0.76044 0.760437 0.760433 
0.760426 0.760418 0.760407 0.760394 0.760379 0.760362 0.760344 0.760323 0.760301 
0.760277 0.760252 0.760226 0.760199 0.760172 0.760144 0.760117 0.76009 0.760065 
0.760041 0.760019 0.759999 0.759982 0.759968 0.759957 0.759951 0.759948 0.759949 
0.759955 0.759965 0.759979 0.759998 0.76002 0.760047 0.760077 0.760109 0.760144 
0.760181 0.76022 0.760259 0.760299 0.760339 0.760378 0.760415 0.760452 0.760486 
0.760519 0.760549 0.760576 0.760601 0.760624 0.760643 0.76066 0.760674 0.760686 
0.760695 0.760702 0.760706 0.760709 0.76071 0.760709 0.760707 0.760703 0.760698 
0.760692 0.760686 0.760678 0.760671 0.760663 0.760655 0.760647 0.760639 0.760632 
0.760626 0.760621 0.760616 0.760614 0.760613 0.760614 0.760617 0.760624 0.760633 
0.760647 0.760664 0.760686 0.760714 0.760748 0.760788 0.760837 0.760894 0.760962 
0.761041 0.761135 0.761249 0.761418 0.761725 0.761672 0.756223 0.742854 0.723331 
0.699328 0.672143 0.642902 0.612657 0.582413 0.553706 0.527407 0.504563 0.486678 
0.475704 0.473975 0.474114 0.474241 0.474358 0.474465 0.474563 0.474652 0.474734 
0.47481 0.474882 0.474951 0.475018 0.475083 0.475304 0.475246 0.471616 0.45903 
0.449167 0.446609 0.446405 0.445982 0.446992 0.449688 0.453337 0.456498 0.458009 
0.459345 0.461362 0.464075 0.467306 0.469989 0.470184 0.471218 0.474829 0.478541 
0.485585 0.492442 0.493137 0.494672 0.497178 0.499832 0.504179 0.50902 0.518343 
0.526852 0.537322 0.544951 0.552905 0.554975 0.558667 0.559364 0.553834 0.548915 
0.48651 0.488324 0.489341 0.489492 0.489183 0.49054 0.491315 0.491084 0.484864 
0.476823 0.47679 0.476845 0.476895 0.476941 0.476983 0.477022 0.477058 0.477091 
0.477122 0.477151 0.477177 0.477201 0.477224 0.477244 0.477263 0.477281 0.477297 
0.477311 0.477325 0.477337 0.477349 0.47736 0.47737 0.477379 0.477388 0.477396 
0.477403 0.477411 0.477417 0.477423 0.477429 0.477435 0.47744 0.477445 0.47745 
0.477454 0.477459 0.477463 0.477467 0.477471 0.477474 0.477478 0.477481 0.477485 
0.477488 0.477491 0.477494 0.477497 0.477499 0.477502 0.477505 0.477508 0.47751 
0.477513 0.477515 0.477518 0.47752 0.477522 0.477524 0.477527 0.477529 0.477531 
0.477533 0.477535 0.477537 0.477539 0.477541 0.477543 0.477545 0.477547 0.477548 
0.47755 0.477552 0.477554 0.477555 0.477557 0.477559 0.47756 0.477562 0.477563 
0.477565 0.477566 0.477568 0.47757 0.477496 0.477484 0.471989 0.760004 0.760016 
0.760029 0.760041 0.760054 0.760068 0.760082 0.760096 0.760112 0.760127 0.760143 
0.76016 0.760177 0.760195 0.760213 0.76023 0.760249 0.760267 0.760284 0.760302 
0.760319 0.760336 0.760351 0.760366 0.76038 0.760393 0.760405 0.760415 0.760424 
0.760431 0.760437 0.760441 0.760442 0.760442 0.76044 0.760436 0.76043 0.760421 
0.76041 0.760398 0.760383 0.760366 0.760347 0.760327 0.760304 0.76028 0.760255 
0.760229 0.760201 0.760174 0.760146 0.760118 0.760091 0.760065 0.760041 0.760018 
0.759998 0.75998 0.759966 0.759955 0.759947 0.759944 0.759945 0.75995 0.75996 
0.759974 0.759992 0.760015 0.760041 0.760071 0.760104 0.760139 0.760177 0.760216 
0.760255 0.760296 0.760336 0.760375 0.760413 0.76045 0.760485 0.760518 0.760548 
0.760576 0.760602 0.760624 0.760644 0.760661 0.760675 0.760687 0.760696 0.760703 
0.760708 0.76071 0.760711 0.76071 0.760708 0.760704 0.760699 0.760693 0.760686 
0.760679 0.760671 0.760663 0.760655 0.760647 0.760639 0.760632 0.760625 0.76062 
0.760615 0.760612 0.76061 0.760611 0.760614 0.76062 0.760628 0.760641 0.760657 
0.760678 0.760704 0.760736 0.760775 0.760821 0.760875 0.760938 0.761012 0.761095 
0.761191 0.761297 0.761433 0.76145 0.756567 0.74389 0.724824 0.700931 0.673586 
0.644008 0.613321 0.58255 0.553026 0.525914 0.502694 0.48513 0.475374 0.474 
0.474132 0.474253 0.474368 0.474473 0.47457 0.474658 0.474739 0.474814 0.474885 
0.474953 0.475018 0.47508 0.475238 0.475173 0.471678 0.459232 0.449866 0.450755 
0.450796 0.450205 0.451418 0.453809 0.457351 0.460479 0.46106 0.462681 0.462819 
0.464993 0.467539 0.472108 0.477867 0.483037 0.483942 0.485921 0.490773 0.495553 
0.500498 0.5037 0.508751 0.513678 0.516665 0.521907 0.533072 0.545599 0.555324 
0.563015 0.564672 0.564344 0.55697 0.556791 0.556575 0.559304 0.505109 0.489518 
0.489602 0.489588 0.489862 0.491281 0.492097 0.491861 0.485303 0.476922 0.476766 
0.47682 0.476871 0.476919 0.476963 0.477004 0.477042 0.477077 0.47711 0.477139 
0.477167 0.477192 0.477215 0.477236 0.477256 0.477273 0.47729 0.477305 0.477319 
0.477332 0.477344 0.477355 0.477365 0.477375 0.477384 0.477392 0.4774 0.477407 
0.477414 0.47742 0.477426 0.477432 0.477437 0.477442 0.477447 0.477452 0.477456 
0.47746 0.477464 0.477468 0.477472 0.477476 0.477479 0.477482 0.477486 0.477489 
0.477492 0.477495 0.477498 0.4775 0.477503 0.477506 0.477509 0.477511 0.477514 
0.477516 0.477518 0.477521 0.477523 0.477525 0.477527 0.47753 0.477532 0.477534 
0.477536 0.477538 0.47754 0.477542 0.477544 0.477545 0.477547 0.477549 0.477551 
0.477552 0.477554 0.477556 0.477557 0.477559 0.477561 0.477562 0.477564 0.477565 
0.477567 0.477568 0.477494 0.477482 0.471985 0.760004 0.760016 0.760028 0.76004 
0.760053 0.760067 0.760081 0.760095 0.76011 0.760126 0.760142 0.760159 0.760176 
0.760194 0.760212 0.76023 0.760248 0.760267 0.760285 0.760303 0.76032 0.760337 
0.760353 0.760368 0.760383 0.760396 0.760408 0.760418 0.760427 0.760435 0.76044 
0.760444 0.760446 0.760446 0.760444 0.760439 0.760433 0.760424 0.760414 0.760401 
0.760386 0.760368 0.760349 0.760328 0.760305 0.760281 0.760255 0.760228 0.7602 
0.760172 0.760144 0.760115 0.760088 0.760061 0.760036 0.760013 0.759992 0.759973 
0.759958 0.759947 0.759939 0.759936 0.759936 0.759942 0.759951 0.759966 0.759984 
0.760007 0.760034 0.760065 0.760098 0.760135 0.760173 0.760213 0.760254 0.760295 
0.760336 0.760376 0.760415 0.760453 0.760488 0.760522 0.760553 0.760581 0.760606 
0.760629 0.760649 0.760666 0.76068 0.760692 0.760701 0.760707 0.760712 0.760714 
0.760715 0.760713 0.76071 0.760706 0.760701 0.760695 0.760688 0.76068 0.760672 
0.760663 0.760655 0.760646 0.760638 0.76063 0.760623 0.760617 0.760612 0.760608 
0.760606 0.760606 0.760609 0.760614 0.760621 0.760633 0.760648 0.760668 0.760693 
0.760723 0.76076 0.760805 0.760857 0.760918 0.76099 0.761072 0.761166 0.761274 
0.761458 0.761423 0.756691 0.744362 0.725627 0.701897 0.674521 0.644753 0.613761 
0.582641 0.552696 0.525231 0.501946 0.484696 0.475329 0.473994 0.474137 0.474266 
0.474382 0.474486 0.474581 0.474667 0.474745 0.474817 0.474884 0.474948 0.475009 
0.475067 0.475237 0.475175 0.471821 0.460051 0.452589 0.455323 0.456855 0.457876 
0.458973 0.461175 0.46336 0.465281 0.465748 0.466549 0.470113 0.473107 0.476829 
0.481209 0.486992 0.491686 0.492509 0.49414 0.498181 0.503882 0.509837 0.515933 
0.520332 0.525073 0.530156 0.538259 0.548532 0.559898 0.56664 0.570539 0.57092 
0.571019 0.575886 0.581333 0.589725 0.594069 0.532744 0.506639 0.493281 0.490578 
0.49066 0.491303 0.492144 0.491923 0.485498 0.476909 0.47677 0.476825 0.476877 
0.476925 0.476969 0.47701 0.477048 0.477083 0.477115 0.477144 0.477171 0.477196 
0.477219 0.47724 0.477259 0.477276 0.477293 0.477307 0.477321 0.477334 0.477346 
0.477357 0.477367 0.477376 0.477385 0.477393 0.477401 0.477408 0.477415 0.477421 
0.477427 0.477432 0.477438 0.477443 0.477448 0.477452 0.477457 0.477461 0.477465 
0.477469 0.477472 0.477476 0.477479 0.477483 0.477486 0.477489 0.477492 0.477495 
0.477498 0.477501 0.477503 0.477506 0.477509 0.477511 0.477514 0.477516 0.477518 
0.477521 0.477523 0.477525 0.477527 0.47753 0.477532 0.477534 0.477536 0.477538 
0.47754 0.477542 0.477544 0.477545 0.477547 0.477549 0.477551 0.477553 0.477554 
0.477556 0.477557 0.477559 0.477561 0.477562 0.477564 0.477565 0.477567 0.477568 
0.477494 0.477482 0.471986 0.760004 0.760015 0.760027 0.760039 0.760052 0.760065 
0.760079 0.760094 0.760109 0.760124 0.760141 0.760158 0.760175 0.760193 0.760211 
0.76023 0.760248 0.760267 0.760285 0.760304 0.760321 0.760339 0.760355 0.760371 
0.760386 0.760399 0.760411 0.760422 0.760432 0.760439 0.760445 0.760449 0.760451 
0.760451 0.760449 0.760445 0.760438 0.760429 0.760418 0.760405 0.76039 0.760372 
0.760352 0.76033 0.760307 0.760282 0.760255 0.760227 0.760199 0.76017 0.76014 
0.760111 0.760082 0.760055 0.760028 0.760004 0.759982 0.759963 0.759948 0.759935 
0.759927 0.759923 0.759924 0.759929 0.759939 0.759953 0.759973 0.759996 0.760024 
0.760056 0.76009 0.760128 0.760168 0.760209 0.760251 0.760294 0.760336 0.760378 
0.760418 0.760457 0.760493 0.760527 0.760559 0.760588 0.760614 0.760637 0.760656 
0.760673 0.760687 0.760699 0.760707 0.760714 0.760718 0.760719 0.760719 0.760718 
0.760714 0.76071 0.760704 0.760697 0.760689 0.760681 0.760672 0.760663 0.760654 
0.760645 0.760636 0.760628 0.76062 0.760613 0.760608 0.760603 0.7606 0.760599 
0.760601 0.760604 0.760611 0.760621 0.760635 0.760652 0.760675 0.760703 0.760738 
0.76078 0.760829 0.760887 0.760955 0.761034 0.761123 0.761224 0.7614 0.761379 
0.756716 0.744562 0.726028 0.702429 0.675068 0.645199 0.614021 0.582699 0.552538 
0.524957 0.501703 0.484601 0.475367 0.474032 0.474172 0.474298 0.47441 0.474512 
0.474604 0.474686 0.474761 0.474829 0.474892 0.474951 0.475006 0.475057 0.475204 
0.475147 0.472311 0.462098 0.456596 0.459297 0.460883 0.461996 0.463166 0.464433 
0.466513 0.468815 0.47156 0.475229 0.479049 0.482764 0.484714 0.488115 0.491515 
0.495158 0.497518 0.499961 0.504387 0.510382 0.515865 0.522152 0.526777 0.532323 
0.537559 0.544983 0.554381 0.564909 0.567898 0.570277 0.576896 0.583075 0.594035 
0.607483 0.616686 0.617464 0.552761 0.527273 0.502357 0.491633 0.491622 0.49202 
0.492839 0.492662 0.486163 0.476921 0.476774 0.47683 0.476882 0.476931 0.476975 
0.477016 0.477054 0.477089 0.477121 0.47715 0.477176 0.477201 0.477223 0.477244 
0.477262 0.47728 0.477296 0.47731 0.477324 0.477336 0.477348 0.477358 0.477368 
0.477378 0.477386 0.477394 0.477402 0.477409 0.477415 0.477422 0.477427 0.477433 
0.477438 0.477443 0.477448 0.477452 0.477457 0.477461 0.477465 0.477469 0.477472 
0.477476 0.477479 0.477483 0.477486 0.477489 0.477492 0.477495 0.477498 0.477501 
0.477503 0.477506 0.477509 0.477511 0.477514 0.477516 0.477518 0.477521 0.477523 
0.477525 0.477527 0.47753 0.477532 0.477534 0.477536 0.477538 0.47754 0.477542 
0.477544 0.477545 0.477547 0.477549 0.477551 0.477552 0.477554 0.477556 0.477557 
0.477559 0.477561 0.477562 0.477564 0.477565 0.477566 0.477568 0.477494 0.477482 
0.471985 0.760004 0.760015 0.760026 0.760038 0.76005 0.760063 0.760077 0.760091 
0.760106 0.760122 0.760139 0.760156 0.760173 0.760192 0.76021 0.760229 0.760248 
0.760267 0.760286 0.760305 0.760323 0.760341 0.760358 0.760374 0.76039 0.760404 
0.760416 0.760428 0.760437 0.760445 0.760451 0.760455 0.760458 0.760458 0.760456 
0.760451 0.760445 0.760436 0.760424 0.760411 0.760395 0.760376 0.760356 0.760333 
0.760309 0.760283 0.760256 0.760227 0.760197 0.760166 0.760136 0.760105 0.760075 
0.760046 0.760019 0.759993 0.75997 0.75995 0.759933 0.75992 0.759912 0.759907 
0.759908 0.759913 0.759923 0.759937 0.759957 0.759982 0.760011 0.760044 0.76008 
0.760119 0.760161 0.760204 0.760248 0.760292 0.760337 0.76038 0.760422 0.760462 
0.7605 0.760535 0.760568 0.760597 0.760623 0.760646 0.760666 0.760683 0.760697 
0.760708 0.760716 0.760722 0.760725 0.760727 0.760726 0.760723 0.760719 0.760714 
0.760707 0.7607 0.760691 0.760682 0.760673 0.760663 0.760653 0.760643 0.760634 
0.760625 0.760616 0.760608 0.760602 0.760596 0.760592 0.76059 0.76059 0.760592 
0.760597 0.760606 0.760617 0.760633 0.760653 0.760678 0.76071 0.760748 0.760793 
0.760847 0.760911 0.760986 0.761071 0.761169 0.761344 0.761322 0.75669 0.744622 
0.726201 0.702688 0.675352 0.645437 0.614164 0.58274 0.55248 0.524871 0.501658 
0.48462 0.475417 0.47408 0.474217 0.474339 0.474448 0.474546 0.474633 0.474712 
0.474782 0.474846 0.474903 0.474955 0.475003 0.475045 0.475156 0.475111 0.4734 
0.467685 0.463144 0.463355 0.464938 0.466279 0.467726 0.468787 0.469006 0.470725 
0.475499 0.480359 0.483972 0.486932 0.488207 0.489816 0.494008 0.497891 0.502146 
0.505952 0.509528 0.51334 0.519335 0.524269 0.530458 0.535412 0.542899 0.548284 
0.554459 0.563855 0.566429 0.568658 0.579383 0.588899 0.601893 0.619428 0.625276 
0.624845 0.57471 0.544291 0.523218 0.501536 0.492687 0.49384 0.494329 0.494088 
0.486759 0.476955 0.476783 0.47684 0.476893 0.476941 0.476986 0.477027 0.477064 
0.477098 0.477129 0.477158 0.477184 0.477208 0.47723 0.47725 0.477268 0.477285 
0.4773 0.477315 0.477328 0.47734 0.477351 0.477361 0.477371 0.47738 0.477388 
0.477396 0.477403 0.47741 0.477417 0.477423 0.477429 0.477434 0.477439 0.477444 
0.477449 0.477453 0.477457 0.477462 0.477465 0.477469 0.477473 0.477476 0.47748 
0.477483 0.477486 0.477489 0.477492 0.477495 0.477498 0.477501 0.477503 0.477506 
0.477509 0.477511 0.477514 0.477516 0.477518 0.477521 0.477523 0.477525 0.477527 
0.47753 0.477532 0.477534 0.477536 0.477538 0.47754 0.477542 0.477544 0.477545 
0.477547 0.477549 0.477551 0.477552 0.477554 0.477556 0.477557 0.477559 0.477561 
0.477562 0.477564 0.477565 0.477566 0.477568 0.477494 0.477482 0.471985 0.760003 
0.760014 0.760025 0.760036 0.760048 0.760061 0.760074 0.760088 0.760103 0.760119 
0.760136 0.760153 0.760171 0.76019 0.760209 0.760228 0.760248 0.760267 0.760287 
0.760306 0.760325 0.760343 0.760361 0.760378 0.760394 0.760409 0.760422 0.760434 
0.760444 0.760452 0.760459 0.760463 0.760466 0.760466 0.760464 0.760459 0.760452 
0.760443 0.760431 0.760417 0.760401 0.760382 0.76036 0.760337 0.760312 0.760285 
0.760256 0.760226 0.760194 0.760163 0.76013 0.760098 0.760067 0.760036 0.760007 
0.75998 0.759956 0.759934 0.759917 0.759903 0.759893 0.759888 0.759888 0.759893 
0.759903 0.759918 0.759939 0.759965 0.759995 0.76003 0.760068 0.760109 0.760153 
0.760198 0.760245 0.760291 0.760338 0.760383 0.760427 0.760469 0.760508 0.760545 
0.760578 0.760608 0.760635 0.760658 0.760678 0.760695 0.760709 0.760719 0.760727 
0.760732 0.760734 0.760735 0.760733 0.76073 0.760725 0.760719 0.760711 0.760703 
0.760694 0.760684 0.760673 0.760663 0.760652 0.760641 0.760631 0.760621 0.760611 
0.760602 0.760594 0.760588 0.760583 0.760579 0.760577 0.760578 0.760581 0.760587 
0.760596 0.760609 0.760626 0.760648 0.760675 0.760709 0.76075 0.760799 0.760857 
0.760926 0.761007 0.761099 0.761271 0.76125 0.756631 0.744603 0.726243 0.702784 
0.675473 0.645548 0.614238 0.582776 0.552479 0.524873 0.501691 0.484681 0.475484 
0.474142 0.474274 0.474392 0.474496 0.474589 0.474672 0.474745 0.47481 0.474868 
0.474919 0.474965 0.475004 0.475036 0.475108 0.475075 0.473969 0.470147 0.467093 
0.467935 0.469327 0.47063 0.471681 0.47291 0.474144 0.476223 0.479479 0.482939 
0.486703 0.489636 0.492757 0.495881 0.499651 0.504224 0.509001 0.513423 0.517753 
0.522492 0.527683 0.533613 0.539387 0.545643 0.552513 0.560259 0.560616 0.559957 
0.563105 0.567469 0.578625 0.589146 0.601235 0.617685 0.623438 0.623137 0.594799 
0.565542 0.546913 0.525792 0.502023 0.494267 0.49531 0.495048 0.487226 0.476977 
0.476794 0.476853 0.476906 0.476955 0.477 0.47704 0.477077 0.47711 0.477141 
0.477168 0.477194 0.477217 0.477238 0.477257 0.477275 0.477291 0.477306 0.47732 
0.477332 0.477344 0.477355 0.477365 0.477374 0.477383 0.477391 0.477398 0.477406 
0.477412 0.477419 0.477424 0.47743 0.477435 0.47744 0.477445 0.47745 0.477454 
0.477458 0.477462 0.477466 0.47747 0.477473 0.477477 0.47748 0.477483 0.477487 
0.47749 0.477493 0.477495 0.477498 0.477501 0.477504 0.477506 0.477509 0.477511 
0.477514 0.477516 0.477519 0.477521 0.477523 0.477525 0.477527 0.47753 0.477532 
0.477534 0.477536 0.477538 0.47754 0.477542 0.477544 0.477545 0.477547 0.477549 
0.477551 0.477552 0.477554 0.477556 0.477557 0.477559 0.477561 0.477562 0.477564 
0.477565 0.477566 0.477568 0.477494 0.477482 0.471985 0.760003 0.760013 0.760023 
0.760034 0.760045 0.760057 0.760071 0.760085 0.7601 0.760116 0.760133 0.76015 
0.760168 0.760187 0.760207 0.760227 0.760247 0.760267 0.760287 0.760307 0.760327 
0.760346 0.760365 0.760382 0.760399 0.760414 0.760428 0.760441 0.760451 0.76046 
0.760467 0.760472 0.760475 0.760475 0.760473 0.760468 0.760461 0.760452 0.760439 
0.760425 0.760407 0.760388 0.760366 0.760341 0.760315 0.760286 0.760256 0.760224 
0.760192 0.760158 0.760124 0.760091 0.760057 0.760025 0.759994 0.759966 0.759939 
0.759917 0.759897 0.759882 0.759872 0.759866 0.759865 0.75987 0.759881 0.759897 
0.759918 0.759945 0.759977 0.760014 0.760054 0.760098 0.760144 0.760192 0.760241 
0.76029 0.760339 0.760387 0.760433 0.760477 0.760518 0.760556 0.76059 0.760621 
0.760648 0.760672 0.760692 0.760708 0.760722 0.760732 0.760739 0.760743 0.760745 
0.760744 0.760741 0.760737 0.760731 0.760724 0.760715 0.760706 0.760696 0.760685 
0.760674 0.760662 0.76065 0.760638 0.760627 0.760616 0.760605 0.760595 0.760586 
0.760578 0.760571 0.760566 0.760563 0.760562 0.760562 0.760566 0.760573 0.760582 
0.760596 0.760614 0.760637 0.760665 0.760701 0.760744 0.760796 0.760858 0.760931 
0.761017 0.761184 0.761162 0.756549 0.744539 0.726211 0.702788 0.675501 0.645586 
0.614276 0.582814 0.552513 0.524921 0.501762 0.484764 0.475564 0.474217 0.474344 
0.474456 0.474554 0.474641 0.474717 0.474785 0.474844 0.474896 0.474941 0.474979 
0.47501 0.475034 0.47508 0.475059 0.474218 0.471191 0.470542 0.472203 0.473518 
0.474542 0.475856 0.477577 0.481057 0.484409 0.48614 0.488857 0.492776 0.496435 
0.499902 0.5032 0.507464 0.512393 0.517927 0.523294 0.527619 0.532238 0.538088 
0.544493 0.550337 0.556207 0.560842 0.563726 0.569844 0.574588 0.578559 0.582048 
0.585764 0.59258 0.598314 0.607893 0.616866 0.617844 0.618458 0.587349 0.56625 
0.544899 0.5194 0.499091 0.495461 0.495187 0.487254 0.477004 0.47681 0.47687 
0.476924 0.476973 0.477017 0.477056 0.477092 0.477125 0.477154 0.477181 0.477205 
0.477228 0.477248 0.477266 0.477283 0.477299 0.477313 0.477326 0.477338 0.477349 
0.47736 0.477369 0.477378 0.477386 0.477394 0.477401 0.477408 0.477415 0.477421 
0.477426 0.477432 0.477437 0.477442 0.477446 0.477451 0.477455 0.477459 0.477463 
0.477467 0.47747 0.477474 0.477477 0.477481 0.477484 0.477487 0.47749 0.477493 
0.477496 0.477499 0.477501 0.477504 0.477506 0.477509 0.477512 0.477514 0.477516 
0.477519 0.477521 0.477523 0.477525 0.477528 0.47753 0.477532 0.477534 0.477536 
0.477538 0.47754 0.477542 0.477544 0.477545 0.477547 0.477549 0.477551 0.477552 
0.477554 0.477556 0.477557 0.477559 0.477561 0.477562 0.477564 0.477565 0.477566 
0.477568 0.477494 0.477482 0.471985 0.760003 0.760012 0.760021 0.760031 0.760042 
0.760054 0.760067 0.760081 0.760096 0.760112 0.760129 0.760147 0.760165 0.760185 
0.760205 0.760225 0.760246 0.760267 0.760288 0.760308 0.760329 0.760349 0.760368 
0.760387 0.760404 0.76042 0.760435 0.760448 0.760459 0.760469 0.760476 0.760481 
0.760484 0.760485 0.760482 0.760478 0.760471 0.760461 0.760448 0.760433 0.760415 
0.760394 0.760371 0.760346 0.760318 0.760288 0.760256 0.760223 0.760189 0.760154 
0.760118 0.760082 0.760047 0.760013 0.75998 0.75995 0.759922 0.759897 0.759876 
0.75986 0.759848 0.759842 0.759841 0.759846 0.759857 0.759873 0.759896 0.759925 
0.759958 0.759997 0.76004 0.760086 0.760135 0.760186 0.760238 0.76029 0.760342 
0.760392 0.76044 0.760486 0.760529 0.760568 0.760604 0.760635 0.760663 0.760687 
0.760707 0.760723 0.760735 0.760745 0.760751 0.760754 0.760755 0.760753 0.76075 
0.760744 0.760737 0.760729 0.76072 0.760709 0.760698 0.760686 0.760673 0.760661 
0.760648 0.760635 0.760622 0.76061 0.760598 0.760587 0.760576 0.760567 0.760559 
0.760552 0.760547 0.760543 0.760542 0.760543 0.760547 0.760553 0.760563 0.760577 
0.760595 0.760619 0.760648 0.760684 0.760729 0.760782 0.760847 0.760925 0.761085 
0.76106 0.756449 0.74445 0.726138 0.70274 0.67548 0.645588 0.614298 0.582857 