# vtk DataFile Version 5.1
vtk output
ASCII
DATASET UNSTRUCTURED_GRID
POINTS 10043 double
-10.1 1.4499999993 1.7536673624e-07 -10.049999999 1.4499999993 1.8033075833e-07 -10.049999999 1.5 -6.9312795858e-07 
-9.9999999985 1.4499999993 1.8001971114e-07 -9.9999999985 1.5 -6.8828580879e-07 -9.9499999978 1.4499999993 1.7828712373e-07 
-9.9499999978 1.5 -6.8123631536e-07 -9.899999997 1.4499999993 1.7667095165e-07 -9.899999997 1.5 -6.7477617449e-07 
-9.8499999963 1.4499999993 1.7522667406e-07 -9.8499999963 1.5 -6.6954748945e-07 -9.7999999955 1.4499999993 1.7423896281e-07 
-9.7999999955 1.5 -6.6541383603e-07 -9.7499999948 1.4499999993 1.7338130931e-07 -9.7499999948 1.5 -6.6215602601e-07 
-9.699999994 1.4499999993 1.7272101616e-07 -9.699999994 1.5 -6.5987137532e-07 -9.6499999933 1.4499999993 1.7234721383e-07 
-9.6499999933 1.5 -6.5821154749e-07 -9.5999999925 1.4499999993 1.720780034e-07 -9.5999999925 1.5 -6.5734116106e-07 
-9.5499999918 1.4499999993 1.7207618441e-07 -9.5499999918 1.5 -6.569737252e-07 -9.4999999911 1.4499999993 1.7204889957e-07 
-9.4999999911 1.5 -6.5703738983e-07 -9.4499999903 1.4499999993 1.7223170801e-07 -9.4499999903 1.5 -6.57694045e-07 
-9.3999999896 1.4499999993 1.7238632211e-07 -9.3999999896 1.5 -6.5880090006e-07 -9.3499999888 1.4499999993 1.7272374464e-07 
-9.3499999888 1.5 -6.6017059908e-07 -9.2999999881 1.4499999993 1.7329854529e-07 -9.2999999881 1.5 -6.6188772507e-07 
-9.2499999873 1.4499999993 1.7375874961e-07 -9.2499999873 1.5 -6.6404049903e-07 -9.1999999866 1.4499999993 1.7447543144e-07 
-9.1999999866 1.5 -6.6641882768e-07 -9.1499999858 1.4499999993 1.7514572903e-07 -9.1499999858 1.5 -6.6915004027e-07 
-9.0999999851 1.4499999993 1.7584967793e-07 -9.0999999851 1.5 -6.7202495302e-07 -9.0499999844 1.4499999993 1.7669459851e-07 
-9.0499999844 1.5 -6.7522728386e-07 -8.9999999836 1.4499999993 1.775722609e-07 -8.9999999836 1.5 -6.7880614552e-07 
-8.9499999829 1.4499999993 1.7857088608e-07 -8.9499999829 1.5 -6.8251233643e-07 -8.8999999821 1.4499999993 1.7960043408e-07 
-8.8999999821 1.5 -6.8651411311e-07 -8.8499999814 1.4499999993 1.8068273278e-07 -8.8499999814 1.5 -6.906868748e-07 
-8.7999999806 1.4499999993 1.818796278e-07 -8.7999999806 1.5 -6.95116114e-07 -8.7499999799 1.4499999993 1.831329115e-07 
-8.7499999799 1.5 -6.9975726547e-07 -8.6999999791 1.4499999993 1.8385959777e-07 -8.6999999791 1.5 -7.0216560744e-07 
-8.6499999784 1.4499999993 1.8502011301e-07 -8.6499999784 1.5 -7.0733926805e-07 -8.5999999776 1.4499999993 1.8637980759e-07 
-8.5999999776 1.5 -7.1248746281e-07 -8.5499999769 1.4499999993 1.8789866374e-07 -8.5499999769 1.5 -7.1783210842e-07 
-8.4999999762 1.4499999993 1.8925608458e-07 -8.4999999762 1.5 -7.2357374847e-07 -8.4499999754 1.4499999993 1.908658902e-07 
-8.4499999754 1.5 -7.2949728747e-07 -8.3999999747 1.4499999993 1.9246432714e-07 -8.3999999747 1.5 -7.3560818237e-07 
-8.3499999739 1.4499999993 1.9396362916e-07 -8.3499999739 1.5 -7.4194326771e-07 -8.2999999732 1.4499999993 1.9583855249e-07 
-8.2999999732 1.5 -7.4846570897e-07 -8.2499999724 1.4499999993 1.9758068959e-07 -8.2499999724 1.5 -7.5520324572e-07 
-8.1999999717 1.4499999993 1.9935147577e-07 -8.1999999717 1.5 -7.6219635048e-07 -8.1499999709 1.4499999993 2.0133326473e-07 
-8.1499999709 1.5 -7.6945502769e-07 -8.0999999702 1.4499999993 2.0331960116e-07 -8.0999999702 1.5 -7.7691743172e-07 
-8.0499999695 1.4499999993 2.0534322687e-07 -8.0499999695 1.5 -7.8458492681e-07 -7.9999999687 1.4499999993 2.0747417295e-07 
-7.9999999687 1.5 -7.9259757513e-07 -7.949999968 1.4499999993 2.0957646996e-07 -7.949999968 1.5 -8.0071390585e-07 
-7.8999999672 1.4499999993 2.1166421504e-07 -7.8999999672 1.5 -8.0918812273e-07 -7.8499999665 1.4499999993 2.1383335991e-07 
-7.8499999665 1.5 -8.1803705143e-07 -7.7999999657 1.4499999993 2.1621578128e-07 -7.7999999657 1.5 -8.2686688074e-07 
-7.749999965 1.4499999993 2.1874235756e-07 -7.749999965 1.5 -8.3593135969e-07 -7.6999999642 1.4499999993 2.2111659348e-07 
-7.6999999642 1.5 -8.4548105406e-07 -7.6499999635 1.4499999993 2.2369910369e-07 -7.6499999635 1.5 -8.5515989667e-07 
-7.5999999627 1.4499999993 2.2637983932e-07 -7.5999999627 1.5 -8.6522209131e-07 -7.549999962 1.4499999993 2.2911605413e-07 
-7.549999962 1.5 -8.7566991169e-07 -7.4999999613 1.4499999993 2.3193366872e-07 -7.4999999613 1.5 -8.8620276983e-07 
-7.4499999605 1.4499999993 2.3468489019e-07 -7.4499999605 1.5 -8.9719128482e-07 -7.3999999598 1.4499999993 2.3768031099e-07 
-7.3999999598 1.5 -9.0846583589e-07 -7.349999959 1.4499999993 2.4069299798e-07 -7.349999959 1.5 -9.1993911155e-07 
-7.2999999583 1.4499999993 2.4376845431e-07 -7.2999999583 1.5 -9.3194671535e-07 -7.2499999575 1.4499999993 2.4700079848e-07 
-7.2499999575 1.5 -9.4414758678e-07 -7.1999999568 1.4499999993 2.5036456464e-07 -7.1999999568 1.5 -9.5671953204e-07 
-7.149999956 1.4499999993 2.5373378776e-07 -7.149999956 1.5 -9.6978351394e-07 -7.0999999553 1.4499999993 2.5545000426e-07 
-7.0999999553 1.5 -9.7652832665e-07 -7.0499999546 1.4499999993 2.590652457e-07 -7.0499999546 1.5 -9.8996974884e-07 
-6.9999999538 1.4499999993 2.6271550269e-07 -6.9999999538 1.5 -1.0040000689e-06 -6.9499999531 1.4499999993 2.6649036045e-07 
-6.9499999531 1.5 -1.0184082839e-06 -6.8999999523 1.4499999993 2.7040937312e-07 -6.8999999523 1.5 -1.0332144029e-06 
-6.8499999516 1.4499999993 2.7431883609e-07 -6.8499999516 1.5 -1.0484566246e-06 -6.7999999508 1.4499999993 2.7850433071e-07 
-6.7999999508 1.5 -1.064181788e-06 -6.7499999501 1.4499999993 2.8266322261e-07 -6.7499999501 1.5 -1.0804972135e-06 
-6.6999999493 1.4499999993 2.8713293432e-07 -6.6999999493 1.5 -1.0971373285e-06 -6.6499999486 1.4499999993 2.9163629733e-07 
-6.6499999486 1.5 -1.1144554719e-06 -6.5999999478 1.4499999993 2.963120096e-07 -6.5999999478 1.5 -1.1322567843e-06 
-6.5499999471 1.4499999993 3.0109231375e-07 -6.5499999471 1.5 -1.150602202e-06 -6.4999999464 1.4499999993 3.0604405765e-07 
-6.4999999464 1.5 -1.1695710782e-06 -6.4499999456 1.4499999993 3.1117883736e-07 -6.4499999456 1.5 -1.1891338545e-06 
-6.3999999449 1.4499999993 3.1640570342e-07 -6.3999999449 1.5 -1.2094787962e-06 -6.3499999441 1.4499999993 3.2189518606e-07 
-6.3499999441 1.5 -1.2303360108e-06 -6.2999999434 1.4499999993 3.2768116398e-07 -6.2999999434 1.5 -1.2519612937e-06 
-6.2499999426 1.4499999993 3.3352080209e-07 -6.2499999426 1.5 -1.2743773823e-06 -6.1999999419 1.4499999993 3.395011845e-07 
-6.1999999419 1.5 -1.2975363006e-06 -6.1499999411 1.4499999993 3.4581398722e-07 -6.1499999411 1.5 -1.3215562831e-06 
-6.0999999404 1.4499999993 3.5244829633e-07 -6.0999999404 1.5 -1.3463634332e-06 -6.0499999397 1.4499999993 3.5916445995e-07 
-6.0499999397 1.5 -1.3721678442e-06 -5.9999999389 1.4499999993 3.6616302168e-07 -5.9999999389 1.5 -1.3988230876e-06 
-5.9499999382 1.4499999993 3.7331506064e-07 -5.9499999382 1.5 -1.4266511243e-06 -5.8999999374 1.4499999993 3.8094026422e-07 
-5.8999999374 1.5 -1.4555703274e-06 -5.8499999367 1.4499999993 3.8879738895e-07 -5.8499999367 1.5 -1.4855197605e-06 
-5.7999999359 1.4499999993 3.9695783016e-07 -5.7999999359 1.5 -1.5167713627e-06 -5.7499999352 1.4499999993 4.0544705371e-07 
-5.7499999352 1.5 -1.5492923922e-06 -5.6999999344 1.4499999993 4.1434373088e-07 -5.6999999344 1.5 -1.5832333702e-06 
-5.6499999337 1.4499999993 4.2361261876e-07 -5.6499999337 1.5 -1.6186268113e-06 -5.5999999329 1.4499999993 4.3327096932e-07 
-5.5999999329 1.5 -1.655658707e-06 -5.5499999322 1.4499999993 4.3828845264e-07 -5.5499999322 1.5 -1.6747321752e-06 
-5.4999999315 1.4499999993 4.4863168114e-07 -5.4999999315 1.5 -1.7143245259e-06 -5.4499999307 1.4499999993 4.5945273541e-07 
-5.4499999307 1.5 -1.7557952106e-06 -5.39999993 1.4499999993 4.70918053e-07 -5.39999993 1.5 -1.7992979338e-06 
-5.3499999292 1.4499999993 4.8283311571e-07 -5.3499999292 1.5 -1.8450400603e-06 -5.2999999285 1.4499999993 4.9550601489e-07 
-5.2999999285 1.5 -1.8931992827e-06 -5.2499999277 1.4499999993 5.0878247748e-07 -5.2499999277 1.5 -1.9440235519e-06 
-5.199999927 1.4499999993 5.2280631735e-07 -5.199999927 1.5 -1.9976100702e-06 -5.1499999262 1.4499999993 5.3768872021e-07 
-5.1499999262 1.5 -2.0544603103e-06 -5.0999999255 1.4499999993 5.5346765748e-07 -5.0999999255 1.5 -2.1147361622e-06 
-5.0499999247 1.4499999993 5.7018382904e-07 -5.0499999247 1.5 -2.1788339382e-06 -4.999999924 1.4499999993 5.8817386162e-07 
-4.999999924 1.5 -2.2472454475e-06 -4.9499999233 1.4499999993 6.0730098994e-07 -4.9499999233 1.5 -2.3204017907e-06 
-4.8999999225 1.4499999993 6.2790968514e-07 -4.8999999225 1.5 -2.3989177862e-06 -4.8499999218 1.4499999993 6.5001313487e-07 
-4.8499999218 1.5 -2.483520575e-06 -4.799999921 1.4499999993 6.7393375502e-07 -4.799999921 1.5 -2.5749229735e-06 
-4.7499999203 1.4499999993 6.9998520758e-07 -4.7499999203 1.5 -2.6741761303e-06 -4.6999999195 1.4499999993 7.2834438924e-07 
-4.6999999195 1.5 -2.7824510198e-06 -4.6499999188 1.4499999993 7.5945786193e-07 -4.6499999188 1.5 -2.9012023788e-06 
-4.599999918 1.4499999993 7.9377173279e-07 -4.599999918 1.5 -3.0322037219e-06 -4.5499999173 1.4499999993 8.3186216671e-07 
-4.5499999173 1.5 -3.1776003198e-06 -4.4999999166 1.4499999993 8.7447739361e-07 -4.4999999166 1.5 -3.3401038309e-06 
-4.4499999158 1.4499999993 9.2251730166e-07 -4.4499999158 1.5 -3.523277428e-06 -4.3999999151 1.4499999993 9.7720680969e-07 
-4.3999999151 1.5 -3.7315742247e-06 -4.3499999143 1.4499999993 1.0399784287e-06 -4.3499999143 1.5 -3.9707138058e-06 
-4.2999999136 1.4499999993 1.1128730648e-06 -4.2999999136 1.5 -4.2483839024e-06 -4.2499999128 1.4499999993 1.1987552853e-06 
-4.2499999128 1.5 -4.5748902266e-06 -4.1999999121 1.4499999993 1.3011657529e-06 -4.1999999121 1.5 -4.9644031606e-06 
-4.1499999113 1.4499999993 1.4254733287e-06 -4.1499999113 1.5 -5.4365982578e-06 -4.0999999106 1.4499999993 1.5792709291e-06 
-4.0999999106 1.5 -6.0198744904e-06 -4.0499999098 1.4499999993 1.773699978e-06 -4.0499999098 1.5 -6.7561800279e-06 
-3.9999999091 1.4499999993 2.0261729787e-06 -3.9999999091 1.5 -7.7096901805e-06 -3.9499999084 1.4499999993 2.1821822429e-06 
[...]
CELL_DATA 9510
FIELD FieldData 4
Water_Depth_m 1 9510 float
0.740001 0.740002 0.740003 0.740003 0.740004 0.740004 0.740005 0.740006 0.740006 
0.740007 0.740008 0.740008 0.740009 0.74001 0.74001 0.740011 0.740012 0.740012 
0.740013 0.740013 0.740014 0.740015 0.740016 0.740016 0.740017 0.740017 0.740018 
0.740019 0.740019 0.74002 0.740021 0.740021 0.740022 0.740023 0.740023 0.740024 
0.740025 0.740025 0.740026 0.740027 0.740027 0.740028 0.740029 0.740029 0.74003 
0.740031 0.740031 0.740032 0.740033 0.740033 0.740034 0.740035 0.740035 0.740036 
0.740037 0.740037 0.740038 0.740039 0.740039 0.74004 0.740041 0.740041 0.740042 
0.740043 0.740043 0.740044 0.740045 0.740045 0.740046 0.740047 0.740047 0.740048 
0.740049 0.740049 0.74005 0.740051 0.740051 0.740052 0.740053 0.740053 0.740054 
0.740055 0.740055 0.740056 0.740057 0.740057 0.740058 0.740059 0.740059 0.74006 
0.740061 0.740061 0.740062 0.740063 0.740063 0.740064 0.740065 0.740065 0.740066 
0.740066 0.740067 0.740068 0.740068 0.740069 0.74007 0.74007 0.740071 0.740071 
0.740072 0.740073 0.740073 0.740074 0.740074 0.740075 0.740075 0.740076 0.740076 
0.740077 0.740077 0.740078 0.740078 0.740079 0.74008 0.740081 0.740082 0.740084 
0.740088 0.740095 0.740111 0.740173 0.740372 0.740252 0.734793 0.72146 0.702006 
0.678101 0.651044 0.621957 0.591886 0.561828 0.533307 0.507145 0.484345 0.46637 
0.455239 0.453344 0.453338 0.453335 0.453335 0.453339 0.453345 0.453352 0.453359 
0.453366 0.453374 0.453383 0.453393 0.453403 0.453414 0.453427 0.45344 0.453453 
0.453467 0.453481 0.453494 0.453504 0.453509 0.453501 0.457056 0.46759 0.468495 
0.464598 0.452992 0.432065 0.404026 0.352724 0.324787 0.293774 0.272647 0.269267 
0.283563 0.291285 0.306654 0.340028 0.350999 0.35781 0.372123 0.390874 0.410552 
0.43421 0.442014 0.462458 0.479386 0.483856 0.497868 0.506055 0.528344 0.564422 
0.688285 0.64552 0.609982 0.571686 0.532926 0.509247 0.509428 0.514409 0.514159 
0.504198 0.503901 0.503743 0.503692 0.503669 0.503657 0.50365 0.503646 0.503644 
0.503643 0.503643 0.503644 0.503645 0.503646 0.503647 0.503649 0.503651 0.503653 
0.503654 0.503657 0.503659 0.503661 0.503663 0.503665 0.503667 0.503669 0.503672 
0.503674 0.503676 0.503678 0.503681 0.503683 0.503685 0.503687 0.50369 0.503692 
0.503694 0.503697 0.503699 0.503701 0.503704 0.503706 0.503708 0.503711 0.503713 
0.503715 0.503718 0.50372 0.503723 0.503725 0.503727 0.50373 0.503732 0.503734 
0.503737 0.503739 0.503742 0.503744 0.503746 0.503749 0.503751 0.503754 0.503756 
0.503758 0.503761 0.503763 0.503766 0.503768 0.50377 0.503773 0.503775 0.503778 
0.50378 0.503782 0.503785 0.503787 0.50379 0.503792 0.503795 0.503797 0.503799 
0.503802 0.503804 0.503807 0.503809 0.503724 0.503715 0.497783 0.740001 0.740001 
0.740002 0.740002 0.740003 0.740004 0.740004 0.740005 0.740006 0.740006 0.740007 
0.740008 0.740008 0.740009 0.74001 0.74001 0.740011 0.740012 0.740012 0.740013 
0.740013 0.740014 0.740015 0.740015 0.740016 0.740017 0.740017 0.740018 0.740019 
0.740019 0.74002 0.740021 0.740021 0.740022 0.740023 0.740023 0.740024 0.740025 
0.740025 0.740026 0.740027 0.740027 0.740028 0.740029 0.740029 0.74003 0.740031 
0.740031 0.740032 0.740033 0.740033 0.740034 0.740034 0.740035 0.740036 0.740036 
0.740037 0.740038 0.740038 0.740039 0.74004 0.74004 0.740041 0.740042 0.740042 
0.740043 0.740044 0.740044 0.740045 0.740046 0.740046 0.740047 0.740048 0.740048 
0.740049 0.740049 0.74005 0.740051 0.740051 0.740052 0.740053 0.740053 0.740054 
0.740055 0.740055 0.740056 0.740056 0.740057 0.740058 0.740058 0.740059 0.74006 
0.74006 0.740061 0.740061 0.740062 0.740063 0.740063 0.740064 0.740064 0.740065 
0.740066 0.740066 0.740067 0.740067 0.740068 0.740068 0.740069 0.740069 0.74007 
0.74007 0.74007 0.740071 0.740071 0.740072 0.740072 0.740072 0.740072 0.740072 
0.740072 0.740072 0.740072 0.740072 0.740071 0.740071 0.74007 0.740069 0.740068 
0.740067 0.740067 0.740096 0.740044 0.735155 0.722521 0.703529 0.679737 0.652516 
0.623083 0.592559 0.561969 0.532643 0.505687 0.482512 0.464843 0.454902 0.453359 
0.453345 0.453336 0.453335 0.453337 0.453341 0.453346 0.453351 0.453358 0.453365 
0.453373 0.453382 0.453391 0.453402 0.453413 0.453426 0.453439 0.453453 0.453467 
0.453482 0.453495 0.453508 0.453515 0.457252 0.467054 0.467826 0.465381 0.44308 
0.41767 0.392561 0.347288 0.318678 0.285868 0.262288 0.274338 0.294324 0.298507 
0.312537 0.338653 0.356161 0.368428 0.397502 0.413256 0.431231 0.448694 0.471276 
0.494488 0.50078 0.513651 0.534107 0.536873 0.538703 0.570712 0.677968 0.635552 
0.594209 0.560813 0.534121 0.512486 0.516974 0.519311 0.518099 0.504778 0.503629 
0.503625 0.503621 0.50362 0.50362 0.50362 0.503621 0.503623 0.503625 0.503627 
0.503629 0.503631 0.503633 0.503636 0.503638 0.503641 0.503643 0.503646 0.503648 
0.503651 0.503653 0.503656 0.503658 0.503661 0.503663 0.503666 0.503668 0.503671 
0.503673 0.503676 0.503678 0.503681 0.503683 0.503685 0.503688 0.50369 0.503693 
0.503695 0.503698 0.5037 0.503703 0.503705 0.503708 0.50371 0.503712 0.503715 
0.503717 0.50372 0.503722 0.503725 0.503727 0.50373 0.503732 0.503734 0.503737 
0.503739 0.503742 0.503744 0.503747 0.503749 0.503751 0.503754 0.503756 0.503759 
0.503761 0.503764 0.503766 0.503768 0.503771 0.503773 0.503776 0.503778 0.503781 
0.503783 0.503785 0.503788 0.50379 0.503793 0.503795 0.503798 0.5038 0.503802 
0.503805 0.503807 0.503722 0.503712 0.497778 0.740001 0.740001 0.740002 0.740002 
0.740003 0.740004 0.740004 0.740005 0.740006 0.740006 0.740007 0.740008 0.740008 
0.740009 0.74001 0.74001 0.740011 0.740012 0.740012 0.740013 0.740014 0.740014 
0.740015 0.740016 0.740016 0.740017 0.740017 0.740018 0.740019 0.740019 0.74002 
0.740021 0.740021 0.740022 0.740023 0.740023 0.740024 0.740025 0.740025 0.740026 
0.740027 0.740027 0.740028 0.740029 0.740029 0.74003 0.740031 0.740031 0.740032 
0.740033 0.740033 0.740034 0.740035 0.740035 0.740036 0.740037 0.740037 0.740038 
0.740039 0.740039 0.74004 0.74004 0.740041 0.740042 0.740042 0.740043 0.740044 
0.740044 0.740045 0.740046 0.740046 0.740047 0.740048 0.740048 0.740049 0.74005 
0.74005 0.740051 0.740051 0.740052 0.740053 0.740053 0.740054 0.740055 0.740055 
0.740056 0.740057 0.740057 0.740058 0.740058 0.740059 0.74006 0.74006 0.740061 
0.740062 0.740062 0.740063 0.740063 0.740064 0.740065 0.740065 0.740066 0.740066 
0.740067 0.740067 0.740068 0.740068 0.740069 0.740069 0.74007 0.74007 0.740071 
0.740071 0.740071 0.740072 0.740072 0.740072 0.740072 0.740073 0.740073 0.740073 
0.740073 0.740072 0.740072 0.740072 0.740071 0.74007 0.74007 0.74007 0.740073 
0.740151 0.740046 0.735302 0.723011 0.704348 0.680715 0.653458 0.623828 0.592995 
0.562054 0.532297 0.504982 0.481735 0.464374 0.454826 0.453328 0.453328 0.453329 
0.453332 0.453335 0.453339 0.453344 0.45335 0.453356 0.453364 0.453372 0.453381 
0.45339 0.453401 0.453412 0.453425 0.453438 0.453453 0.453469 0.453485 0.453503 
0.45352 0.453587 0.454993 0.458474 0.460163 0.462186 0.441537 0.403067 0.38628 
0.342572 0.314874 0.280339 0.262979 0.275298 0.293281 0.301414 0.317788 0.337073 
0.356128 0.372245 0.399248 0.41428 0.435033 0.459924 0.481168 0.497927 0.511196 
0.526517 0.541741 0.554836 0.564258 0.590703 0.685892 0.638702 0.605471 0.571804 
0.535407 0.514681 0.521802 0.523681 0.521425 0.504444 0.503631 0.503628 0.503622 
0.50362 0.50362 0.503621 0.503622 0.503623 0.503625 0.503627 0.503629 0.503632 
0.503634 0.503636 0.503639 0.503641 0.503644 0.503646 0.503649 0.503651 0.503653 
0.503656 0.503658 0.503661 0.503663 0.503666 0.503668 0.503671 0.503673 0.503676 
0.503678 0.503681 0.503683 0.503686 0.503688 0.503691 0.503693 0.503695 0.503698 
0.5037 0.503703 0.503705 0.503708 0.50371 0.503713 0.503715 0.503717 0.50372 
0.503722 0.503725 0.503727 0.50373 0.503732 0.503734 0.503737 0.503739 0.503742 
0.503744 0.503747 0.503749 0.503752 0.503754 0.503756 0.503759 0.503761 0.503764 
0.503766 0.503769 0.503771 0.503773 0.503776 0.503778 0.503781 0.503783 0.503786 
0.503788 0.50379 0.503793 0.503795 0.503798 0.5038 0.503803 0.503805 0.503807 
0.503722 0.503712 0.497778 0.74 0.740001 0.740002 0.740002 0.740003 0.740004 
0.740004 0.740005 0.740006 0.740006 0.740007 0.740008 0.740008 0.740009 0.74001 
0.74001 0.740011 0.740012 0.740012 0.740013 0.740013 0.740014 0.740015 0.740015 
0.740016 0.740017 0.740017 0.740018 0.740019 0.740019 0.74002 0.740021 0.740021 
0.740022 0.740023 0.740023 0.740024 0.740025 0.740025 0.740026 0.740027 0.740027 
0.740028 0.740029 0.740029 0.74003 0.740031 0.740031 0.740032 0.740033 0.740033 
0.740034 0.740034 0.740035 0.740036 0.740036 0.740037 0.740038 0.740038 0.740039 
0.74004 0.74004 0.740041 0.740042 0.740042 0.740043 0.740044 0.740044 0.740045 
0.740046 0.740046 0.740047 0.740048 0.740048 0.740049 0.740049 0.74005 0.740051 
0.740051 0.740052 0.740053 0.740053 0.740054 0.740055 0.740055 0.740056 0.740057 
0.740057 0.740058 0.740058 0.740059 0.74006 0.74006 0.740061 0.740061 0.740062 
0.740063 0.740063 0.740064 0.740064 0.740065 0.740066 0.740066 0.740067 0.740067 
0.740068 0.740068 0.740069 0.740069 0.74007 0.74007 0.740071 0.740071 0.740071 
0.740072 0.740072 0.740072 0.740072 0.740073 0.740073 0.740073 0.740073 0.740072 
0.740072 0.740072 0.740071 0.74007 0.740069 0.740067 0.740066 0.740138 0.740046 
0.735365 0.72324 0.704769 0.681259 0.654009 0.624273 0.593249 0.562099 0.532112 
0.504664 0.481438 0.464226 0.454818 0.453325 0.453326 0.453326 0.453329 0.453332 
0.453336 0.453341 0.453347 0.453354 0.453361 0.453369 0.453377 0.453387 0.453397 
0.453409 0.453421 0.453435 0.45345 0.453467 0.453487 0.453509 0.453535 0.453712 
0.453803 0.450853 0.446282 0.448361 0.436547 0.401983 0.372872 0.342797 0.314573 
0.279809 0.260876 0.272457 0.284849 0.300305 0.316544 0.334651 0.352987 0.371013 
0.393046 0.406163 0.430743 0.45483 0.476183 0.48835 0.508893 0.525121 0.540103 
0.551517 0.564472 0.60065 0.689754 0.639028 0.605165 0.571613 0.535384 0.518554 
0.525163 0.526336 0.522682 0.504722 0.503613 0.503613 0.503613 0.503614 0.503616 
0.503617 0.503619 0.503621 0.503623 0.503626 0.503628 0.50363 0.503633 0.503635 
0.503638 0.50364 0.503643 0.503645 0.503648 0.50365 0.503653 0.503656 0.503658 
0.503661 0.503663 0.503666 0.503668 0.503671 0.503673 0.503676 0.503678 0.50368 
0.503683 0.503685 0.503688 0.50369 0.503693 0.503695 0.503698 0.5037 0.503703 
0.503705 0.503707 0.50371 0.503712 0.503715 0.503717 0.50372 0.503722 0.503725 
0.503727 0.503729 0.503732 0.503734 0.503737 0.503739 0.503742 0.503744 0.503746 
0.503749 0.503751 0.503754 0.503756 0.503759 0.503761 0.503763 0.503766 0.503768 
0.503771 0.503773 0.503776 0.503778 0.503781 0.503783 0.503785 0.503788 0.50379 
0.503793 0.503795 0.503798 0.5038 0.503802 0.503805 0.503807 0.503721 0.503712 
0.497778 0.74 0.740001 0.740002 0.740002 0.740003 0.740004 0.740004 0.740005 
0.740006 0.740006 0.740007 0.740008 0.740008 0.740009 0.74001 0.74001 0.740011 
0.740012 0.740012 0.740013 0.740014 0.740014 0.740015 0.740016 0.740016 0.740017 
0.740017 0.740018 0.740019 0.740019 0.74002 0.740021 0.740021 0.740022 0.740023 
0.740023 0.740024 0.740025 0.740025 0.740026 0.740027 0.740027 0.740028 0.740029 
0.740029 0.74003 0.740031 0.740031 0.740032 0.740033 0.740033 0.740034 0.740035 
0.740035 0.740036 0.740037 0.740037 0.740038 0.740039 0.740039 0.74004 0.74004 
0.740041 0.740042 0.740042 0.740043 0.740044 0.740044 0.740045 0.740046 0.740046 
0.740047 0.740048 0.740048 0.740049 0.740049 0.74005 0.740051 0.740051 0.740052 
0.740053 0.740053 0.740054 0.740055 0.740055 0.740056 0.740057 0.740057 0.740058 
0.740058 0.740059 0.74006 0.74006 0.740061 0.740062 0.740062 0.740063 0.740063 
0.740064 0.740065 0.740065 0.740066 0.740066 0.740067 0.740067 0.740068 0.740068 
0.740069 0.740069 0.74007 0.74007 0.740071 0.740071 0.740072 0.740072 0.740072 
0.740072 0.740073 0.740073 0.740073 0.740073 0.740073 0.740073 0.740073 0.740072 
0.740072 0.740071 0.740071 0.740069 0.740069 0.740143 0.740049 0.735393 0.723343 
0.704974 0.681539 0.654303 0.624512 0.593384 0.56212 0.532017 0.504522 0.481326 
0.464179 0.454809 0.453318 0.45332 0.453322 0.453325 0.453329 0.453333 0.453338 
0.453344 0.45335 0.453358 0.453365 0.453374 0.453383 0.453393 0.453405 0.453417 
0.453431 0.453446 0.453464 0.453486 0.453512 0.453545 0.453894 0.454083 0.448034 
0.440596 0.442562 0.432116 0.394812 0.362825 0.337702 0.308437 0.273651 0.260227 
0.28787 0.287475 0.296709 0.31358 0.325705 0.343876 0.364235 0.379013 0.394668 
0.410556 0.428465 0.449828 0.462776 0.490947 0.507413 0.521664 0.531703 0.556426 
0.600309 0.684346 0.63302 0.597244 0.564785 0.534603 0.522242 0.52811 0.528778 
0.524337 0.50462 0.503608 0.503609 0.50361 0.503612 0.503614 0.503616 0.503618 
0.50362 0.503623 0.503625 0.503628 0.50363 0.503633 0.503635 0.503638 0.50364 
0.503643 0.503645 0.503648 0.50365 0.503653 0.503656 0.503658 0.503661 0.503663 
0.503666 0.503668 0.503671 0.503673 0.503676 0.503678 0.50368 0.503683 0.503685 
0.503688 0.50369 0.503693 0.503695 0.503698 0.5037 0.503703 0.503705 0.503708 
0.50371 0.503712 0.503715 0.503717 0.50372 0.503722 0.503725 0.503727 0.503729 
0.503732 0.503734 0.503737 0.503739 0.503742 0.503744 0.503746 0.503749 0.503751 
0.503754 0.503756 0.503759 0.503761 0.503763 0.503766 0.503768 0.503771 0.503773 
0.503776 0.503778 0.503781 0.503783 0.503785 0.503788 0.50379 0.503793 0.503795 
0.503798 0.5038 0.503802 0.503805 0.503807 0.503721 0.503712 0.497778 0.74 
0.740001 0.740002 0.740002 0.740003 0.740004 0.740004 0.740005 0.740006 0.740006 
0.740007 0.740008 0.740008 0.740009 0.74001 0.74001 0.740011 0.740012 0.740012 
0.740013 0.740014 0.740014 0.740015 0.740016 0.740016 0.740017 0.740017 0.740018 
0.740019 0.740019 0.74002 0.740021 0.740021 0.740022 0.740023 0.740023 0.740024 
0.740025 0.740025 0.740026 0.740027 0.740027 0.740028 0.740029 0.740029 0.74003 
0.740031 0.740031 0.740032 0.740033 0.740033 0.740034 0.740035 0.740035 0.740036 
0.740037 0.740037 0.740038 0.740039 0.740039 0.74004 0.74004 0.740041 0.740042 
0.740042 0.740043 0.740044 0.740044 0.740045 0.740046 0.740046 0.740047 0.740048 
0.740048 0.740049 0.74005 0.74005 0.740051 0.740051 0.740052 0.740053 0.740053 
0.740054 0.740055 0.740055 0.740056 0.740057 0.740057 0.740058 0.740058 0.740059 
0.74006 0.74006 0.740061 0.740062 0.740062 0.740063 0.740063 0.740064 0.740065 
0.740065 0.740066 0.740066 0.740067 0.740067 0.740068 0.740068 0.740069 0.74007 
0.74007 0.74007 0.740071 0.740071 0.740072 0.740072 0.740072 0.740073 0.740073 
0.740073 0.740074 0.740074 0.740074 0.740074 0.740074 0.740073 0.740073 0.740073 
0.740072 0.740071 0.740071 0.740146 0.740053 0.735405 0.723385 0.705063 0.681668 
0.654443 0.624626 0.593446 0.562127 0.531967 0.504456 0.481279 0.464159 0.454802 
0.453312 0.453314 0.453317 0.45332 0.453325 0.453329 0.453334 0.45334 0.453347 
0.453354 0.453361 0.453369 0.453378 0.453388 0.453399 0.453411 0.453425 0.45344 
0.453458 0.453479 0.453507 0.453544 0.453991 0.454234 0.444718 0.419787 0.423063 
0.419258 0.402528 0.368113 0.336474 0.304515 0.274162 0.263497 0.284089 0.284282 
0.295063 0.314735 0.324001 0.339531 0.353844 0.370067 0.403384 0.405919 0.420507 
0.432804 0.452775 0.464862 0.487602 0.503649 0.543238 0.561017 0.595455 0.670327 
0.634271 0.604427 0.570809 0.539739 0.525205 0.530826 0.531192 0.526056 0.504751 
0.503601 0.503604 0.503606 0.503609 0.503611 0.503614 0.503617 0.503619 0.503622 
0.503625 0.503627 0.50363 0.503632 0.503635 0.503638 0.50364 0.503643 0.503645 
0.503648 0.50365 0.503653 0.503656 0.503658 0.503661 0.503663 0.503666 0.503668 
0.503671 0.503673 0.503676 0.503678 0.50368 0.503683 0.503685 0.503688 0.50369 
0.503693 0.503695 0.503698 0.5037 0.503703 0.503705 0.503707 0.50371 0.503712 
0.503715 0.503717 0.50372 0.503722 0.503725 0.503727 0.503729 0.503732 0.503734 
0.503737 0.503739 0.503742 0.503744 0.503746 0.503749 0.503751 0.503754 0.503756 
0.503759 0.503761 0.503763 0.503766 0.503768 0.503771 0.503773 0.503776 0.503778 
0.503781 0.503783 0.503785 0.503788 0.50379 0.503793 0.503795 0.503798 0.5038 
0.503802 0.503805 0.503807 0.503721 0.503712 0.497778 0.74 0.740001 0.740002 
0.740002 0.740003 0.740004 0.740004 0.740005 0.740006 0.740006 0.740007 0.740008 
0.740008 0.740009 0.74001 0.74001 0.740011 0.740012 0.740012 0.740013 0.740014 
0.740014 0.740015 0.740016 0.740016 0.740017 0.740018 0.740018 0.740019 0.74002 
0.74002 0.740021 0.740021 0.740022 0.740023 0.740023 0.740024 0.740025 0.740025 
0.740026 0.740027 0.740027 0.740028 0.740029 0.740029 0.74003 0.740031 0.740031 
0.740032 0.740033 0.740033 0.740034 0.740035 0.740035 0.740036 0.740037 0.740037 
0.740038 0.740039 0.740039 0.74004 0.74004 0.740041 0.740042 0.740042 0.740043 
0.740044 0.740044 0.740045 0.740046 0.740046 0.740047 0.740048 0.740048 0.740049 
0.74005 0.74005 0.740051 0.740052 0.740052 0.740053 0.740053 0.740054 0.740055 
0.740055 0.740056 0.740057 0.740057 0.740058 0.740059 0.740059 0.74006 0.74006 
0.740061 0.740062 0.740062 0.740063 0.740063 0.740064 0.740065 0.740065 0.740066 
0.740066 0.740067 0.740068 0.740068 0.740069 0.740069 0.74007 0.74007 0.740071 
0.740071 0.740072 0.740072 0.740072 0.740073 0.740073 0.740074 0.740074 0.740074 
0.740074 0.740074 0.740075 0.740075 0.740075 0.740075 0.740074 0.740074 0.740074 
0.740075 0.740149 0.740057 0.73541 0.723397 0.705093 0.681716 0.654497 0.624671 
0.593469 0.562127 0.53194 0.504421 0.481255 0.464147 0.454794 0.453304 0.453308 
0.453311 0.453315 0.45332 0.453325 0.45333 0.453336 0.453342 0.453349 0.453356 
0.453364 0.453373 0.453382 0.453393 0.453404 0.453416 0.45343 0.453447 0.453466 
0.45349 0.453524 0.45388 0.454079 0.449196 0.442065 0.442053 0.438494 0.411799 
0.366366 0.341875 0.332277 0.284651 0.27033 0.284238 0.291182 0.305546 0.318343 
0.32533 0.335618 0.346789 0.353591 0.398129 0.399352 0.403178 0.410763 0.424592 
0.452653 0.481064 0.502735 0.541675 0.561473 0.593307 0.68451 0.643209 0.611873 
0.578168 0.542438 0.527715 0.53365 0.533733 0.527794 0.504823 0.503595 0.5036 
0.503603 0.503606 0.503609 0.503613 0.503616 0.503618 0.503621 0.503624 0.503627 
0.50363 0.503632 0.503635 0.503638 0.50364 0.503643 0.503645 0.503648 0.50365 
0.503653 0.503656 0.503658 0.503661 0.503663 0.503666 0.503668 0.503671 0.503673 
0.503676 0.503678 0.50368 0.503683 0.503685 0.503688 0.50369 0.503693 0.503695 
0.503698 0.5037 0.503703 0.503705 0.503707 0.50371 0.503712 0.503715 0.503717 
0.50372 0.503722 0.503725 0.503727 0.503729 0.503732 0.503734 0.503737 0.503739 
0.503742 0.503744 0.503746 0.503749 0.503751 0.503754 0.503756 0.503759 0.503761 
0.503763 0.503766 0.503768 0.503771 0.503773 0.503776 0.503778 0.503781 0.503783 
0.503785 0.503788 0.50379 0.503793 0.503795 0.503798 0.5038 0.503802 0.503805 
0.503807 0.503721 0.503712 0.497778 0.74 0.740001 0.740002 0.740002 0.740003 
0.740004 0.740004 0.740005 0.740006 0.740006 0.740007 0.740008 0.740008 0.740009 
0.74001 0.74001 0.740011 0.740012 0.740012 0.740013 0.740014 0.740014 0.740015 
0.740016 0.740016 0.740017 0.740018 0.740018 0.740019 0.74002 0.74002 0.740021 
0.740021 0.740022 0.740023 0.740023 0.740024 0.740025 0.740025 0.740026 0.740027 
0.740027 0.740028 0.740029 0.740029 0.74003 0.740031 0.740031 0.740032 0.740033 
0.740033 0.740034 0.740035 0.740035 0.740036 0.740037 0.740037 0.740038 0.740039 
0.740039 0.74004 0.740041 0.740041 0.740042 0.740043 0.740043 0.740044 0.740044 
0.740045 0.740046 0.740046 0.740047 0.740048 0.740048 0.740049 0.74005 0.74005 
0.740051 0.740052 0.740052 0.740053 0.740053 0.740054 0.740055 0.740055 0.740056 
0.740057 0.740057 0.740058 0.740059 0.740059 0.74006 0.74006 0.740061 0.740062 
0.740062 0.740063 0.740064 0.740064 0.740065 0.740065 0.740066 0.740067 0.740067 
0.740068 0.740068 0.740069 0.740069 0.74007 0.74007 0.740071 0.740071 0.740072 
0.740072 0.740073 0.740073 0.740074 0.740074 0.740074 0.740075 0.740075 0.740075 
0.740076 0.740076 0.740076 0.740076 0.740076 0.740076 0.740077 0.740078 0.740154 
0.740062 0.735413 0.723402 0.705097 0.681724 0.654509 0.624681 0.593472 0.562124 
0.531924 0.504402 0.481239 0.464136 0.454785 0.453297 0.453301 0.453305 0.45331 