# vtk DataFile Version 5.1
vtk output
ASCII
DATASET UNSTRUCTURED_GRID
POINTS 10043 double
-10.1 1.4499999993 0 -10.049999999 1.4499999993 0 -10.049999999 1.5 0 
-9.9999999985 1.4499999993 0 -9.9999999985 1.5 0 -9.9499999978 1.4499999993 0 
-9.9499999978 1.5 0 -9.899999997 1.4499999993 0 -9.899999997 1.5 0 
-9.8499999963 1.4499999993 0 -9.8499999963 1.5 0 -9.7999999955 1.4499999993 0 
-9.7999999955 1.5 0 -9.7499999948 1.4499999993 0 -9.7499999948 1.5 0 
-9.699999994 1.4499999993 0 -9.699999994 1.5 0 -9.6499999933 1.4499999993 0 
-9.6499999933 1.5 0 -9.5999999925 1.4499999993 0 -9.5999999925 1.5 0 
-9.5499999918 1.4499999993 0 -9.5499999918 1.5 0 -9.4999999911 1.4499999993 0 
-9.4999999911 1.5 0 -9.4499999903 1.4499999993 0 -9.4499999903 1.5 0 
-9.3999999896 1.4499999993 0 -9.3999999896 1.5 0 -9.3499999888 1.4499999993 0 
-9.3499999888 1.5 0 -9.2999999881 1.4499999993 0 -9.2999999881 1.5 0 
-9.2499999873 1.4499999993 0 -9.2499999873 1.5 0 -9.1999999866 1.4499999993 0 
-9.1999999866 1.5 0 -9.1499999858 1.4499999993 0 -9.1499999858 1.5 0 
-9.0999999851 1.4499999993 0 -9.0999999851 1.5 0 -9.0499999844 1.4499999993 0 
-9.0499999844 1.5 0 -8.9999999836 1.4499999993 0 -8.9999999836 1.5 0 
-8.9499999829 1.4499999993 0 -8.9499999829 1.5 0 -8.8999999821 1.4499999993 0 
-8.8999999821 1.5 0 -8.8499999814 1.4499999993 0 -8.8499999814 1.5 0 
-8.7999999806 1.4499999993 0 -8.7999999806 1.5 0 -8.7499999799 1.4499999993 0 
-8.7499999799 1.5 0 -8.6999999791 1.4499999993 0 -8.6999999791 1.5 0 
-8.6499999784 1.4499999993 0 -8.6499999784 1.5 0 -8.5999999776 1.4499999993 0 
-8.5999999776 1.5 0 -8.5499999769 1.4499999993 0 -8.5499999769 1.5 0 
-8.4999999762 1.4499999993 0 -8.4999999762 1.5 0 -8.4499999754 1.4499999993 0 
-8.4499999754 1.5 0 -8.3999999747 1.4499999993 0 -8.3999999747 1.5 0 
-8.3499999739 1.4499999993 0 -8.3499999739 1.5 0 -8.2999999732 1.4499999993 0 
-8.2999999732 1.5 0 -8.2499999724 1.4499999993 0 -8.2499999724 1.5 0 
-8.1999999717 1.4499999993 0 -8.1999999717 1.5 0 -8.1499999709 1.4499999993 0 
-8.1499999709 1.5 0 -8.0999999702 1.4499999993 0 -8.0999999702 1.5 0 
-8.0499999695 1.4499999993 0 -8.0499999695 1.5 0 -7.9999999687 1.4499999993 0 
-7.9999999687 1.5 0 -7.949999968 1.4499999993 0 -7.949999968 1.5 0 
-7.8999999672 1.4499999993 0 -7.8999999672 1.5 0 -7.8499999665 1.4499999993 0 
-7.8499999665 1.5 0 -7.7999999657 1.4499999993 0 -7.7999999657 1.5 0 
-7.749999965 1.4499999993 0 -7.749999965 1.5 0 -7.6999999642 1.4499999993 0 
-7.6999999642 1.5 0 -7.6499999635 1.4499999993 0 -7.6499999635 1.5 0 
-7.5999999627 1.4499999993 0 -7.5999999627 1.5 0 -7.549999962 1.4499999993 0 
-7.549999962 1.5 0 -7.4999999613 1.4499999993 0 -7.4999999613 1.5 0 
-7.4499999605 1.4499999993 0 -7.4499999605 1.5 0 -7.3999999598 1.4499999993 0 
-7.3999999598 1.5 0 -7.349999959 1.4499999993 0 -7.349999959 1.5 0 
-7.2999999583 1.4499999993 0 -7.2999999583 1.5 0 -7.2499999575 1.4499999993 0 
-7.2499999575 1.5 0 -7.1999999568 1.4499999993 0 -7.1999999568 1.5 0 
-7.149999956 1.4499999993 0 -7.149999956 1.5 0 -7.0999999553 1.4499999993 0 
-7.0999999553 1.5 0 -7.0499999546 1.4499999993 0 -7.0499999546 1.5 0 
-6.9999999538 1.4499999993 0 -6.9999999538 1.5 0 -6.9499999531 1.4499999993 0 
-6.9499999531 1.5 0 -6.8999999523 1.4499999993 0 -6.8999999523 1.5 0 
-6.8499999516 1.4499999993 0 -6.8499999516 1.5 0 -6.7999999508 1.4499999993 0 
-6.7999999508 1.5 0 -6.7499999501 1.4499999993 0 -6.7499999501 1.5 0 
-6.6999999493 1.4499999993 0 -6.6999999493 1.5 0 -6.6499999486 1.4499999993 0 
-6.6499999486 1.5 0 -6.5999999478 1.4499999993 0 -6.5999999478 1.5 0 
-6.5499999471 1.4499999993 0 -6.5499999471 1.5 0 -6.4999999464 1.4499999993 0 
-6.4999999464 1.5 0 -6.4499999456 1.4499999993 0 -6.4499999456 1.5 0 
-6.3999999449 1.4499999993 0 -6.3999999449 1.5 0 -6.3499999441 1.4499999993 0 
-6.3499999441 1.5 0 -6.2999999434 1.4499999993 0 -6.2999999434 1.5 0 
-6.2499999426 1.4499999993 0 -6.2499999426 1.5 0 -6.1999999419 1.4499999993 0 
-6.1999999419 1.5 0 -6.1499999411 1.4499999993 0 -6.1499999411 1.5 0 
-6.0999999404 1.4499999993 0 -6.0999999404 1.5 0 -6.0499999397 1.4499999993 0 
-6.0499999397 1.5 0 -5.9999999389 1.4499999993 0 -5.9999999389 1.5 0 
-5.9499999382 1.4499999993 0 -5.9499999382 1.5 0 -5.8999999374 1.4499999993 0 
-5.8999999374 1.5 0 -5.8499999367 1.4499999993 0 -5.8499999367 1.5 0 
-5.7999999359 1.4499999993 0 -5.7999999359 1.5 0 -5.7499999352 1.4499999993 0 
-5.7499999352 1.5 0 -5.6999999344 1.4499999993 0 -5.6999999344 1.5 0 
-5.6499999337 1.4499999993 0 -5.6499999337 1.5 0 -5.5999999329 1.4499999993 0 
-5.5999999329 1.5 0 -5.5499999322 1.4499999993 0 -5.5499999322 1.5 0 
-5.4999999315 1.4499999993 0 -5.4999999315 1.5 0 -5.4499999307 1.4499999993 0 
-5.4499999307 1.5 0 -5.39999993 1.4499999993 0 -5.39999993 1.5 0 
-5.3499999292 1.4499999993 0 -5.3499999292 1.5 0 -5.2999999285 1.4499999993 0 
-5.2999999285 1.5 0 -5.2499999277 1.4499999993 0 -5.2499999277 1.5 0 
-5.199999927 1.4499999993 0 -5.199999927 1.5 0 -5.1499999262 1.4499999993 0 
-5.1499999262 1.5 0 -5.0999999255 1.4499999993 0 -5.0999999255 1.5 0 
-5.0499999247 1.4499999993 0 -5.0499999247 1.5 0 -4.999999924 1.4499999993 0 
-4.999999924 1.5 0 -4.9499999233 1.4499999993 0 -4.9499999233 1.5 0 
-4.8999999225 1.4499999993 0 -4.8999999225 1.5 0 -4.8499999218 1.4499999993 0 
-4.8499999218 1.5 0 -4.799999921 1.4499999993 0 -4.799999921 1.5 0 
-4.7499999203 1.4499999993 0 -4.7499999203 1.5 0 -4.6999999195 1.4499999993 0 
-4.6999999195 1.5 0 -4.6499999188 1.4499999993 0 -4.6499999188 1.5 0 
-4.599999918 1.4499999993 0 -4.599999918 1.5 0 -4.5499999173 1.4499999993 0 
-4.5499999173 1.5 0 -4.4999999166 1.4499999993 0 -4.4999999166 1.5 0 
-4.4499999158 1.4499999993 0 -4.4499999158 1.5 0 -4.3999999151 1.4499999993 0 
-4.3999999151 1.5 0 -4.3499999143 1.4499999993 0 -4.3499999143 1.5 0 
-4.2999999136 1.4499999993 0 -4.2999999136 1.5 0 -4.2499999128 1.4499999993 0 
-4.2499999128 1.5 0 -4.1999999121 1.4499999993 0 -4.1999999121 1.5 0 
-4.1499999113 1.4499999993 0 -4.1499999113 1.5 0 -4.0999999106 1.4499999993 0 
-4.0999999106 1.5 0 -4.0499999098 1.4499999993 0 -4.0499999098 1.5 0 
-3.9999999091 1.4499999993 0 -3.9999999091 1.5 0 -3.9499999084 1.4499999993 0 
-3.9499999084 1.5 0 -3.8999999076 1.4499999993 0 -3.8999999076 1.5 0 
-3.8499999069 1.4499999993 0 -3.8499999069 1.5 0 -3.7999999061 1.4499999993 0 
-3.7999999061 1.5 0 -3.7499999054 1.4499999993 0 -3.7499999054 1.5 0 
-3.6999999046 1.4499999993 0 -3.6999999046 1.5 0 -3.6499999039 1.4499999993 0 
-3.6499999039 1.5 0 -3.5999999031 1.4499999993 0 -3.5999999031 1.5 0 
-3.5499999024 1.4499999993 0 -3.5499999024 1.5 0 -3.4999999017 1.4499999993 0 
-3.4999999017 1.5 0 -3.4499999009 1.4499999993 0 -3.4499999009 1.5 0 
-3.3999999002 1.4499999993 0 -3.3999999002 1.5 0 -3.3499998994 1.4499999993 0 
-3.3499998994 1.5 0 -3.2999998987 1.4499999993 0 -3.2999998987 1.5 0 
-3.2499998979 1.4499999993 0 -3.2499998979 1.5 0 -3.1999998972 1.4499999993 0 
-3.1999998972 1.5 0 -3.1499998964 1.4499999993 0 -3.1499998964 1.5 0 
-3.0999998957 1.4499999993 0 -3.0999998957 1.5 0 -3.0499998949 1.4499999993 0 
-3.0499998949 1.5 0 -2.9999998942 1.4499999993 0 -2.9999998942 1.5 0 
-2.9499998935 1.4499999993 0 -2.9499998935 1.5 0 -2.8999998927 1.4499999993 0 
-2.8999998927 1.5 0 -2.849999892 1.4499999993 0 -2.849999892 1.5 0 
-2.7999998912 1.4499999993 0 -2.7999998912 1.5 0 -2.7499998905 1.4499999993 0 
-2.7499998905 1.5 0 -2.6999998897 1.4499999993 0 -2.6999998897 1.5 0 
-2.649999889 1.4499999993 0 -2.649999889 1.5 0 -2.5999998882 1.4499999993 0 
-2.5999998882 1.5 0 -2.5499998875 1.4499999993 0 -2.5499998875 1.5 0 
-2.4999998868 1.4499999993 0 -2.4999998868 1.5 0 -2.449999886 1.4499999993 0 
-2.449999886 1.5 0 -2.3999998853 1.4499999993 0 -2.3999998853 1.5 0 
-2.3499998845 1.4499999993 0 -2.3499998845 1.5 0 -2.2999998838 1.4499999993 0 
-2.2999998838 1.5 0 -2.249999883 1.4499999993 0 -2.249999883 1.5 0 
-2.1999998823 1.4499999993 0 -2.1999998823 1.5 0 -2.1499998815 1.4499999993 0 
-2.1499998815 1.5 0 -2.0999998808 1.4499999993 0 -2.0999998808 1.5 0 
-2.04999988 1.4499999993 0 -2.04999988 1.5 0 -1.9999998793 1.4499999993 0 
-1.9999998793 1.5 0 -1.9499998786 1.4499999993 0 -1.9499998786 1.5 0 
-1.8999998778 1.4499999993 0 -1.8999998778 1.5 0 -1.8499998771 1.4499999993 0 
-1.8499998771 1.5 0 -1.7999998763 1.4499999993 0 -1.7999998763 1.5 0 
-1.7499998756 1.4499999993 0 -1.7499998756 1.5 0 -1.6999998748 1.4499999993 0 
-1.6999998748 1.5 0 -1.6499998741 1.4499999993 0 -1.6499998741 1.5 0 
-1.5999998733 1.4499999993 0 -1.5999998733 1.5 0 -1.5499998726 1.4499999993 0 
-1.5499998726 1.5 0 -1.4999998718 1.4499999993 0 -1.4999998718 1.5 0 
-1.4499998711 1.4499999993 0 -1.4499998711 1.5 0 -1.3999998704 1.4499999993 0 
-1.3999998704 1.5 0 -1.3499998696 1.4499999993 0 -1.3499998696 1.5 0 
-1.2999998689 1.4499999993 0 -1.2999998689 1.5 0 -1.2499998681 1.4499999993 0 
-1.2499998681 1.5 0 -1.1999998674 1.4499999993 0 -1.1999998674 1.5 0 
-1.1499998666 1.4499999993 0 -1.1499998666 1.5 0 -1.0999998659 1.4499999993 0 
-1.0999998659 1.5 0 -1.0499998651 1.4499999993 0 -1.0499998651 1.5 0 
-0.9999998644 1.4499999993 0 -0.9999998644 1.5 0 -0.94999986365 1.4499999993 0 
-0.94999986365 1.5 0 -0.89999986291 1.4499999993 0 -0.89999986291 1.5 0 
-0.84999986216 1.4499999993 0 -0.84999986216 1.5 0 -0.79999986142 1.4499999993 0 
-0.79999986142 1.5 0 -0.74999986067 1.4499999993 0 -0.74999986067 1.5 0 
-0.69999985993 1.4499999993 0 -0.69999985993 1.5 0 -0.64999985918 1.4499999993 0 
-0.64999985918 1.5 0 -0.59999985844 1.4499999993 0 -0.59999985844 1.5 0 
-0.54999985769 1.4499999993 0 -0.54999985769 1.5 0 -0.49999985695 1.4499999993 0 
-0.49999985695 1.5 0 -0.4499998562 1.4499999993 0 -0.4499998562 1.5 0 
-0.39999985546 1.4499999993 0 -0.39999985546 1.5 0 -0.34999985471 1.4499999993 0 
-0.34999985471 1.5 0 -0.29999985397 1.4499999993 0 -0.29999985397 1.5 0 
-0.24999985322 1.4499999993 0 -0.24999985322 1.5 0 -0.191663057 1.4499999993 0 
-0.17548248559 1.5 0 0.18862900414 1.4499999993 0 0.25000015423 1.4499999993 0 
[...]
CELL_DATA 9510
FIELD FieldData 4
Water_Depth_m 1 9510 float
0.479989 0.479969 0.47995 0.47993 0.47991 0.47989 0.479869 0.479848 0.479826 
0.479804 0.479781 0.479757 0.479733 0.479709 0.479685 0.47966 0.479635 0.47961 
0.479585 0.47956 0.479536 0.479511 0.479487 0.479464 0.479441 0.479419 0.479398 
0.479377 0.479358 0.479339 0.479321 0.479304 0.479288 0.479273 0.479259 0.479245 
0.479232 0.47922 0.479209 0.479198 0.479187 0.479177 0.479167 0.479157 0.479147 
0.479136 0.479126 0.479115 0.479103 0.479091 0.479079 0.479066 0.479052 0.479039 
0.479025 0.479011 0.478996 0.478983 0.478969 0.478956 0.478945 0.478934 0.478926 
0.478919 0.478914 0.478912 0.478912 0.478915 0.478921 0.47893 0.478942 0.478957 
0.478975 0.478995 0.479017 0.479042 0.479068 0.479096 0.479124 0.479152 0.479181 
0.479209 0.479235 0.479261 0.479284 0.479306 0.479325 0.479342 0.479357 0.479369 
0.479379 0.479387 0.479393 0.479397 0.4794 0.479402 0.479403 0.479404 0.479406 
0.479408 0.479412 0.479417 0.479424 0.479433 0.479444 0.479458 0.479475 0.479493 
0.479514 0.479536 0.47956 0.479584 0.479609 0.479634 0.479658 0.479681 0.479702 
0.479721 0.479737 0.479751 0.479761 0.479768 0.479772 0.479773 0.47977 0.479765 
0.479755 0.479742 0.479727 0.47971 0.47969 0.479668 0.479645 0.47962 0.479594 
0.479568 0.479541 0.479514 0.479488 0.479462 0.479436 0.479412 0.479389 0.479368 
0.479348 0.47933 0.479313 0.479298 0.479285 0.479273 0.479263 0.479254 0.479246 
0.47924 0.479235 0.479231 0.479227 0.479224 0.479222 0.479221 0.47922 0.479219 
0.479219 0.479219 0.47922 0.479221 0.479223 0.479226 0.479229 0.479233 0.479238 
0.479244 0.479252 0.479262 0.479274 0.479288 0.479305 0.479325 0.479349 0.479378 
0.479412 0.479452 0.479499 0.479553 0.479617 0.479691 0.479776 0.479874 0.479987 
0.480114 0.480259 0.480421 0.480603 0.480805 0.481024 0.481188 0.481449 0.481721 
0.485385 0.485782 0.486108 0.486407 0.486679 0.486926 0.487148 0.487348 0.487527 
0.487688 0.487832 0.48796 0.488074 0.488177 0.488268 0.488349 0.488422 0.488487 
0.488545 0.488597 0.488644 0.488686 0.488724 0.488758 0.488789 0.488817 0.488842 
0.488865 0.488885 0.488904 0.488922 0.488937 0.488952 0.488965 0.488977 0.488989 
0.488999 0.489009 0.489018 0.489026 0.489034 0.489041 0.489048 0.489055 0.489061 
0.489067 0.489072 0.489078 0.489083 0.489088 0.489092 0.489097 0.489101 0.489105 
0.48911 0.489114 0.489118 0.489122 0.489125 0.489129 0.489133 0.489137 0.48914 
0.489144 0.489147 0.489151 0.489154 0.489158 0.489161 0.489165 0.489168 0.489172 
0.489175 0.489179 0.489182 0.489185 0.489189 0.489192 0.489196 0.489199 0.489202 
0.489206 0.489209 0.489213 0.489216 0.489219 0.489223 0.489226 0.48923 0.489233 
0.489237 0.48924 0.489244 0.489247 0.489177 0.489164 0.483714 0.479989 0.47997 
0.479951 0.479932 0.479912 0.479891 0.479871 0.479849 0.479827 0.479805 0.479782 
0.479759 0.479735 0.479711 0.479686 0.479661 0.479636 0.479611 0.479586 0.479561 
0.479536 0.479512 0.479488 0.479465 0.479442 0.47942 0.479398 0.479378 0.479358 
0.479339 0.479321 0.479304 0.479288 0.479273 0.479259 0.479245 0.479233 0.479221 
0.479209 0.479199 0.479188 0.479178 0.479168 0.479158 0.479148 0.479138 0.479127 
0.479116 0.479105 0.479093 0.479081 0.479068 0.479054 0.47904 0.479026 0.479012 
0.478998 0.478983 0.47897 0.478957 0.478945 0.478934 0.478925 0.478918 0.478913 
0.47891 0.47891 0.478913 0.478918 0.478927 0.478939 0.478954 0.478972 0.478992 
0.479015 0.47904 0.479066 0.479094 0.479123 0.479152 0.479181 0.479209 0.479236 
0.479262 0.479286 0.479308 0.479327 0.479345 0.479359 0.479372 0.479381 0.479389 
0.479395 0.479398 0.479401 0.479403 0.479403 0.479404 0.479405 0.479407 0.47941 
0.479415 0.479421 0.47943 0.479441 0.479455 0.479472 0.47949 0.479511 0.479534 
0.479558 0.479583 0.479608 0.479633 0.479658 0.479681 0.479703 0.479722 0.479739 
0.479753 0.479764 0.479771 0.479775 0.479776 0.479773 0.479766 0.479758 0.479746 
0.47973 0.479713 0.479693 0.479671 0.479647 0.479622 0.479596 0.47957 0.479542 
0.479515 0.479489 0.479462 0.479437 0.479413 0.479389 0.479368 0.479348 0.479329 
0.479313 0.479298 0.479284 0.479272 0.479262 0.479254 0.479246 0.47924 0.479235 
0.479231 0.479227 0.479225 0.479223 0.479221 0.47922 0.479219 0.479219 0.479219 
0.47922 0.479221 0.479223 0.479225 0.479228 0.479232 0.479237 0.479243 0.479251 
0.47926 0.479271 0.479285 0.479301 0.479321 0.479345 0.479372 0.479405 0.479444 
0.47949 0.479543 0.479605 0.479678 0.479761 0.479857 0.479967 0.480093 0.480235 
0.480395 0.480575 0.480769 0.480984 0.481218 0.481537 0.48203 0.485378 0.485779 
0.486108 0.486409 0.486683 0.486931 0.487154 0.487354 0.487534 0.487694 0.487838 
0.487966 0.48808 0.488182 0.488272 0.488353 0.488426 0.48849 0.488548 0.4886 
0.488646 0.488688 0.488726 0.48876 0.48879 0.488818 0.488843 0.488866 0.488887 
0.488905 0.488923 0.488938 0.488953 0.488966 0.488978 0.488989 0.489 0.489009 
0.489018 0.489026 0.489034 0.489042 0.489048 0.489055 0.489061 0.489067 0.489072 
0.489078 0.489083 0.489088 0.489092 0.489097 0.489101 0.489106 0.48911 0.489114 
0.489118 0.489122 0.489126 0.489129 0.489133 0.489137 0.48914 0.489144 0.489147 
0.489151 0.489154 0.489158 0.489161 0.489165 0.489168 0.489172 0.489175 0.489179 
0.489182 0.489185 0.489189 0.489192 0.489196 0.489199 0.489202 0.489206 0.489209 
0.489213 0.489216 0.48922 0.489223 0.489226 0.48923 0.489233 0.489237 0.48924 
0.489244 0.489247 0.489177 0.489164 0.483714 0.479989 0.47997 0.479951 0.479932 
0.479912 0.479892 0.479871 0.47985 0.479828 0.479806 0.479783 0.479759 0.479735 
0.479711 0.479686 0.479661 0.479636 0.479611 0.479585 0.47956 0.479535 0.479511 
0.479487 0.479463 0.47944 0.479418 0.479397 0.479376 0.479356 0.479337 0.479319 
0.479302 0.479286 0.479271 0.479257 0.479244 0.479231 0.47922 0.479208 0.479198 
0.479188 0.479178 0.479168 0.479158 0.479148 0.479138 0.479128 0.479117 0.479106 
0.479094 0.479081 0.479068 0.479055 0.479041 0.479026 0.479012 0.478997 0.478982 
0.478968 0.478954 0.478942 0.478931 0.478921 0.478913 0.478908 0.478905 0.478904 
0.478907 0.478913 0.478922 0.478933 0.478949 0.478967 0.478988 0.479011 0.479037 
0.479064 0.479093 0.479122 0.479152 0.479182 0.479211 0.479239 0.479265 0.47929 
0.479312 0.479332 0.479349 0.479364 0.479376 0.479386 0.479393 0.479398 0.479401 
0.479403 0.479404 0.479404 0.479404 0.479404 0.479405 0.479407 0.479411 0.479417 
0.479425 0.479436 0.47945 0.479467 0.479486 0.479508 0.479531 0.479556 0.479582 
0.479608 0.479634 0.47966 0.479684 0.479707 0.479727 0.479744 0.479759 0.47977 
0.479778 0.479782 0.479783 0.47978 0.479773 0.479764 0.479751 0.479735 0.479717 
0.479697 0.479674 0.47965 0.479624 0.479597 0.47957 0.479542 0.479515 0.479487 
0.47946 0.479435 0.47941 0.479386 0.479365 0.479344 0.479326 0.479309 0.479294 
0.479281 0.479269 0.47926 0.479251 0.479244 0.479238 0.479233 0.479229 0.479226 
0.479223 0.479222 0.47922 0.479219 0.479219 0.479219 0.479219 0.479219 0.47922 
0.479222 0.479224 0.479227 0.47923 0.479235 0.479241 0.479248 0.479256 0.479267 
0.47928 0.479295 0.479314 0.479336 0.479363 0.479394 0.479431 0.479475 0.479526 
0.479586 0.479655 0.479736 0.479829 0.479936 0.480058 0.480197 0.480355 0.480533 
0.480732 0.480943 0.481196 0.481503 0.48186 0.485386 0.485793 0.486126 0.48643 
0.486706 0.486955 0.487178 0.487378 0.487556 0.487716 0.487858 0.487984 0.488097 
0.488198 0.488287 0.488366 0.488438 0.488501 0.488558 0.488609 0.488654 0.488695 
0.488732 0.488766 0.488796 0.488823 0.488847 0.48887 0.48889 0.488908 0.488925 
0.488941 0.488955 0.488968 0.48898 0.488991 0.489001 0.48901 0.489019 0.489028 
0.489035 0.489042 0.489049 0.489056 0.489062 0.489067 0.489073 0.489078 0.489083 
0.489088 0.489093 0.489097 0.489102 0.489106 0.48911 0.489114 0.489118 0.489122 
0.489126 0.489129 0.489133 0.489137 0.48914 0.489144 0.489148 0.489151 0.489155 
0.489158 0.489161 0.489165 0.489168 0.489172 0.489175 0.489179 0.489182 0.489185 
0.489189 0.489192 0.489196 0.489199 0.489202 0.489206 0.489209 0.489213 0.489216 
0.48922 0.489223 0.489226 0.48923 0.489233 0.489237 0.48924 0.489244 0.489247 
0.489177 0.489164 0.483714 0.479989 0.479971 0.479952 0.479933 0.479913 0.479893 
0.479873 0.479852 0.47983 0.479807 0.479784 0.47976 0.479736 0.479712 0.479687 
0.479661 0.479636 0.47961 0.479585 0.479559 0.479534 0.479509 0.479485 0.479461 
0.479438 0.479416 0.479394 0.479373 0.479353 0.479334 0.479316 0.4793 0.479284 
0.479269 0.479255 0.479241 0.479229 0.479218 0.479207 0.479196 0.479186 0.479177 
0.479167 0.479158 0.479148 0.479139 0.479128 0.479118 0.479107 0.479095 0.479082 
0.479069 0.479055 0.479041 0.479026 0.479011 0.478996 0.47898 0.478965 0.478951 
0.478938 0.478926 0.478915 0.478907 0.478901 0.478897 0.478896 0.478898 0.478904 
0.478913 0.478925 0.47894 0.478959 0.478981 0.479005 0.479032 0.47906 0.47909 
0.479121 0.479152 0.479183 0.479214 0.479243 0.47927 0.479296 0.479319 0.479339 
0.479357 0.479371 0.479383 0.479392 0.479399 0.479403 0.479405 0.479406 0.479405 
0.479404 0.479403 0.479402 0.479402 0.479403 0.479405 0.47941 0.479417 0.479429 
0.479443 0.47946 0.47948 0.479502 0.479527 0.479553 0.47958 0.479608 0.479636 
0.479663 0.479689 0.479713 0.479734 0.479753 0.479768 0.47978 0.479788 0.479792 
0.479793 0.47979 0.479783 0.479773 0.479759 0.479743 0.479724 0.479702 0.479679 
0.479653 0.479627 0.479599 0.479571 0.479542 0.479513 0.479485 0.479457 0.479431 
0.479406 0.479382 0.47936 0.479339 0.479321 0.479304 0.479289 0.479276 0.479265 
0.479255 0.479247 0.47924 0.479235 0.47923 0.479227 0.479224 0.479222 0.47922 
0.479219 0.479218 0.479218 0.479217 0.479218 0.479218 0.479219 0.47922 0.479222 
0.479225 0.479228 0.479232 0.479237 0.479243 0.479251 0.47926 0.479272 0.479286 
0.479303 0.479324 0.479348 0.479378 0.479412 0.479453 0.479501 0.479557 0.479622 
0.479698 0.479786 0.479888 0.480006 0.48014 0.480293 0.480468 0.480667 0.480878 
0.481135 0.481411 0.481707 0.485398 0.485815 0.486154 0.486463 0.486741 0.486991 
0.487215 0.487414 0.487591 0.487748 0.487888 0.488013 0.488123 0.488221 0.488308 
0.488386 0.488455 0.488517 0.488572 0.488622 0.488666 0.488706 0.488742 0.488774 
0.488803 0.48883 0.488854 0.488875 0.488895 0.488913 0.488929 0.488944 0.488958 
0.488971 0.488983 0.488993 0.489003 0.489012 0.489021 0.489029 0.489037 0.489044 
0.48905 0.489057 0.489063 0.489068 0.489074 0.489079 0.489084 0.489089 0.489093 
0.489098 0.489102 0.489106 0.48911 0.489114 0.489118 0.489122 0.489126 0.48913 
0.489133 0.489137 0.489141 0.489144 0.489148 0.489151 0.489155 0.489158 0.489162 
0.489165 0.489168 0.489172 0.489175 0.489179 0.489182 0.489185 0.489189 0.489192 
0.489196 0.489199 0.489202 0.489206 0.489209 0.489213 0.489216 0.48922 0.489223 
0.489226 0.48923 0.489233 0.489237 0.48924 0.489244 0.489247 0.489177 0.489164 
0.483714 0.479989 0.479971 0.479953 0.479934 0.479915 0.479895 0.479875 0.479853 
0.479832 0.479809 0.479786 0.479762 0.479737 0.479712 0.479687 0.479661 0.479636 
0.47961 0.479584 0.479558 0.479532 0.479507 0.479483 0.479458 0.479435 0.479412 
0.47939 0.479369 0.479349 0.47933 0.479313 0.479296 0.47928 0.479265 0.479251 
0.479238 0.479226 0.479215 0.479204 0.479195 0.479185 0.479176 0.479167 0.479158 
0.479149 0.479139 0.479129 0.479119 0.479108 0.479096 0.479084 0.479071 0.479056 
0.479042 0.479026 0.47901 0.478994 0.478978 0.478962 0.478947 0.478932 0.478919 
0.478908 0.478898 0.478891 0.478887 0.478885 0.478887 0.478892 0.478901 0.478914 
0.478929 0.478949 0.478972 0.478997 0.479025 0.479055 0.479087 0.47912 0.479153 
0.479186 0.479218 0.479248 0.479277 0.479304 0.479328 0.479349 0.479367 0.479381 
0.479393 0.479401 0.479407 0.47941 0.479411 0.47941 0.479408 0.479405 0.479402 
0.479399 0.479397 0.479397 0.479398 0.479402 0.479406 0.479419 0.479434 0.479451 
0.479472 0.479495 0.479521 0.479549 0.479578 0.479608 0.479638 0.479668 0.479695 
0.479721 0.479744 0.479764 0.47978 0.479793 0.479801 0.479806 0.479806 0.479803 
0.479796 0.479785 0.47977 0.479753 0.479733 0.47971 0.479685 0.479658 0.47963 
0.479601 0.479571 0.479541 0.479511 0.479482 0.479453 0.479426 0.4794 0.479375 
0.479353 0.479332 0.479313 0.479297 0.479282 0.479269 0.479259 0.47925 0.479242 
0.479236 0.479231 0.479227 0.479224 0.479221 0.47922 0.479218 0.479217 0.479217 
0.479216 0.479216 0.479216 0.479217 0.479217 0.479218 0.47922 0.479222 0.479224 
0.479227 0.479232 0.479237 0.479244 0.479252 0.479262 0.479275 0.47929 0.479308 
0.47933 0.479356 0.479387 0.479424 0.479467 0.479519 0.479579 0.479649 0.479731 
0.479826 0.479936 0.480064 0.48021 0.480379 0.480573 0.480782 0.481035 0.481288 
0.481545 0.485414 0.485845 0.486193 0.486508 0.48679 0.487041 0.487265 0.487462 
0.487637 0.487792 0.487929 0.48805 0.488158 0.488253 0.488337 0.488412 0.488479 
0.488538 0.488591 0.488639 0.488682 0.48872 0.488755 0.488786 0.488814 0.488839 
0.488862 0.488883 0.488902 0.488919 0.488935 0.488949 0.488963 0.488975 0.488986 
0.488996 0.489006 0.489015 0.489023 0.489031 0.489038 0.489045 0.489052 0.489058 
0.489064 0.489069 0.489075 0.48908 0.489085 0.489089 0.489094 0.489098 0.489102 
0.489107 0.489111 0.489115 0.489119 0.489122 0.489126 0.48913 0.489134 0.489137 
0.489141 0.489144 0.489148 0.489151 0.489155 0.489158 0.489162 0.489165 0.489168 
0.489172 0.489175 0.489179 0.489182 0.489185 0.489189 0.489192 0.489196 0.489199 
0.489202 0.489206 0.489209 0.489213 0.489216 0.48922 0.489223 0.489226 0.48923 
0.489233 0.489237 0.48924 0.489244 0.489247 0.489177 0.489164 0.483714 0.479989 
0.479972 0.479954 0.479936 0.479917 0.479897 0.479877 0.479856 0.479834 0.479811 
0.479788 0.479764 0.479739 0.479714 0.479688 0.479662 0.479635 0.479609 0.479583 
0.479556 0.47953 0.479505 0.47948 0.479455 0.479431 0.479408 0.479386 0.479365 
0.479345 0.479326 0.479308 0.479291 0.479275 0.47926 0.479247 0.479234 0.479222 
0.479212 0.479202 0.479192 0.479183 0.479175 0.479166 0.479158 0.479149 0.47914 
0.479131 0.479121 0.47911 0.479098 0.479086 0.479072 0.479058 0.479043 0.479027 
0.47901 0.478993 0.478975 0.478958 0.478942 0.478926 0.478911 0.478899 0.478888 
0.478879 0.478874 0.478872 0.478873 0.478878 0.478887 0.478899 0.478916 0.478936 
0.47896 0.478987 0.479017 0.479049 0.479083 0.479118 0.479154 0.479189 0.479223 
0.479256 0.479286 0.479314 0.479339 0.479361 0.479379 0.479394 0.479405 0.479412 
0.479417 0.479418 0.479418 0.479415 0.479411 0.479406 0.4794 0.479395 0.479391 
0.479389 0.479389 0.479393 0.479403 0.479409 0.479422 0.47944 0.479461 0.479486 
0.479514 0.479544 0.479576 0.479609 0.479641 0.479673 0.479704 0.479731 0.479756 
0.479778 0.479796 0.479809 0.479818 0.479823 0.479823 0.479819 0.479811 0.479799 
0.479784 0.479765 0.479743 0.479719 0.479692 0.479664 0.479634 0.479603 0.479572 
0.47954 0.479509 0.479478 0.479448 0.479419 0.479392 0.479367 0.479344 0.479323 
0.479304 0.479288 0.479273 0.479261 0.479251 0.479242 0.479236 0.47923 0.479226 
0.479223 0.47922 0.479218 0.479217 0.479216 0.479215 0.479215 0.479215 0.479215 
0.479215 0.479215 0.479215 0.479216 0.479217 0.479218 0.47922 0.479222 0.479226 
0.47923 0.479235 0.479242 0.47925 0.479261 0.479273 0.479289 0.479307 0.47933 
0.479357 0.479389 0.479427 0.479473 0.479526 0.479589 0.479663 0.479749 0.47985 
0.479968 0.480105 0.480264 0.48045 0.480652 0.480899 0.481138 0.48137 0.485436 
0.485885 0.486245 0.486568 0.486854 0.487106 0.487329 0.487524 0.487696 0.487847 
0.48798 0.488097 0.4882 0.488292 0.488372 0.488444 0.488508 0.488564 0.488615 
0.48866 0.488701 0.488737 0.48877 0.488799 0.488826 0.48885 0.488872 0.488892 
0.48891 0.488926 0.488942 0.488955 0.488968 0.48898 0.48899 0.489 0.48901 
0.489018 0.489026 0.489034 0.489041 0.489047 0.489054 0.48906 0.489065 0.489071 
0.489076 0.489081 0.489086 0.48909 0.489095 0.489099 0.489103 0.489107 0.489111 
0.489115 0.489119 0.489123 0.489126 0.48913 0.489134 0.489137 0.489141 0.489144 
0.489148 0.489151 0.489155 0.489158 0.489162 0.489165 0.489169 0.489172 0.489175 
0.489179 0.489182 0.489186 0.489189 0.489192 0.489196 0.489199 0.489202 0.489206 
0.489209 0.489213 0.489216 0.48922 0.489223 0.489226 0.48923 0.489233 0.489237 
0.48924 0.489244 0.489247 0.489177 0.489164 0.483714 0.47999 0.479973 0.479956 
0.479938 0.479919 0.4799 0.47988 0.479859 0.479837 0.479814 0.47979 0.479766 
0.479741 0.479715 0.479689 0.479662 0.479635 0.479608 0.479581 0.479554 0.479528 
0.479502 0.479476 0.479451 0.479427 0.479403 0.479381 0.479359 0.479339 0.47932 
0.479302 0.479285 0.479269 0.479255 0.479241 0.479229 0.479218 0.479207 0.479198 
0.479189 0.479181 0.479173 0.479165 0.479157 0.479149 0.479141 0.479132 0.479123 
0.479112 0.479101 0.479088 0.479075 0.47906 0.479044 0.479027 0.479009 0.478991 
0.478973 0.478954 0.478936 0.478918 0.478902 0.478888 0.478875 0.478866 0.478859 
0.478855 0.478856 0.47886 0.478869 0.478882 0.478899 0.478921 0.478946 0.478975 
0.479007 0.479042 0.479078 0.479116 0.479154 0.479192 0.479229 0.479264 0.479297 
0.479326 0.479353 0.479375 0.479394 0.479409 0.479419 0.479426 0.479429 0.479429 
0.479426 0.479421 0.479414 0.479407 0.479398 0.479391 0.479384 0.47938 0.479378 
0.47938 0.479386 0.479394 0.479407 0.479425 0.479448 0.479475 0.479505 0.479538 
0.479573 0.479609 0.479645 0.47968 0.479713 0.479744 0.479772 0.479795 0.479814 
0.479829 0.479839 0.479844 0.479844 0.479839 0.47983 0.479817 0.4798 0.47978 
0.479756 0.47973 0.479701 0.479671 0.479639 0.479606 0.479572 0.479538 0.479505 
0.479472 0.479441 0.479411 0.479383 0.479357 0.479333 0.479312 0.479293 0.479277 
0.479263 0.479251 0.479242 0.479234 0.479228 0.479223 0.47922 0.479218 0.479216 
0.479215 0.479214 0.479214 0.479213 0.479213 0.479213 0.479213 0.479213 0.479213 
0.479213 0.479214 0.479214 0.479215 0.479215 0.479217 0.479219 0.479222 0.479225 
0.47923 0.479237 0.479245 0.479255 0.479267 0.479282 0.479301 0.479323 0.47935 
0.479382 0.47942 0.479466 0.47952 0.479584 0.479659 0.479749 0.479854 0.479978 
0.480123 0.480297 0.480488 0.480724 0.480953 0.481177 0.485466 0.485938 0.486313 
0.486644 0.486934 0.487187 0.487408 0.4876 0.487767 0.487913 0.488041 0.488153 
0.488251 0.488338 0.488414 0.488482 0.488542 0.488595 0.488643 0.488685 0.488723 
0.488758 0.488788 0.488816 0.488841 0.488864 0.488884 0.488903 0.48892 0.488935 
0.488949 0.488962 0.488974 0.488985 0.488995 0.489005 0.489014 0.489022 0.48903 
0.489037 0.489043 0.48905 0.489056 0.489062 0.489067 0.489072 0.489077 0.489082 
0.489087 0.489091 0.489096 0.4891 0.489104 0.489108 0.489112 0.489116 0.489119 
0.489123 0.489127 0.48913 0.489134 0.489138 0.489141 0.489145 0.489148 0.489152 
0.489155 0.489158 0.489162 0.489165 0.489169 0.489172 0.489175 0.489179 0.489182 
0.489186 0.489189 0.489192 0.489196 0.489199 0.489203 0.489206 0.489209 0.489213 
0.489216 0.48922 0.489223 0.489226 0.48923 0.489233 0.489237 0.48924 0.489244 
0.489247 0.489177 0.489164 0.483714 0.47999 0.479974 0.479958 0.47994 0.479922 
0.479903 0.479883 0.479862 0.47984 0.479817 0.479793 0.479768 0.479743 0.479717 
0.47969 0.479663 0.479635 0.479607 0.47958 0.479552 0.479525 0.479498 0.479472 
0.479446 0.479421 0.479397 0.479374 0.479353 0.479332 0.479313 0.479294 0.479277 
0.479262 0.479248 0.479235 0.479223 0.479212 0.479202 0.479193 0.479185 0.479178 
0.479171 0.479164 0.479157 0.47915 0.479142 0.479134 0.479125 0.479115 0.479104 
0.479091 0.479078 0.479062 0.479046 0.479028 0.479009 0.47899 0.47897 0.47895 
0.478929 0.47891 0.478892 0.478876 0.478861 0.47885 0.478842 0.478837 0.478837 
0.47884 0.478849 0.478862 0.47888 0.478903 0.47893 0.478961 0.478996 0.479033 
0.479073 0.479114 0.479155 0.479196 0.479236 0.479274 0.479309 0.479341 0.479369 
0.479392 0.479412 0.479426 0.479436 0.479442 0.479443 0.479441 0.479436 0.479429 
0.479419 0.479408 0.479397 0.479386 0.479376 0.479369 0.479365 0.479364 0.479368 
0.479376 0.479389 0.479408 0.479432 0.479461 0.479495 0.479531 0.47957 0.47961 
0.47965 0.479688 0.479725 0.479759 0.479789 0.479815 0.479836 0.479852 0.479862 
0.479867 0.479867 0.479861 0.479851 0.479836 0.479818 0.479796 0.47977 0.479742 
0.479711 0.479678 0.479643 0.479608 0.479572 0.479536 0.4795 0.479466 0.479432 
0.479401 0.479372 0.479345 0.47932 0.479298 0.47928 0.479264 0.47925 0.479239 