# vtk DataFile Version 5.1
vtk output
ASCII
DATASET UNSTRUCTURED_GRID
POINTS 10043 double
-10.1 1.4499999993 8.6074358308e-08 -10.049999999 1.4499999993 1.0829877084e-07 -10.049999999 1.5 -4.2207125261e-07 
-9.9999999985 1.4499999993 1.1536372568e-07 -9.9999999985 1.5 -4.417981927e-07 -9.9499999978 1.4499999993 1.1746647743e-07 
-9.9499999978 1.5 -4.49126901e-07 -9.899999997 1.4499999993 1.1845600767e-07 -9.899999997 1.5 -4.5235742618e-07 
-9.8499999963 1.4499999993 1.1882162454e-07 -9.8499999963 1.5 -4.5398209636e-07 -9.7999999955 1.4499999993 1.1905809316e-07 
-9.7999999955 1.5 -4.5500223678e-07 -9.7499999948 1.4499999993 1.1926728405e-07 -9.7499999948 1.5 -4.5569709073e-07 
-9.699999994 1.4499999993 1.1940552724e-07 -9.699999994 1.5 -4.5634646995e-07 -9.6499999933 1.4499999993 1.1957651225e-07 
-9.6499999933 1.5 -4.570576948e-07 -9.5999999925 1.4499999993 1.1986209358e-07 -9.5999999925 1.5 -4.5790716285e-07 
-9.5499999918 1.4499999993 1.2016040785e-07 -9.5499999918 1.5 -4.5881665756e-07 -9.4999999911 1.4499999993 1.2036777264e-07 
-9.4999999911 1.5 -4.6006812227e-07 -9.4499999903 1.4499999993 1.2068609578e-07 -9.4499999903 1.5 -4.6140507948e-07 
-9.3999999896 1.4499999993 1.2116267101e-07 -9.3999999896 1.5 -4.6286208999e-07 -9.3499999888 1.4499999993 1.2152101192e-07 
-9.3499999888 1.5 -4.6463924264e-07 -9.2999999881 1.4499999993 1.2201759603e-07 -9.2999999881 1.5 -4.6643822316e-07 
-9.2499999873 1.4499999993 1.2262513849e-07 -9.2499999873 1.5 -4.6853006097e-07 -9.1999999866 1.4499999993 1.2313445552e-07 
-9.1999999866 1.5 -4.7071316089e-07 -9.1499999858 1.4499999993 1.2372562708e-07 -9.1499999858 1.5 -4.7313028517e-07 
-9.0999999851 1.4499999993 1.2443685193e-07 -9.0999999851 1.5 -4.7556591198e-07 -9.0499999844 1.4499999993 1.2516626668e-07 
-9.0499999844 1.5 -4.781888947e-07 -8.9999999836 1.4499999993 1.2597207899e-07 -8.9999999836 1.5 -4.8104652706e-07 
-8.9499999829 1.4499999993 1.2671240768e-07 -8.9499999829 1.5 -4.8408060138e-07 -8.8999999821 1.4499999993 1.2747456424e-07 
-8.8999999821 1.5 -4.8717288337e-07 -8.8499999814 1.4499999993 1.2840042984e-07 -8.8499999814 1.5 -4.905489277e-07 
-8.7999999806 1.4499999993 1.2926444981e-07 -8.7999999806 1.5 -4.9403229241e-07 -8.7499999799 1.4499999993 1.3018667744e-07 
-8.7499999799 1.5 -4.976047876e-07 -8.6999999791 1.4499999993 1.3071418437e-07 -8.6999999791 1.5 -4.9949835557e-07 
-8.6499999784 1.4499999993 1.3178556912e-07 -8.6499999784 1.5 -5.034237347e-07 -8.5999999776 1.4499999993 1.3279328925e-07 
-8.5999999776 1.5 -5.0736548474e-07 -8.5499999769 1.4499999993 1.3396108045e-07 -8.5499999769 1.5 -5.1160009207e-07 
-8.4999999762 1.4499999993 1.3501791329e-07 -8.4999999762 1.5 -5.1591109695e-07 -8.4499999754 1.4499999993 1.3617479055e-07 
-8.4499999754 1.5 -5.2056770983e-07 -8.3999999747 1.4499999993 1.3742261729e-07 -8.3999999747 1.5 -5.2525160754e-07 
-8.3499999739 1.4499999993 1.3879049732e-07 -8.3499999739 1.5 -5.2989730648e-07 -8.2999999732 1.4499999993 1.4006742788e-07 
-8.2999999732 1.5 -5.3501230468e-07 -8.2499999724 1.4499999993 1.4137528126e-07 -8.2499999724 1.5 -5.4020370044e-07 
-8.1999999717 1.4499999993 1.4282865379e-07 -8.1999999717 1.5 -5.4558273632e-07 -8.1499999709 1.4499999993 1.4433295803e-07 
-8.1499999709 1.5 -5.5106124819e-07 -8.0999999702 1.4499999993 1.4576814067e-07 -8.0999999702 1.5 -5.5682380662e-07 
-8.0499999695 1.4499999993 1.4738522225e-07 -8.0499999695 1.5 -5.6277190197e-07 -7.9999999687 1.4499999993 1.4905141654e-07 
-7.9999999687 1.5 -5.6889825828e-07 -7.949999968 1.4499999993 1.5059210057e-07 -7.949999968 1.5 -5.7515558183e-07 
-7.8999999672 1.4499999993 1.523037696e-07 -7.8999999672 1.5 -5.816657449e-07 -7.8499999665 1.4499999993 1.5408728871e-07 
-7.8499999665 1.5 -5.8836599237e-07 -7.7999999657 1.4499999993 1.5581805712e-07 -7.7999999657 1.5 -5.9524904827e-07 
-7.749999965 1.4499999993 1.5775800932e-07 -7.749999965 1.5 -6.024022241e-07 -7.6999999642 1.4499999993 1.5962520195e-07 
-7.6999999642 1.5 -6.0980642047e-07 -7.6499999635 1.4499999993 1.615733396e-07 -7.6499999635 1.5 -6.1740433921e-07 
-7.5999999627 1.4499999993 1.6366426792e-07 -7.5999999627 1.5 -6.2521780819e-07 -7.549999962 1.4499999993 1.6573154937e-07 
-7.549999962 1.5 -6.3326075406e-07 -7.4999999613 1.4499999993 1.6792979807e-07 -7.4999999613 1.5 -6.4163509705e-07 
-7.4499999605 1.4499999993 1.7021626775e-07 -7.4499999605 1.5 -6.5012886807e-07 -7.3999999598 1.4499999993 1.7251910833e-07 
-7.3999999598 1.5 -6.58982799e-07 -7.349999959 1.4499999993 1.7488652304e-07 -7.349999959 1.5 -6.6811685429e-07 
-7.2999999583 1.4499999993 1.7737762903e-07 -7.2999999583 1.5 -6.7762744038e-07 -7.2499999575 1.4499999993 1.7987510148e-07 
-7.2499999575 1.5 -6.873235634e-07 -7.1999999568 1.4499999993 1.8252627854e-07 -7.1999999568 1.5 -6.9734073804e-07 
-7.149999956 1.4499999993 1.8526021961e-07 -7.149999956 1.5 -7.0768533078e-07 -7.0999999553 1.4499999993 1.8658262491e-07 
-7.0999999553 1.5 -7.1295403359e-07 -7.0499999546 1.4499999993 1.8945389968e-07 -7.0499999546 1.5 -7.2385614658e-07 
-6.9999999538 1.4499999993 1.9239975302e-07 -6.9999999538 1.5 -7.3503292697e-07 -6.9499999531 1.4499999993 1.9542018492e-07 
-6.9499999531 1.5 -7.4662807492e-07 -6.8999999523 1.4499999993 1.9858795497e-07 -6.8999999523 1.5 -7.5860521065e-07 
-6.8499999516 1.4499999993 2.0181666116e-07 -6.8499999516 1.5 -7.7095160123e-07 -6.7999999508 1.4499999993 2.0516542065e-07 
-6.7999999508 1.5 -7.837791145e-07 -6.7499999501 1.4499999993 2.0862695749e-07 -6.7499999501 1.5 -7.9700043898e-07 
-6.6999999493 1.4499999993 2.1218308177e-07 -6.6999999493 1.5 -8.1070106717e-07 -6.6499999486 1.4499999993 2.1583925047e-07 
-6.6499999486 1.5 -8.248237009e-07 -6.5999999478 1.4499999993 2.1971187891e-07 -6.5999999478 1.5 -8.3951294982e-07 
-6.5499999471 1.4499999993 2.2368728025e-07 -6.5499999471 1.5 -8.5461630306e-07 -6.4999999464 1.4499999993 2.2778546338e-07 
-6.4999999464 1.5 -8.7033299678e-07 -6.4499999456 1.4499999993 2.3204917454e-07 -6.4499999456 1.5 -8.866893495e-07 
-6.3999999449 1.4499999993 2.3647477576e-07 -6.3999999449 1.5 -9.0359958449e-07 -6.3499999441 1.4499999993 2.4112136998e-07 
-6.3499999441 1.5 -9.210891676e-07 -6.2999999434 1.4499999993 2.4580799618e-07 -6.2999999434 1.5 -9.3937637757e-07 
-6.2499999426 1.4499999993 2.507656518e-07 -6.2499999426 1.5 -9.5826294455e-07 -6.1999999419 1.4499999993 2.5593521968e-07 
-6.1999999419 1.5 -9.779780612e-07 -6.1499999411 1.4499999993 2.6132670428e-07 -6.1499999411 1.5 -9.9841759038e-07 
-6.0999999404 1.4499999993 2.6687143873e-07 -6.0999999404 1.5 -1.0197097708e-06 -6.0499999397 1.4499999993 2.7268038139e-07 
-6.0499999397 1.5 -1.0419364571e-06 -5.9999999389 1.4499999993 2.7872988539e-07 -5.9999999389 1.5 -1.0650730928e-06 
-5.9499999382 1.4499999993 2.8504905458e-07 -5.9499999382 1.5 -1.0891874354e-06 -5.8999999374 1.4499999993 2.9164243642e-07 
-5.8999999374 1.5 -1.1144335303e-06 -5.8499999367 1.4499999993 2.9856505535e-07 -5.8499999367 1.5 -1.1407671536e-06 
-5.7999999359 1.4499999993 3.0575733945e-07 -5.7999999359 1.5 -1.1683662251e-06 -5.7499999352 1.4499999993 3.1334025152e-07 
-5.7499999352 1.5 -1.1972440461e-06 -5.6999999344 1.4499999993 3.2123102756e-07 -5.6999999344 1.5 -1.2275293102e-06 
-5.6499999337 1.4499999993 3.2958428164e-07 -5.6499999337 1.5 -1.2593243355e-06 -5.5999999329 1.4499999993 3.3830542634e-07 
-5.5999999329 1.5 -1.2927246189e-06 -5.5499999322 1.4499999993 3.4286426853e-07 -5.5499999322 1.5 -1.3100749356e-06 
-5.4999999315 1.4499999993 3.5229300011e-07 -5.4999999315 1.5 -1.3462024526e-06 -5.4499999307 1.4499999993 3.6226970224e-07 
-5.4499999307 1.5 -1.3843152828e-06 -5.39999993 1.4499999993 3.7282620724e-07 -5.39999993 1.5 -1.4245258626e-06 
-5.3499999292 1.4499999993 3.8394250623e-07 -5.3499999292 1.5 -1.4671311419e-06 -5.2999999285 1.4499999993 3.9573956201e-07 
-5.2999999285 1.5 -1.5123061985e-06 -5.2499999277 1.4499999993 4.083242402e-07 -5.2499999277 1.5 -1.5602452095e-06 
-5.199999927 1.4499999993 4.2166789171e-07 -5.199999927 1.5 -1.6113237962e-06 -5.1499999262 1.4499999993 4.359619652e-07 
-5.1499999262 1.5 -1.6657975266e-06 -5.0999999255 1.4499999993 4.5123510972e-07 -5.0999999255 1.5 -1.724088861e-06 
-5.0499999247 1.4499999993 4.6759600991e-07 -5.0499999247 1.5 -1.7866220787e-06 -4.999999924 1.4499999993 4.8519063967e-07 
-4.999999924 1.5 -1.8539178654e-06 -4.9499999233 1.4499999993 5.0421772357e-07 -4.9499999233 1.5 -1.9265178253e-06 
-4.8999999225 1.4499999993 5.2477912504e-07 -4.8999999225 1.5 -2.0050929379e-06 -4.8499999218 1.4499999993 5.4715542319e-07 
-4.8499999218 1.5 -2.0905376914e-06 -4.799999921 1.4499999993 5.716024134e-07 -4.799999921 1.5 -2.1837604436e-06 
-4.7499999203 1.4499999993 5.983772553e-07 -4.7499999203 1.5 -2.2859858291e-06 -4.6999999195 1.4499999993 6.2787398747e-07 
-4.6999999195 1.5 -2.39858241e-06 -4.6499999188 1.4499999993 6.6055508796e-07 -4.6499999188 1.5 -2.523319381e-06 
-4.599999918 1.4499999993 6.9698558036e-07 -4.599999918 1.5 -2.6622569749e-06 -4.5499999173 1.4499999993 7.3782985055e-07 
-4.5499999173 1.5 -2.8180729714e-06 -4.4999999166 1.4499999993 7.8398761616e-07 -4.4999999166 1.5 -2.9940770219e-06 
-4.4499999158 1.4499999993 8.3654617811e-07 -4.4499999158 1.5 -3.1944391594e-06 -4.3999999151 1.4499999993 8.9692866823e-07 
-4.3999999151 1.5 -3.4245747429e-06 -4.3499999143 1.4499999993 9.6698613561e-07 -4.3499999143 1.5 -3.6914882457e-06 
-4.2999999136 1.4499999993 1.0492428828e-06 -4.2999999136 1.5 -4.0044587877e-06 -4.2499999128 1.4499999993 1.1469021501e-06 
-4.2499999128 1.5 -4.3760551307e-06 -4.1999999121 1.4499999993 1.264614184e-06 -4.1999999121 1.5 -4.8233941925e-06 
-4.1499999113 1.4499999993 1.4087047475e-06 -4.1499999113 1.5 -5.3704866332e-06 -4.0999999106 1.4499999993 1.5884165805e-06 
-4.0999999106 1.5 -6.0518841565e-06 -4.0499999098 1.4499999993 1.8173982426e-06 -4.0499999098 1.5 -6.9186639848e-06 
-3.9999999091 1.4499999993 2.1167159048e-06 -3.9999999091 1.5 -8.0490499386e-06 -3.9499999084 1.4499999993 2.3025834253e-06 
[...]
CELL_DATA 9510
FIELD FieldData 4
Water_Depth_m 1 9510 float
0.584001 0.584002 0.584003 0.584005 0.584006 0.584007 0.584008 0.584009 0.58401 
0.584011 0.584012 0.584013 0.584014 0.584016 0.584017 0.584018 0.584019 0.58402 
0.584021 0.584022 0.584023 0.584025 0.584026 0.584027 0.584028 0.584029 0.58403 
0.584031 0.584032 0.584033 0.584035 0.584036 0.584037 0.584038 0.584039 0.58404 
0.584041 0.584042 0.584043 0.584045 0.584046 0.584047 0.584048 0.584049 0.58405 
0.584051 0.584052 0.584053 0.584055 0.584056 0.584057 0.584058 0.584059 0.58406 
0.584061 0.584062 0.584063 0.584064 0.584065 0.584067 0.584068 0.584069 0.58407 
0.584071 0.584072 0.584073 0.584074 0.584075 0.584076 0.584078 0.584079 0.58408 
0.584081 0.584082 0.584083 0.584084 0.584085 0.584086 0.584087 0.584089 0.58409 
0.584091 0.584092 0.584093 0.584094 0.584095 0.584096 0.584097 0.584099 0.5841 
0.584101 0.584102 0.584103 0.584104 0.584105 0.584107 0.584108 0.584109 0.58411 
0.584111 0.584113 0.584114 0.584115 0.584116 0.584118 0.584119 0.58412 0.584122 
0.584123 0.584125 0.584126 0.584127 0.584129 0.584131 0.584132 0.584134 0.584136 
0.584138 0.58414 0.584143 0.584145 0.584148 0.584151 0.584155 0.584159 0.584165 
0.584173 0.584186 0.584211 0.58429 0.584537 0.58439 0.57779 0.56166 0.538059 
0.508936 0.475762 0.439784 0.402135 0.363925 0.327111 0.291737 0.258918 0.230086 
0.207006 0.191629 0.183539 0.181754 0.185664 0.191208 0.197301 0.20183 0.205272 
0.209293 0.216711 0.22584 0.233223 0.237775 0.240073 0.241964 0.242566 0.239649 
0.233996 0.233494 0.234165 0.237381 0.240923 0.244627 0.247821 0.251425 0.254857 
0.257378 0.260775 0.263445 0.2659 0.269089 0.271036 0.272497 0.273158 0.274384 
0.280046 0.287826 0.292459 0.297215 0.297733 0.306218 0.315329 0.325134 0.340214 
0.360328 0.383943 0.408105 0.444474 0.473696 0.497685 0.526138 0.544747 0.5568 
0.625136 0.587148 0.527531 0.503531 0.481945 0.440321 0.40581 0.373146 0.370176 
0.370173 0.370171 0.370175 0.370182 0.370189 0.370195 0.370201 0.370207 0.370212 
0.370218 0.370223 0.370229 0.370234 0.37024 0.370245 0.370251 0.370256 0.370261 
0.370267 0.370272 0.370278 0.370283 0.370289 0.370294 0.3703 0.370305 0.37031 
0.370316 0.370321 0.370327 0.370332 0.370338 0.370343 0.370349 0.370354 0.370359 
0.370365 0.37037 0.370376 0.370381 0.370387 0.370392 0.370398 0.370403 0.370409 
0.370414 0.37042 0.370425 0.370431 0.370436 0.370442 0.370447 0.370453 0.370458 
0.370464 0.370469 0.370475 0.37048 0.370486 0.370491 0.370497 0.370502 0.370508 
0.370513 0.370519 0.370524 0.37053 0.370535 0.370541 0.370546 0.370552 0.370557 
0.370563 0.370568 0.370574 0.370579 0.370585 0.37059 0.370596 0.370601 0.370607 
0.370612 0.370618 0.370623 0.370623 0.370559 0.370266 0.364616 0.584001 0.584002 
0.584003 0.584004 0.584005 0.584006 0.584007 0.584008 0.58401 0.584011 0.584012 
0.584013 0.584014 0.584015 0.584016 0.584017 0.584018 0.58402 0.584021 0.584022 
0.584023 0.584024 0.584025 0.584026 0.584027 0.584028 0.58403 0.584031 0.584032 
0.584033 0.584034 0.584035 0.584036 0.584037 0.584038 0.58404 0.584041 0.584042 
0.584043 0.584044 0.584045 0.584046 0.584047 0.584048 0.58405 0.584051 0.584052 
0.584053 0.584054 0.584055 0.584056 0.584057 0.584058 0.584059 0.58406 0.584062 
0.584063 0.584064 0.584065 0.584066 0.584067 0.584068 0.584069 0.58407 0.584071 
0.584072 0.584073 0.584075 0.584076 0.584077 0.584078 0.584079 0.58408 0.584081 
0.584082 0.584083 0.584084 0.584085 0.584086 0.584088 0.584089 0.58409 0.584091 
0.584092 0.584093 0.584094 0.584095 0.584096 0.584097 0.584098 0.584099 0.584101 
0.584102 0.584103 0.584104 0.584105 0.584106 0.584107 0.584108 0.58411 0.584111 
0.584112 0.584113 0.584114 0.584116 0.584117 0.584118 0.584119 0.584121 0.584122 
0.584123 0.584125 0.584126 0.584127 0.584129 0.58413 0.584132 0.584134 0.584135 
0.584137 0.584139 0.584141 0.584143 0.584145 0.584147 0.584149 0.584151 0.584154 
0.584157 0.584162 0.584203 0.584138 0.578237 0.562982 0.539991 0.511054 0.477713 
0.44131 0.403066 0.364152 0.326177 0.290032 0.256708 0.227689 0.205004 0.189402 
0.181119 0.180226 0.185021 0.191991 0.199132 0.204264 0.208285 0.214525 0.220793 
0.228317 0.232099 0.237447 0.240316 0.240732 0.240528 0.23788 0.233251 0.232612 
0.235096 0.238731 0.24223 0.244477 0.247271 0.250484 0.254078 0.256841 0.259879 
0.262583 0.265375 0.268616 0.271051 0.27306 0.274612 0.277346 0.282937 0.29039 
0.293909 0.30271 0.304985 0.311193 0.319424 0.32869 0.339821 0.353745 0.379977 
0.411076 0.448525 0.485975 0.51198 0.539717 0.549921 0.555346 0.624867 0.587088 
0.527863 0.503527 0.481796 0.440212 0.405903 0.37372 0.370198 0.370185 0.370175 
0.370176 0.37018 0.370186 0.370191 0.370197 0.370202 0.370208 0.370214 0.370219 
0.370225 0.37023 0.370236 0.370241 0.370247 0.370253 0.370258 0.370264 0.370269 
0.370275 0.37028 0.370286 0.370291 0.370297 0.370302 0.370308 0.370313 0.370319 
0.370324 0.37033 0.370336 0.370341 0.370347 0.370352 0.370358 0.370363 0.370369 
0.370374 0.37038 0.370385 0.370391 0.370396 0.370402 0.370407 0.370413 0.370418 
0.370424 0.370429 0.370435 0.37044 0.370446 0.370451 0.370457 0.370462 0.370468 
0.370473 0.370479 0.370484 0.37049 0.370495 0.370501 0.370506 0.370512 0.370517 
0.370523 0.370529 0.370534 0.37054 0.370545 0.370551 0.370556 0.370562 0.370567 
0.370573 0.370578 0.370584 0.370589 0.370595 0.3706 0.370606 0.370611 0.370617 
0.370622 0.370622 0.370558 0.370265 0.364613 0.584001 0.584002 0.584003 0.584004 
0.584005 0.584006 0.584007 0.584008 0.58401 0.584011 0.584012 0.584013 0.584014 
0.584015 0.584016 0.584017 0.584019 0.58402 0.584021 0.584022 0.584023 0.584024 
0.584025 0.584026 0.584027 0.584029 0.58403 0.584031 0.584032 0.584033 0.584034 
0.584035 0.584036 0.584037 0.584038 0.58404 0.584041 0.584042 0.584043 0.584044 
0.584045 0.584046 0.584047 0.584048 0.58405 0.584051 0.584052 0.584053 0.584054 
0.584055 0.584056 0.584057 0.584058 0.584059 0.58406 0.584062 0.584063 0.584064 
0.584065 0.584066 0.584067 0.584068 0.584069 0.58407 0.584071 0.584072 0.584074 
0.584075 0.584076 0.584077 0.584078 0.584079 0.58408 0.584081 0.584082 0.584083 
0.584084 0.584085 0.584086 0.584088 0.584089 0.58409 0.584091 0.584092 0.584093 
0.584094 0.584095 0.584096 0.584097 0.584098 0.5841 0.584101 0.584102 0.584103 
0.584104 0.584105 0.584106 0.584107 0.584109 0.58411 0.584111 0.584112 0.584113 
0.584114 0.584116 0.584117 0.584118 0.584119 0.584121 0.584122 0.584123 0.584125 
0.584126 0.584127 0.584129 0.58413 0.584132 0.584134 0.584135 0.584137 0.584139 
0.584141 0.584143 0.584145 0.584147 0.584149 0.584152 0.584155 0.584159 0.584168 
0.584267 0.584138 0.578434 0.563654 0.541152 0.512514 0.479234 0.442674 0.404099 
0.364724 0.325741 0.288974 0.255278 0.226109 0.204755 0.188278 0.179547 0.179344 
0.184889 0.192358 0.200177 0.205824 0.210041 0.215223 0.220688 0.226576 0.22911 
0.232958 0.236243 0.236215 0.232214 0.228582 0.228937 0.230686 0.234263 0.238437 
0.242371 0.244298 0.245638 0.248023 0.250914 0.254167 0.257578 0.260159 0.26312 
0.266191 0.269175 0.272043 0.274623 0.277582 0.282727 0.290005 0.295452 0.300197 
0.305055 0.310518 0.317398 0.327948 0.337176 0.351761 0.384167 0.42279 0.450488 
0.490644 0.525761 0.547962 0.556094 0.558061 0.624926 0.586882 0.527537 0.503539 
0.481787 0.440175 0.405813 0.37351 0.370158 0.370164 0.370169 0.370174 0.37018 
0.370186 0.370191 0.370197 0.370203 0.370208 0.370214 0.370219 0.370225 0.370231 
0.370236 0.370242 0.370247 0.370253 0.370258 0.370264 0.370269 0.370275 0.37028 
0.370286 0.370291 0.370297 0.370302 0.370308 0.370314 0.370319 0.370325 0.37033 
0.370336 0.370341 0.370347 0.370352 0.370358 0.370363 0.370369 0.370374 0.37038 
0.370385 0.370391 0.370396 0.370402 0.370407 0.370413 0.370418 0.370424 0.370429 
0.370435 0.37044 0.370446 0.370451 0.370457 0.370462 0.370468 0.370473 0.370479 
0.370485 0.37049 0.370496 0.370501 0.370507 0.370512 0.370518 0.370523 0.370529 
0.370534 0.37054 0.370545 0.370551 0.370556 0.370562 0.370567 0.370573 0.370578 
0.370584 0.370589 0.370595 0.3706 0.370606 0.370611 0.370617 0.370622 0.370622 
0.370558 0.370265 0.364613 0.584001 0.584002 0.584003 0.584004 0.584005 0.584006 
0.584007 0.584008 0.58401 0.584011 0.584012 0.584013 0.584014 0.584015 0.584016 
0.584017 0.584019 0.58402 0.584021 0.584022 0.584023 0.584024 0.584025 0.584026 
0.584027 0.584029 0.58403 0.584031 0.584032 0.584033 0.584034 0.584035 0.584036 
0.584037 0.584038 0.58404 0.584041 0.584042 0.584043 0.584044 0.584045 0.584046 
0.584047 0.584048 0.58405 0.584051 0.584052 0.584053 0.584054 0.584055 0.584056 
0.584057 0.584058 0.584059 0.58406 0.584062 0.584063 0.584064 0.584065 0.584066 
0.584067 0.584068 0.584069 0.58407 0.584071 0.584072 0.584073 0.584075 0.584076 
0.584077 0.584078 0.584079 0.58408 0.584081 0.584082 0.584083 0.584084 0.584085 
0.584086 0.584087 0.584089 0.58409 0.584091 0.584092 0.584093 0.584094 0.584095 
0.584096 0.584097 0.584098 0.584099 0.584101 0.584102 0.584103 0.584104 0.584105 
0.584106 0.584107 0.584108 0.584109 0.584111 0.584112 0.584113 0.584114 0.584115 
0.584117 0.584118 0.584119 0.58412 0.584122 0.584123 0.584124 0.584126 0.584127 
0.584128 0.58413 0.584132 0.584133 0.584135 0.584136 0.584138 0.58414 0.584142 
0.584144 0.584146 0.584148 0.58415 0.584152 0.584155 0.584157 0.584248 0.584135 
0.578546 0.564069 0.541955 0.513655 0.480583 0.444076 0.405403 0.365787 0.326414 
0.288505 0.254245 0.225164 0.203678 0.187638 0.178406 0.178756 0.184788 0.192386 
0.200024 0.205798 0.210429 0.214776 0.218186 0.219196 0.222467 0.225446 0.226988 
0.227123 0.226536 0.226235 0.226928 0.228157 0.230154 0.235246 0.239708 0.242215 
0.243847 0.246631 0.249406 0.252413 0.25601 0.258668 0.261352 0.264082 0.26499 
0.267114 0.270432 0.273481 0.277548 0.283716 0.291395 0.291284 0.294986 0.298893 
0.302276 0.317021 0.327891 0.350995 0.383681 0.421743 0.449043 0.48933 0.524497 
0.548306 0.559396 0.561047 0.624975 0.586884 0.52754 0.503543 0.481791 0.440176 
0.405817 0.373547 0.37016 0.370166 0.370169 0.370174 0.37018 0.370186 0.370191 
0.370197 0.370202 0.370208 0.370214 0.370219 0.370225 0.37023 0.370236 0.370241 
0.370247 0.370252 0.370258 0.370264 0.370269 0.370275 0.37028 0.370286 0.370291 
0.370297 0.370302 0.370308 0.370313 0.370319 0.370324 0.37033 0.370335 0.370341 
0.370346 0.370352 0.370358 0.370363 0.370369 0.370374 0.37038 0.370385 0.370391 
0.370396 0.370402 0.370407 0.370413 0.370418 0.370424 0.370429 0.370435 0.37044 
0.370446 0.370451 0.370457 0.370462 0.370468 0.370473 0.370479 0.370484 0.37049 
0.370495 0.370501 0.370506 0.370512 0.370517 0.370523 0.370529 0.370534 0.37054 
0.370545 0.370551 0.370556 0.370562 0.370567 0.370573 0.370578 0.370584 0.370589 
0.370595 0.3706 0.370606 0.370611 0.370617 0.370622 0.370622 0.370558 0.370264 
0.364613 0.584001 0.584002 0.584003 0.584004 0.584005 0.584006 0.584007 0.584008 
0.58401 0.584011 0.584012 0.584013 0.584014 0.584015 0.584016 0.584017 0.584019 
0.58402 0.584021 0.584022 0.584023 0.584024 0.584025 0.584026 0.584027 0.584029 
0.58403 0.584031 0.584032 0.584033 0.584034 0.584035 0.584036 0.584037 0.584038 
0.58404 0.584041 0.584042 0.584043 0.584044 0.584045 0.584046 0.584047 0.584048 
0.58405 0.584051 0.584052 0.584053 0.584054 0.584055 0.584056 0.584057 0.584058 
0.584059 0.58406 0.584062 0.584063 0.584064 0.584065 0.584066 0.584067 0.584068 
0.584069 0.58407 0.584071 0.584072 0.584073 0.584075 0.584076 0.584077 0.584078 
0.584079 0.58408 0.584081 0.584082 0.584083 0.584084 0.584085 0.584086 0.584088 
0.584089 0.58409 0.584091 0.584092 0.584093 0.584094 0.584095 0.584096 0.584097 
0.584098 0.584099 0.584101 0.584102 0.584103 0.584104 0.584105 0.584106 0.584107 
0.584108 0.584109 0.584111 0.584112 0.584113 0.584114 0.584115 0.584117 0.584118 
0.584119 0.58412 0.584122 0.584123 0.584124 0.584126 0.584127 0.584128 0.58413 
0.584131 0.584133 0.584134 0.584136 0.584138 0.58414 0.584142 0.584144 0.584146 
0.584148 0.58415 0.584152 0.584155 0.584159 0.58425 0.584136 0.578635 0.564406 
0.542647 0.514725 0.48198 0.44571 0.407166 0.367557 0.328045 0.289789 0.254041 
0.222846 0.198284 0.183276 0.176569 0.178762 0.184882 0.192147 0.198992 0.204377 
0.208631 0.210645 0.212686 0.215776 0.216932 0.21959 0.222555 0.223373 0.224187 
0.225317 0.226222 0.227359 0.229903 0.236425 0.242414 0.245177 0.247057 0.250067 
0.252891 0.255273 0.25849 0.260588 0.261961 0.263137 0.26522 0.267836 0.270758 
0.272193 0.273952 0.276579 0.282015 0.290418 0.292837 0.295186 0.306926 0.317535 
0.328785 0.36072 0.383688 0.41811 0.458768 0.486697 0.516138 0.545146 0.556951 
0.558065 0.625025 0.587101 0.527822 0.503531 0.481801 0.440206 0.405895 0.373583 
0.370158 0.370164 0.370169 0.370174 0.37018 0.370186 0.370191 0.370197 0.370202 
0.370208 0.370214 0.370219 0.370225 0.37023 0.370236 0.370241 0.370247 0.370253 
0.370258 0.370264 0.370269 0.370275 0.37028 0.370286 0.370291 0.370297 0.370302 
0.370308 0.370313 0.370319 0.370324 0.37033 0.370335 0.370341 0.370346 0.370352 
0.370358 0.370363 0.370369 0.370374 0.37038 0.370385 0.370391 0.370396 0.370402 
0.370407 0.370413 0.370418 0.370424 0.370429 0.370435 0.37044 0.370446 0.370451 
0.370457 0.370462 0.370468 0.370473 0.370479 0.370484 0.37049 0.370495 0.370501 
0.370506 0.370512 0.370517 0.370523 0.370529 0.370534 0.37054 0.370545 0.370551 
0.370556 0.370562 0.370567 0.370573 0.370578 0.370584 0.370589 0.370595 0.3706 
0.370606 0.370611 0.370617 0.370622 0.370622 0.370558 0.370264 0.364613 0.584001 
0.584002 0.584003 0.584004 0.584005 0.584006 0.584007 0.584008 0.58401 0.584011 
0.584012 0.584013 0.584014 0.584015 0.584016 0.584017 0.584019 0.58402 0.584021 
0.584022 0.584023 0.584024 0.584025 0.584026 0.584027 0.584029 0.58403 0.584031 
0.584032 0.584033 0.584034 0.584035 0.584036 0.584037 0.584039 0.58404 0.584041 
0.584042 0.584043 0.584044 0.584045 0.584046 0.584047 0.584048 0.58405 0.584051 
0.584052 0.584053 0.584054 0.584055 0.584056 0.584057 0.584058 0.584059 0.58406 
0.584062 0.584063 0.584064 0.584065 0.584066 0.584067 0.584068 0.584069 0.58407 
0.584071 0.584072 0.584074 0.584075 0.584076 0.584077 0.584078 0.584079 0.58408 
0.584081 0.584082 0.584083 0.584084 0.584085 0.584086 0.584088 0.584089 0.58409 
0.584091 0.584092 0.584093 0.584094 0.584095 0.584096 0.584097 0.584098 0.584099 
0.584101 0.584102 0.584103 0.584104 0.584105 0.584106 0.584107 0.584108 0.584109 
0.584111 0.584112 0.584113 0.584114 0.584115 0.584116 0.584118 0.584119 0.58412 
0.584121 0.584123 0.584124 0.584125 0.584127 0.584128 0.58413 0.584131 0.584133 
0.584134 0.584136 0.584138 0.584139 0.584141 0.584143 0.584145 0.584147 0.584149 
0.584152 0.584154 0.584158 0.584249 0.584136 0.578729 0.564751 0.543367 0.515883 
0.483586 0.447729 0.409538 0.370212 0.33091 0.292797 0.257095 0.225298 0.199657 
0.18457 0.178599 0.180499 0.185866 0.192221 0.198954 0.202854 0.203651 0.205064 
0.207131 0.210962 0.213035 0.215319 0.216174 0.217337 0.219267 0.223764 0.227061 
0.229836 0.23224 0.237923 0.243113 0.245851 0.24772 0.25008 0.252979 0.255516 
0.25847 0.263488 0.266698 0.269079 0.271823 0.274449 0.27759 0.28112 0.28553 
0.294441 0.307593 0.308366 0.321512 0.325418 0.325776 0.337976 0.347553 0.358187 
0.38249 0.413763 0.452835 0.480844 0.510238 0.534582 0.541051 0.542357 0.625073 
0.587102 0.52783 0.503532 0.481801 0.440207 0.405895 0.373589 0.370159 0.370164 
0.370169 0.370175 0.37018 0.370186 0.370191 0.370197 0.370202 0.370208 0.370214 
0.370219 0.370225 0.37023 0.370236 0.370241 0.370247 0.370252 0.370258 0.370264 
0.370269 0.370275 0.37028 0.370286 0.370291 0.370297 0.370302 0.370308 0.370313 
0.370319 0.370324 0.37033 0.370335 0.370341 0.370346 0.370352 0.370358 0.370363 
0.370369 0.370374 0.37038 0.370385 0.370391 0.370396 0.370402 0.370407 0.370413 
0.370418 0.370424 0.370429 0.370435 0.37044 0.370446 0.370451 0.370457 0.370462 
0.370468 0.370473 0.370479 0.370484 0.37049 0.370495 0.370501 0.370506 0.370512 
0.370517 0.370523 0.370529 0.370534 0.37054 0.370545 0.370551 0.370556 0.370562 
0.370567 0.370573 0.370578 0.370584 0.370589 0.370595 0.3706 0.370606 0.370611 
0.370617 0.370622 0.370622 0.370558 0.370264 0.364613 0.584001 0.584002 0.584003 
0.584004 0.584005 0.584006 0.584007 0.584008 0.58401 0.584011 0.584012 0.584013 
0.584014 0.584015 0.584016 0.584017 0.584019 0.58402 0.584021 0.584022 0.584023 
0.584024 0.584025 0.584026 0.584027 0.584029 0.58403 0.584031 0.584032 0.584033 
0.584034 0.584035 0.584036 0.584037 0.584039 0.58404 0.584041 0.584042 0.584043 
0.584044 0.584045 0.584046 0.584047 0.584049 0.58405 0.584051 0.584052 0.584053 
0.584054 0.584055 0.584056 0.584057 0.584058 0.584059 0.584061 0.584062 0.584063 
0.584064 0.584065 0.584066 0.584067 0.584068 0.584069 0.58407 0.584071 0.584072 
0.584074 0.584075 0.584076 0.584077 0.584078 0.584079 0.58408 0.584081 0.584082 
0.584083 0.584084 0.584085 0.584086 0.584088 0.584089 0.58409 0.584091 0.584092 
0.584093 0.584094 0.584095 0.584096 0.584097 0.584098 0.584099 0.584101 0.584102 
0.584103 0.584104 0.584105 0.584106 0.584107 0.584108 0.584109 0.584111 0.584112 
0.584113 0.584114 0.584115 0.584116 0.584118 0.584119 0.58412 0.584121 0.584123 
0.584124 0.584125 0.584127 0.584128 0.584129 0.584131 0.584132 0.584134 0.584135 
0.584137 0.584139 0.584141 0.584143 0.584145 0.584147 0.584149 0.584152 0.584154 
0.584158 0.584248 0.584137 0.578838 0.565143 0.544184 0.51722 0.485491 0.450214 
0.41259 0.373809 0.335054 0.29758 0.262794 0.232364 0.208222 0.192552 0.184769 
0.183839 0.187888 0.192917 0.198004 0.201519 0.203272 0.20465 0.206754 0.210386 
0.212598 0.214505 0.215349 0.215481 0.218137 0.223195 0.226488 0.229254 0.232215 
0.238231 0.243535 0.246074 0.247877 0.249773 0.251239 0.255178 0.261268 0.263773 
0.267519 0.272181 0.274173 0.276453 0.280981 0.28777 0.292582 0.298583 0.307985 
0.311434 0.322574 0.328386 0.329555 0.341304 0.357802 0.35886 0.373556 0.396174 
0.430726 0.463005 0.492209 0.516732 0.530017 0.539576 0.62512 0.5871 0.527823 
0.50353 0.481805 0.440207 0.405894 0.373586 0.370159 0.370164 0.370169 0.370175 
0.37018 0.370186 0.370191 0.370197 0.370203 0.370208 0.370214 0.370219 0.370225 
0.37023 0.370236 0.370241 0.370247 0.370252 0.370258 0.370264 0.370269 0.370275 
0.37028 0.370286 0.370291 0.370297 0.370302 0.370308 0.370313 0.370319 0.370324 
0.37033 0.370335 0.370341 0.370347 0.370352 0.370358 0.370363 0.370369 0.370374 
0.37038 0.370385 0.370391 0.370396 0.370402 0.370407 0.370413 0.370418 0.370424 
0.370429 0.370435 0.37044 0.370446 0.370451 0.370457 0.370462 0.370468 0.370473 
0.370479 0.370484 0.37049 0.370495 0.370501 0.370506 0.370512 0.370517 0.370523 
0.370529 0.370534 0.37054 0.370545 0.370551 0.370556 0.370562 0.370567 0.370573 
0.370578 0.370584 0.370589 0.370595 0.3706 0.370606 0.370611 0.370617 0.370622 
0.370622 0.370558 0.370264 0.364613 0.584001 0.584002 0.584003 0.584004 0.584005 
0.584006 0.584007 0.584008 0.58401 0.584011 0.584012 0.584013 0.584014 0.584015 
0.584016 0.584017 0.584019 0.58402 0.584021 0.584022 0.584023 0.584024 0.584025 
0.584026 0.584028 0.584029 0.58403 0.584031 0.584032 0.584033 0.584034 0.584035 
0.584036 0.584037 0.584039 0.58404 0.584041 0.584042 0.584043 0.584044 0.584045 
0.584046 0.584047 0.584049 0.58405 0.584051 0.584052 0.584053 0.584054 0.584055 
0.584056 0.584057 0.584058 0.584059 0.584061 0.584062 0.584063 0.584064 0.584065 
0.584066 0.584067 0.584068 0.584069 0.58407 0.584071 0.584073 0.584074 0.584075 
0.584076 0.584077 0.584078 0.584079 0.58408 0.584081 0.584082 0.584083 0.584084 
0.584085 0.584087 0.584088 0.584089 0.58409 0.584091 0.584092 0.584093 0.584094 
0.584095 0.584096 0.584097 0.584098 0.584099 0.584101 0.584102 0.584103 0.584104 
0.584105 0.584106 0.584107 0.584108 0.584109 0.584111 0.584112 0.584113 0.584114 
0.584115 0.584116 0.584118 0.584119 0.58412 0.584121 0.584122 0.584124 0.584125 
0.584126 0.584128 0.584129 0.584131 0.584132 0.584134 0.584135 0.584137 0.584138 
0.58414 0.584142 0.584144 0.584146 0.584148 0.584151 0.584154 0.584158 0.584246 
0.584137 0.578965 0.565595 0.545122 0.518763 0.487719 0.453176 0.416305 0.378277 