# vtk DataFile Version 5.1
vtk output
ASCII
DATASET UNSTRUCTURED_GRID
POINTS 10043 double
-10.1 1.4499999993 -2.1070103173e-07 -10.049999999 1.4499999993 -1.1911856035e-07 -10.049999999 1.5 4.3043814912e-07 
-9.9999999985 1.4499999993 -8.3775596238e-08 -9.9999999985 1.5 3.1405920708e-07 -9.9499999978 1.4499999993 -6.6266004239e-08 
-9.9499999978 1.5 2.5035637918e-07 -9.899999997 1.4499999993 -5.5230191975e-08 -9.899999997 1.5 2.0955282309e-07 
-9.8499999963 1.4499999993 -4.7554056692e-08 -9.8499999963 1.5 1.8083798636e-07 -9.7999999955 1.4499999993 -4.1867895817e-08 
-9.7999999955 1.5 1.5949423471e-07 -9.7499999948 1.4499999993 -3.7516873164e-08 -9.7499999948 1.5 1.4295598305e-07 
-9.699999994 1.4499999993 -3.4017137551e-08 -9.699999994 1.5 1.297810428e-07 -9.6499999933 1.4499999993 -3.1265006584e-08 
-9.6499999933 1.5 1.1901625641e-07 -9.5999999925 1.4499999993 -2.8843933464e-08 -9.5999999925 1.5 1.1007592349e-07 
-9.5499999918 1.4499999993 -2.6899433792e-08 -9.5499999918 1.5 1.0257804917e-07 -9.4999999911 1.4499999993 -2.5180488805e-08 
-9.4999999911 1.5 9.6186120402e-08 -9.4499999903 1.4499999993 -2.3807151805e-08 -9.4499999903 1.5 9.070368634e-08 
-9.3999999896 1.4499999993 -2.2492022467e-08 -9.3999999896 1.5 8.6043435488e-08 -9.3499999888 1.4499999993 -2.1549785956e-08 
-9.3499999888 1.5 8.195070933e-08 -9.2999999881 1.4499999993 -2.0540246837e-08 -9.2999999881 1.5 7.8447335738e-08 
-9.2499999873 1.4499999993 -1.9789004213e-08 -9.2499999873 1.5 7.5247733378e-08 -9.1999999866 1.4499999993 -1.891407031e-08 
-9.1999999866 1.5 7.2597678979e-08 -9.1499999858 1.4499999993 -1.8413848224e-08 -9.1499999858 1.5 7.0223684645e-08 
-9.0999999851 1.4499999993 -1.7853599488e-08 -9.0999999851 1.5 6.8106380979e-08 -9.0499999844 1.4499999993 -1.7407947084e-08 
-9.0499999844 1.5 6.6205537053e-08 -8.9999999836 1.4499999993 -1.6925914892e-08 -8.9999999836 1.5 6.4721241699e-08 
-8.9499999829 1.4499999993 -1.6556660043e-08 -8.9499999829 1.5 6.3280602092e-08 -8.8999999821 1.4499999993 -1.6285630622e-08 
-8.8999999821 1.5 6.2025499403e-08 -8.8499999814 1.4499999993 -1.6032791095e-08 -8.8499999814 1.5 6.1065072998e-08 
-8.7999999806 1.4499999993 -1.5769037631e-08 -8.7999999806 1.5 6.0141026381e-08 -8.7499999799 1.4499999993 -1.562169949e-08 
-8.7499999799 1.5 5.9438900024e-08 -8.6999999791 1.4499999993 -1.549800821e-08 -8.6999999791 1.5 5.9169689592e-08 
-8.6499999784 1.4499999993 -1.5474361348e-08 -8.6499999784 1.5 5.8638544687e-08 -8.5999999776 1.4499999993 -1.5290643418e-08 
-8.5999999776 1.5 5.8269289838e-08 -8.5499999769 1.4499999993 -1.5239711715e-08 -8.5499999769 1.5 5.8041916162e-08 
-8.4999999762 1.4499999993 -1.5139667298e-08 -8.4999999762 1.5 5.7867293179e-08 -8.4499999754 1.4499999993 -1.5177866075e-08 
-8.4499999754 1.5 5.7792714614e-08 -8.3999999747 1.4499999993 -1.5170590117e-08 -8.3999999747 1.5 5.7809085519e-08 
-8.3499999739 1.4499999993 -1.5145124266e-08 -8.3499999739 1.5 5.7954604671e-08 -8.2999999732 1.4499999993 -1.5181504054e-08 
-8.2999999732 1.5 5.8236548028e-08 -8.2499999724 1.4499999993 -1.5394325814e-08 -8.2499999724 1.5 5.8603983888e-08 
-8.1999999717 1.4499999993 -1.5403420761e-08 -8.1999999717 1.5 5.8976940664e-08 -8.1499999709 1.4499999993 -1.5668993214e-08 
-8.1499999709 1.5 5.9471641833e-08 -8.0999999702 1.4499999993 -1.5759942684e-08 -8.0999999702 1.5 6.0131931434e-08 
-8.0499999695 1.4499999993 -1.6014601201e-08 -8.0499999695 1.5 6.0714008043e-08 -7.9999999687 1.4499999993 -1.6185586205e-08 
-7.9999999687 1.5 6.1479802582e-08 -7.949999968 1.4499999993 -1.6356571209e-08 -7.949999968 1.5 6.2272881962e-08 
-7.8999999672 1.4499999993 -1.653665116e-08 -7.8999999672 1.5 6.3216937463e-08 -7.8499999665 1.4499999993 -1.6826779969e-08 
-7.8499999665 1.5 6.4253761423e-08 -7.7999999657 1.4499999993 -1.7117818274e-08 -7.7999999657 1.5 6.5393358284e-08 
-7.749999965 1.4499999993 -1.7407947084e-08 -7.749999965 1.5 6.6563877965e-08 -7.6999999642 1.4499999993 -1.7789025364e-08 
-7.6999999642 1.5 6.7835351558e-08 -7.6499999635 1.4499999993 -1.8100982047e-08 -7.6499999635 1.5 6.9121377066e-08 
-7.5999999627 1.4499999993 -1.8465689422e-08 -7.5999999627 1.5 7.0629319282e-08 -7.549999962 1.4499999993 -1.8919527278e-08 
-7.549999962 1.5 7.212467068e-08 -7.4999999613 1.4499999993 -1.937245564e-08 -7.4999999613 1.5 7.3742519646e-08 
-7.4499999605 1.4499999993 -1.9744438973e-08 -7.4499999605 1.5 7.5435998781e-08 -7.3999999598 1.4499999993 -2.0252846511e-08 
-7.3999999598 1.5 7.7240436269e-08 -7.349999959 1.4499999993 -2.0665757106e-08 -7.349999959 1.5 7.9170384026e-08 
-7.2999999583 1.4499999993 -2.1272390072e-08 -7.2999999583 1.5 8.1097603299e-08 -7.2499999575 1.4499999993 -2.1798078009e-08 
-7.2499999575 1.5 8.3190350608e-08 -7.1999999568 1.4499999993 -2.2385611587e-08 -7.1999999568 1.5 8.5406789196e-08 
-7.149999956 1.4499999993 -2.3023167373e-08 -7.149999956 1.5 8.769962534e-08 -7.0999999553 1.4499999993 -2.3301472751e-08 
-7.0999999553 1.5 8.8875601989e-08 -7.0499999546 1.4499999993 -2.3889915823e-08 -7.0499999546 1.5 9.1324871221e-08 
-6.9999999538 1.4499999993 -2.4578403313e-08 -6.9999999538 1.5 9.3878732343e-08 -6.9499999531 1.4499999993 -2.5275076254e-08 
-6.9499999531 1.5 9.6594483523e-08 -6.8999999523 1.4499999993 -2.600358151e-08 -6.8999999523 1.5 9.9355709438e-08 
-6.8499999516 1.4499999993 -2.6782108975e-08 -6.8499999516 1.5 1.0233339509e-07 -6.7999999508 1.4499999993 -2.7596106733e-08 
-6.7999999508 1.5 1.0532563266e-07 -6.7499999501 1.4499999993 -2.8370996219e-08 -6.7499999501 1.5 1.0843792353e-07 
-6.6999999493 1.4499999993 -2.9272305468e-08 -6.6999999493 1.5 1.1173302283e-07 -6.6499999486 1.4499999993 -3.0166336984e-08 
-6.6499999486 1.5 1.151718223e-07 -6.5999999478 1.4499999993 -3.1115849453e-08 -6.5999999478 1.5 1.1873158456e-07 
-6.5499999471 1.4499999993 -3.2104470193e-08 -6.5499999471 1.5 1.2244598224e-07 -6.4999999464 1.4499999993 -3.3069444072e-08 
-6.4999999464 1.5 1.2629949708e-07 -6.4499999456 1.4499999993 -3.4128095905e-08 -6.4499999456 1.5 1.3026671297e-07 
-6.3999999449 1.4499999993 -3.5209485105e-08 -6.3999999449 1.5 1.3439127144e-07 -6.3499999441 1.4499999993 -3.629360279e-08 
-6.3499999441 1.5 1.386904529e-07 -6.2999999434 1.4499999993 -3.7535063058e-08 -6.2999999434 1.5 1.4313060603e-07 
-6.2499999426 1.4499999993 -3.8707401728e-08 -6.2499999426 1.5 1.4773264922e-07 -6.1999999419 1.4499999993 -3.9946133512e-08 
-6.1999999419 1.5 1.5253478125e-07 -6.1499999411 1.4499999993 -4.1259443861e-08 -6.1499999411 1.5 1.5743877668e-07 
-6.0999999404 1.4499999993 -4.2600948547e-08 -6.0999999404 1.5 1.6250193369e-07 -6.0499999397 1.4499999993 -4.3930629801e-08 
-6.0499999397 1.5 1.6777700296e-07 -5.9999999389 1.4499999993 -4.5307604779e-08 -5.9999999389 1.5 1.7320941481e-07 
-5.9499999382 1.4499999993 -4.6796902353e-08 -5.9499999382 1.5 1.7871367675e-07 -5.8999999374 1.4499999993 -4.8291202148e-08 
-5.8999999374 1.5 1.8446786498e-07 -5.8499999367 1.4499999993 -4.9846438088e-08 -5.8499999367 1.5 1.9035066146e-07 
-5.7999999359 1.4499999993 -5.1439418058e-08 -5.7999999359 1.5 1.9635287174e-07 -5.7499999352 1.4499999993 -5.3058773375e-08 
-5.7499999352 1.5 2.0249059673e-07 -5.6999999344 1.4499999993 -5.4661757787e-08 -5.6999999344 1.5 2.0872882089e-07 
-5.6499999337 1.4499999993 -5.6370243584e-08 -5.6499999337 1.5 2.1512302339e-07 -5.5999999329 1.4499999993 -5.802052172e-08 
-5.5999999329 1.5 2.2156906709e-07 -5.5499999322 1.4499999993 -5.8888179666e-08 -5.5499999322 1.5 2.2479423478e-07 
-5.4999999315 1.4499999993 -6.0567110438e-08 -5.4999999315 1.5 2.313188503e-07 -5.4499999307 1.4499999993 -6.2298333603e-08 
-5.4499999307 1.5 2.3778626712e-07 -5.39999993 1.4499999993 -6.396907537e-08 -5.39999993 1.5 2.442677669e-07 
-5.3499999292 1.4499999993 -6.5615715528e-08 -5.3499999292 1.5 2.5060649023e-07 -5.2999999285 1.4499999993 -6.7274633864e-08 
-5.2999999285 1.5 2.5678696147e-07 -5.2499999277 1.4499999993 -6.8788487795e-08 -5.2499999277 1.5 2.6268457987e-07 
-5.199999927 1.4499999993 -7.0209573266e-08 -5.199999927 1.5 2.6822067412e-07 -5.1499999262 1.4499999993 -7.1546530478e-08 
-5.1499999262 1.5 2.7326200325e-07 -5.0999999255 1.4499999993 -7.2701588749e-08 -5.0999999255 1.5 2.7761257115e-07 
-5.0499999247 1.4499999993 -7.3616540419e-08 -5.0499999247 1.5 2.8115050554e-07 -4.999999924 1.4499999993 -7.4270012362e-08 
-4.999999924 1.5 2.8361705517e-07 -4.9499999233 1.4499999993 -7.453649431e-08 -4.9499999233 1.5 2.8467252378e-07 
-4.8999999225 1.4499999993 -7.4355959612e-08 -4.8999999225 1.5 2.8400407359e-07 -4.8499999218 1.4499999993 -7.3602897999e-08 
-4.8499999218 1.5 2.8115687201e-07 -4.799999921 1.4499999993 -7.2127242845e-08 -4.799999921 1.5 2.7559713089e-07 
-4.7499999203 1.4499999993 -6.9775289546e-08 -4.7499999203 1.5 2.6659995456e-07 -4.6999999195 1.4499999993 -6.6284194133e-08 
-4.6999999195 1.5 2.5336498766e-07 -4.6499999188 1.4499999993 -6.1390203143e-08 -4.6499999188 1.5 2.3474173361e-07 
-4.599999918 1.4499999993 -5.4708596764e-08 -4.599999918 1.5 2.0939911849e-07 -4.5499999173 1.4499999993 -4.5817831307e-08 
-4.5499999173 1.5 1.7560229537e-07 -4.4999999166 1.4499999993 -3.4077618949e-08 -4.4999999166 1.5 1.3107434427e-07 
-4.4499999158 1.4499999993 -1.8797427614e-08 -4.4499999158 1.5 7.286121928e-08 -4.3999999151 1.4499999993 1.1323300075e-09 
-4.3999999151 1.5 -2.8014619513e-09 -4.3499999143 1.4499999993 2.7004952941e-08 -4.3499999143 1.5 -1.0104462689e-07 
-4.2999999136 1.4499999993 6.067171654e-08 -4.2999999136 1.5 -2.2876655237e-07 -4.2499999128 1.4499999993 1.0456734145e-07 
-4.2499999128 1.5 -3.9525232864e-07 -4.1999999121 1.4499999993 1.6216246479e-07 -4.1999999121 1.5 -6.1355785874e-07 
-4.1499999113 1.4499999993 2.3839790231e-07 -4.1499999113 1.5 -9.0212120085e-07 -4.0999999106 1.4499999993 3.403890787e-07 
-4.0999999106 1.5 -1.2877328572e-06 -4.0499999098 1.4499999993 4.7886487664e-07 -4.0499999098 1.5 -1.8103603452e-06 
-3.9999999091 1.4499999993 6.7041332841e-07 -3.9999999091 1.5 -2.5316787742e-06 -3.9499999084 1.4499999993 7.9389110397e-07 
[...]
CELL_DATA 9510
FIELD FieldData 4
Water_Depth_m 1 9510 float
0.639991 0.639977 0.639964 0.63995 0.639937 0.639924 0.639912 0.639901 0.639891 
0.639882 0.639873 0.639866 0.63986 0.639856 0.639853 0.639851 0.639851 0.639853 
0.639856 0.63986 0.639866 0.639874 0.639883 0.639894 0.639906 0.639919 0.639933 
0.639947 0.639963 0.639979 0.639995 0.640012 0.640028 0.640045 0.64006 0.640076 
0.64009 0.640103 0.640115 0.640126 0.640135 0.640143 0.640149 0.640153 0.640156 
0.640156 0.640154 0.640151 0.640145 0.640137 0.640127 0.640115 0.640101 0.640086 
0.640068 0.640048 0.640027 0.640003 0.639979 0.639953 0.639925 0.639897 0.639867 
0.639837 0.639806 0.639776 0.639745 0.639714 0.639684 0.639655 0.639627 0.6396 
0.639575 0.639552 0.639531 0.639512 0.639496 0.639483 0.639473 0.639465 0.639461 
0.639459 0.639461 0.639465 0.639471 0.63948 0.639491 0.639504 0.639518 0.639534 
0.63955 0.639567 0.639584 0.639602 0.639619 0.639636 0.639652 0.639668 0.639682 
0.639696 0.63971 0.639722 0.639734 0.639745 0.639755 0.639765 0.639775 0.639785 
0.639794 0.639804 0.639814 0.639825 0.639837 0.63985 0.639865 0.639882 0.639902 
0.639925 0.639951 0.639981 0.640016 0.640056 0.640102 0.640155 0.640215 0.640284 
0.640363 0.640454 0.640564 0.640725 0.641028 0.64097 0.635512 0.622126 0.602581 
0.57855 0.551323 0.522022 0.491694 0.461337 0.432476 0.406009 0.383012 0.365039 
0.354042 0.352313 0.352451 0.352576 0.35269 0.352793 0.352886 0.35297 0.353046 
0.353116 0.353181 0.353244 0.353305 0.353359 0.353476 0.353077 0.346091 0.323006 
0.305686 0.306055 0.310615 0.31476 0.318083 0.320681 0.322099 0.324658 0.329216 
0.334048 0.338053 0.341871 0.345227 0.350609 0.355672 0.360413 0.367353 0.370883 
0.377259 0.38598 0.391491 0.399687 0.407635 0.412644 0.41788 0.425173 0.434516 
0.441565 0.442847 0.444977 0.450001 0.456969 0.463306 0.472956 0.477868 0.479205 
0.424314 0.405081 0.382962 0.368686 0.367662 0.367672 0.3673 0.365026 0.361614 
0.360748 0.360706 0.357371 0.354573 0.354612 0.354648 0.35468 0.354712 0.354742 
0.354771 0.354798 0.354823 0.354847 0.354869 0.35489 0.354908 0.354926 0.354941 
0.354956 0.354969 0.354982 0.354993 0.355003 0.355012 0.355021 0.355029 0.355036 
0.355043 0.355049 0.355054 0.35506 0.355064 0.355069 0.355073 0.355077 0.355081 
0.355084 0.355088 0.355091 0.355094 0.355097 0.3551 0.355102 0.355105 0.355108 
0.35511 0.355113 0.355115 0.355118 0.35512 0.355123 0.355125 0.355128 0.35513 
0.355133 0.355136 0.355138 0.355141 0.355143 0.355146 0.355149 0.355151 0.355154 
0.355157 0.35516 0.355163 0.355166 0.355169 0.355172 0.355175 0.355178 0.355181 
0.355184 0.355188 0.355191 0.355194 0.355198 0.355201 0.355205 0.355208 0.355212 
0.355216 0.35522 0.355223 0.355227 0.355171 0.355172 0.350203 0.639992 0.639978 
0.639964 0.63995 0.639937 0.639924 0.639912 0.639901 0.63989 0.639881 0.639872 
0.639865 0.639859 0.639854 0.639851 0.639849 0.639849 0.63985 0.639853 0.639858 
0.639864 0.639872 0.639881 0.639891 0.639903 0.639916 0.63993 0.639945 0.639961 
0.639977 0.639994 0.64001 0.640027 0.640044 0.64006 0.640075 0.64009 0.640103 
0.640116 0.640127 0.640136 0.640144 0.640151 0.640155 0.640158 0.640158 0.640157 
0.640153 0.640148 0.64014 0.64013 0.640118 0.640104 0.640088 0.640071 0.640051 
0.640029 0.640006 0.639982 0.639955 0.639928 0.639899 0.63987 0.639839 0.639808 
0.639777 0.639746 0.639715 0.639685 0.639655 0.639627 0.6396 0.639574 0.639551 
0.63953 0.639511 0.639495 0.639481 0.639471 0.639463 0.639459 0.639457 0.639458 
0.639462 0.639469 0.639478 0.639489 0.639502 0.639516 0.639532 0.639548 0.639566 
0.639583 0.639601 0.639618 0.639635 0.639651 0.639667 0.639682 0.639696 0.639709 
0.639722 0.639734 0.639745 0.639755 0.639765 0.639774 0.639784 0.639793 0.639802 
0.639812 0.639823 0.639835 0.639847 0.639862 0.639878 0.639897 0.639919 0.639944 
0.639973 0.640007 0.640046 0.64009 0.640141 0.640198 0.640263 0.640337 0.640419 
0.64051 0.64061 0.640743 0.640756 0.635858 0.623158 0.604065 0.580141 0.552755 
0.523123 0.492358 0.461474 0.431783 0.404483 0.381106 0.363465 0.353711 0.352342 
0.352471 0.35259 0.352703 0.352805 0.352898 0.352981 0.353057 0.353127 0.353192 
0.353254 0.353316 0.353373 0.353655 0.353249 0.344527 0.3158 0.297137 0.304009 
0.307043 0.309835 0.31364 0.318669 0.323372 0.328831 0.333129 0.338616 0.343785 
0.350241 0.35617 0.362085 0.366878 0.372974 0.379213 0.386679 0.393533 0.400608 
0.408266 0.416032 0.423163 0.429492 0.435646 0.443048 0.452093 0.459283 0.4596 
0.455978 0.470458 0.481654 0.487801 0.495644 0.502966 0.503704 0.446202 0.432976 
0.408914 0.381114 0.370809 0.368638 0.367586 0.365729 0.361881 0.361245 0.361181 
0.357408 0.354544 0.354582 0.35462 0.354656 0.354691 0.354724 0.354755 0.354784 
0.354811 0.354836 0.354859 0.354881 0.3549 0.354918 0.354935 0.35495 0.354964 
0.354976 0.354988 0.354998 0.355008 0.355017 0.355025 0.355032 0.355039 0.355045 
0.355051 0.355056 0.355061 0.355066 0.35507 0.355075 0.355078 0.355082 0.355085 
0.355089 0.355092 0.355095 0.355098 0.355101 0.355103 0.355106 0.355109 0.355111 
0.355114 0.355117 0.355119 0.355122 0.355124 0.355127 0.355129 0.355132 0.355134 
0.355137 0.35514 0.355142 0.355145 0.355148 0.35515 0.355153 0.355156 0.355159 
0.355162 0.355165 0.355168 0.355171 0.355174 0.355177 0.35518 0.355184 0.355187 
0.35519 0.355194 0.355197 0.355201 0.355204 0.355208 0.355211 0.355215 0.355219 
0.355223 0.355227 0.35517 0.355171 0.350201 0.639991 0.639977 0.639963 0.639949 
0.639936 0.639923 0.639911 0.639899 0.639888 0.639879 0.63987 0.639863 0.639856 
0.639852 0.639848 0.639846 0.639846 0.639847 0.63985 0.639855 0.639861 0.639869 
0.639878 0.639889 0.639901 0.639914 0.639928 0.639943 0.63996 0.639976 0.639993 
0.64001 0.640027 0.640044 0.64006 0.640076 0.640091 0.640105 0.640118 0.640129 
0.640139 0.640148 0.640154 0.640159 0.640161 0.640162 0.640161 0.640157 0.640152 
0.640144 0.640134 0.640122 0.640108 0.640092 0.640074 0.640054 0.640032 0.640008 
0.639983 0.639957 0.639929 0.6399 0.63987 0.639839 0.639808 0.639776 0.639744 
0.639713 0.639682 0.639652 0.639623 0.639596 0.63957 0.639546 0.639524 0.639505 
0.639489 0.639475 0.639465 0.639457 0.639453 0.639451 0.639453 0.639457 0.639464 
0.639474 0.639485 0.639499 0.639514 0.63953 0.639547 0.639565 0.639583 0.639601 
0.639618 0.639636 0.639652 0.639668 0.639683 0.639698 0.639711 0.639723 0.639735 
0.639746 0.639756 0.639765 0.639775 0.639784 0.639792 0.639802 0.639811 0.639821 
0.639832 0.639844 0.639858 0.639874 0.639892 0.639912 0.639936 0.639964 0.639996 
0.640033 0.640076 0.640125 0.640181 0.640245 0.640317 0.640398 0.640489 0.640592 
0.640772 0.640734 0.635988 0.623635 0.604873 0.58111 0.553693 0.52387 0.492798 
0.461562 0.431452 0.403798 0.380356 0.363033 0.353666 0.352333 0.352474 0.352601 
0.352714 0.352815 0.352906 0.352986 0.353058 0.353122 0.35318 0.353234 0.353283 
0.353324 0.353586 0.353178 0.345225 0.31854 0.304954 0.312828 0.316478 0.319014 
0.322622 0.327218 0.332499 0.338042 0.343621 0.349384 0.355174 0.361391 0.367558 
0.37308 0.376925 0.382292 0.390595 0.399281 0.406298 0.412961 0.420559 0.428983 
0.43743 0.445552 0.451798 0.457846 0.465556 0.470901 0.474166 0.479454 0.489434 
0.503999 0.507245 0.512772 0.51559 0.515249 0.458589 0.447474 0.433426 0.409603 
0.384263 0.369329 0.367648 0.366899 0.363426 0.362056 0.361999 0.357916 0.354543 
0.354583 0.354622 0.354659 0.354695 0.354728 0.354759 0.354788 0.354815 0.35484 
0.354863 0.354884 0.354904 0.354922 0.354938 0.354953 0.354966 0.354979 0.35499 
0.355 0.35501 0.355018 0.355026 0.355034 0.35504 0.355046 0.355052 0.355057 
0.355062 0.355067 0.355071 0.355075 0.355079 0.355083 0.355086 0.355089 0.355092 
0.355095 0.355098 0.355101 0.355104 0.355106 0.355109 0.355112 0.355114 0.355117 
0.355119 0.355122 0.355124 0.355127 0.355129 0.355132 0.355135 0.355137 0.35514 
0.355142 0.355145 0.355148 0.355151 0.355153 0.355156 0.355159 0.355162 0.355165 
0.355168 0.355171 0.355174 0.355177 0.35518 0.355184 0.355187 0.35519 0.355194 
0.355197 0.355201 0.355204 0.355208 0.355211 0.355215 0.355219 0.355223 0.355227 
0.35517 0.355171 0.350201 0.639991 0.639977 0.639962 0.639948 0.639934 0.639921 
0.639908 0.639897 0.639886 0.639876 0.639867 0.639859 0.639853 0.639848 0.639844 
0.639842 0.639841 0.639843 0.639846 0.63985 0.639857 0.639864 0.639874 0.639885 
0.639897 0.639911 0.639925 0.639941 0.639957 0.639974 0.639992 0.640009 0.640027 
0.640045 0.640062 0.640078 0.640094 0.640108 0.640122 0.640133 0.640144 0.640152 
0.640159 0.640164 0.640167 0.640168 0.640167 0.640163 0.640157 0.64015 0.64014 
0.640127 0.640113 0.640097 0.640078 0.640058 0.640036 0.640012 0.639986 0.639959 
0.63993 0.639901 0.63987 0.639838 0.639806 0.639774 0.639741 0.639709 0.639678 
0.639647 0.639617 0.639589 0.639563 0.639538 0.639516 0.639497 0.63948 0.639466 
0.639456 0.639448 0.639444 0.639443 0.639445 0.63945 0.639457 0.639468 0.63948 
0.639494 0.63951 0.639527 0.639545 0.639564 0.639582 0.639601 0.639619 0.639637 
0.639654 0.63967 0.639686 0.6397 0.639713 0.639726 0.639737 0.639747 0.639757 
0.639766 0.639775 0.639784 0.639792 0.6398 0.639809 0.639818 0.639828 0.639839 
0.639852 0.639866 0.639883 0.639902 0.639924 0.63995 0.63998 0.640015 0.640056 
0.640102 0.640155 0.640216 0.640286 0.640364 0.640451 0.640548 0.640721 0.640697 
0.636021 0.623845 0.605284 0.581652 0.554248 0.524321 0.493059 0.461616 0.431291 
0.403525 0.380117 0.362943 0.353705 0.352371 0.35251 0.352634 0.352745 0.352844 
0.352932 0.353009 0.353077 0.353138 0.353191 0.353238 0.353278 0.353305 0.353513 
0.353105 0.346253 0.323896 0.313139 0.321012 0.32445 0.327214 0.330941 0.335037 
0.339484 0.344511 0.350692 0.357245 0.362657 0.368492 0.374659 0.380199 0.383976 
0.389184 0.398343 0.408276 0.414913 0.421892 0.429466 0.438365 0.448334 0.457551 
0.465159 0.47173 0.476301 0.482256 0.487993 0.496283 0.500967 0.506958 0.51309 
0.520132 0.523774 0.5266 0.47875 0.461644 0.448531 0.431356 0.407755 0.380711 
0.368502 0.367107 0.364338 0.363315 0.363231 0.358254 0.35454 0.354582 0.354623 
0.354661 0.354698 0.354732 0.354763 0.354793 0.35482 0.354845 0.354867 0.354888 
0.354908 0.354925 0.354941 0.354956 0.354969 0.354981 0.354992 0.355003 0.355012 
0.35502 0.355028 0.355035 0.355042 0.355048 0.355053 0.355058 0.355063 0.355068 
0.355072 0.355076 0.35508 0.355083 0.355086 0.35509 0.355093 0.355096 0.355098 
0.355101 0.355104 0.355107 0.355109 0.355112 0.355114 0.355117 0.355119 0.355122 
0.355124 0.355127 0.355129 0.355132 0.355135 0.355137 0.35514 0.355142 0.355145 
0.355148 0.35515 0.355153 0.355156 0.355159 0.355162 0.355165 0.355168 0.355171 
0.355174 0.355177 0.35518 0.355184 0.355187 0.35519 0.355194 0.355197 0.355201 
0.355204 0.355208 0.355211 0.355215 0.355219 0.355223 0.355227 0.35517 0.355171 
0.350201 0.639991 0.639976 0.639961 0.639946 0.639932 0.639919 0.639906 0.639893 
0.639882 0.639872 0.639862 0.639854 0.639848 0.639842 0.639838 0.639836 0.639836 
0.639837 0.63984 0.639844 0.639851 0.639859 0.639868 0.639879 0.639892 0.639906 
0.639921 0.639937 0.639955 0.639972 0.63999 0.640009 0.640027 0.640045 0.640063 
0.640081 0.640097 0.640112 0.640126 0.640139 0.64015 0.640159 0.640166 0.640171 
0.640175 0.640175 0.640174 0.640171 0.640165 0.640157 0.640147 0.640134 0.64012 
0.640103 0.640084 0.640063 0.64004 0.640016 0.639989 0.639961 0.639932 0.639901 
0.63987 0.639837 0.639804 0.639771 0.639738 0.639704 0.639672 0.63964 0.63961 
0.63958 0.639553 0.639528 0.639506 0.639486 0.639469 0.639455 0.639444 0.639437 
0.639433 0.639432 0.639435 0.63944 0.639449 0.63946 0.639473 0.639489 0.639506 
0.639524 0.639543 0.639563 0.639582 0.639602 0.639621 0.639639 0.639657 0.639673 
0.639689 0.639703 0.639716 0.639729 0.63974 0.63975 0.639759 0.639768 0.639776 
0.639784 0.639791 0.639799 0.639806 0.639814 0.639823 0.639833 0.639844 0.639857 
0.639872 0.639889 0.639909 0.639932 0.63996 0.639992 0.640029 0.640072 0.640122 
0.640179 0.640245 0.64032 0.640405 0.6405 0.640674 0.640649 0.636005 0.623917 
0.60547 0.581923 0.554541 0.524564 0.493201 0.461652 0.431229 0.403439 0.380075 
0.362964 0.353754 0.352418 0.352556 0.352678 0.352786 0.352881 0.352965 0.353039 
0.353103 0.353158 0.353206 0.353245 0.353274 0.353287 0.353447 0.35305 0.346849 
0.32642 0.317685 0.325581 0.32939 0.33285 0.338833 0.343822 0.345203 0.348178 
0.355038 0.361111 0.366383 0.371783 0.377834 0.383851 0.389337 0.395766 0.403223 
0.411062 0.420156 0.42833 0.436959 0.446354 0.458141 0.468183 0.474524 0.4789 
0.481472 0.485018 0.492929 0.498418 0.503533 0.515284 0.525353 0.528418 0.533191 
0.537195 0.503629 0.483468 0.461873 0.448965 0.430873 0.401747 0.377062 0.366451 
0.364475 0.363434 0.363335 0.358291 0.35454 0.354585 0.354627 0.354667 0.354704 
0.354739 0.354771 0.3548 0.354827 0.354852 0.354874 0.354895 0.354914 0.354931 
0.354947 0.354961 0.354974 0.354986 0.354996 0.355006 0.355015 0.355023 0.355031 
0.355038 0.355044 0.35505 0.355055 0.35506 0.355065 0.355069 0.355073 0.355077 
0.355081 0.355084 0.355087 0.35509 0.355093 0.355096 0.355099 0.355102 0.355104 
0.355107 0.35511 0.355112 0.355115 0.355117 0.35512 0.355122 0.355125 0.355127 
0.35513 0.355132 0.355135 0.355137 0.35514 0.355142 0.355145 0.355148 0.355151 
0.355153 0.355156 0.355159 0.355162 0.355165 0.355168 0.355171 0.355174 0.355177 
0.35518 0.355184 0.355187 0.35519 0.355194 0.355197 0.355201 0.355204 0.355208 
0.355211 0.355215 0.355219 0.355223 0.355227 0.35517 0.355171 0.350201 0.639991 
0.639975 0.63996 0.639944 0.63993 0.639916 0.639902 0.639889 0.639877 0.639867 
0.639857 0.639849 0.639842 0.639836 0.639832 0.639829 0.639829 0.63983 0.639832 
0.639837 0.639843 0.639852 0.639862 0.639873 0.639886 0.639901 0.639916 0.639933 
0.639951 0.639969 0.639988 0.640008 0.640027 0.640046 0.640065 0.640083 0.640101 
0.640117 0.640132 0.640145 0.640157 0.640166 0.640174 0.64018 0.640183 0.640185 
0.640184 0.64018 0.640174 0.640166 0.640156 0.640143 0.640128 0.640111 0.640091 
0.64007 0.640046 0.640021 0.639993 0.639964 0.639934 0.639902 0.63987 0.639836 
0.639802 0.639767 0.639733 0.639698 0.639665 0.639632 0.6396 0.63957 0.639542 
0.639516 0.639492 0.639472 0.639454 0.63944 0.639429 0.639422 0.639418 0.639418 
0.639422 0.639428 0.639438 0.63945 0.639465 0.639482 0.6395 0.63952 0.639541 
0.639562 0.639582 0.639603 0.639623 0.639642 0.63966 0.639677 0.639693 0.639707 
0.63972 0.639732 0.639743 0.639753 0.639762 0.63977 0.639777 0.639784 0.639791 
0.639797 0.639804 0.63981 0.639818 0.639826 0.639835 0.639846 0.639858 0.639873 
0.63989 0.639911 0.639935 0.639963 0.639997 0.640036 0.640081 0.640134 0.640195 
0.640266 0.640347 0.640439 0.64061 0.640586 0.635958 0.623912 0.605525 0.582031 
0.554671 0.524678 0.493273 0.461682 0.431221 0.403437 0.380107 0.363025 0.35382 
0.352481 0.352615 0.352734 0.352838 0.352929 0.353009 0.353078 0.353137 0.353187 
0.353228 0.353261 0.353282 0.353285 0.35342 0.353031 0.346991 0.326925 0.319326 
0.32773 0.332716 0.336655 0.341147 0.346192 0.351476 0.356435 0.36012 0.364848 
0.369844 0.374825 0.380742 0.386578 0.394101 0.401794 0.409325 0.417907 0.4269 
0.436955 0.446048 0.455572 0.466798 0.478742 0.481307 0.483076 0.489596 0.495897 
0.503295 0.507549 0.509249 0.530222 0.534129 0.540515 0.542635 0.546677 0.524415 
0.509916 0.486623 0.466121 0.446159 0.420271 0.395265 0.372771 0.364557 0.363081 
0.363013 0.358294 0.354542 0.35459 0.354634 0.354675 0.354713 0.354748 0.35478 
0.354809 0.354836 0.354861 0.354883 0.354903 0.354921 0.354938 0.354953 0.354967 
0.354979 0.354991 0.355001 0.35501 0.355019 0.355027 0.355034 0.355041 0.355047 
0.355052 0.355057 0.355062 0.355067 0.355071 0.355075 0.355078 0.355082 0.355085 
0.355088 0.355091 0.355094 0.355097 0.3551 0.355102 0.355105 0.355107 0.35511 
0.355112 0.355115 0.355117 0.35512 0.355122 0.355125 0.355127 0.35513 0.355132 
0.355135 0.355137 0.35514 0.355143 0.355145 0.355148 0.355151 0.355153 0.355156 
0.355159 0.355162 0.355165 0.355168 0.355171 0.355174 0.355177 0.35518 0.355184 
0.355187 0.35519 0.355194 0.355197 0.355201 0.355204 0.355208 0.355211 0.355215 
0.355219 0.355223 0.355227 0.35517 0.355171 0.350201 0.63999 0.639974 0.639958 
0.639942 0.639927 0.639912 0.639898 0.639885 0.639872 0.639861 0.639851 0.639842 
0.639835 0.639829 0.639824 0.639821 0.63982 0.639821 0.639824 0.639829 0.639835 
0.639844 0.639854 0.639866 0.639879 0.639894 0.639911 0.639928 0.639947 0.639966 
0.639986 0.640007 0.640027 0.640047 0.640067 0.640087 0.640105 0.640122 0.640138 
0.640152 0.640165 0.640175 0.640184 0.64019 0.640194 0.640195 0.640194 0.640191 
0.640185 0.640176 0.640166 0.640153 0.640137 0.640119 0.640099 0.640077 0.640052 
0.640026 0.639998 0.639968 0.639936 0.639903 0.639869 0.639834 0.639799 0.639763 
0.639727 0.639691 0.639656 0.639622 0.639589 0.639557 0.639528 0.639501 0.639477 
0.639455 0.639437 0.639423 0.639412 0.639405 0.639402 0.639403 0.639407 0.639414 
0.639425 0.639439 0.639456 0.639475 0.639495 0.639516 0.639538 0.639561 0.639583 
0.639605 0.639626 0.639646 0.639664 0.639682 0.639698 0.639712 0.639725 0.639737 
0.639747 0.639757 0.639765 0.639772 0.639779 0.639784 0.63979 0.639795 0.6398 
0.639806 0.639811 0.639818 0.639825 0.639834 0.639844 0.639855 0.63987 0.639887 
0.639907 0.639931 0.63996 0.639994 0.640034 0.640081 0.640137 0.640202 0.640277 
0.640365 0.640533 0.640509 0.635887 0.623859 0.605505 0.582044 0.554706 0.524718 
0.493308 0.461712 0.431247 0.403479 0.380174 0.363105 0.3539 0.352557 0.352687 
0.352801 0.3529 0.352987 0.353062 0.353125 0.35318 0.353224 0.35326 0.353285 
0.3533 0.353297 0.353429 0.353053 0.347029 0.327065 0.320004 0.328576 0.333312 
0.336953 0.341376 0.346893 0.353728 0.359226 0.363029 0.367742 0.374477 0.381717 
0.386735 0.393105 0.401025 0.409263 0.417367 0.425704 0.436261 0.446341 0.45788 
0.467408 0.47353 0.47832 0.48995 0.500748 0.507522 0.514713 0.523649 0.528152 
0.534153 0.541434 0.547826 0.559675 0.563369 0.565935 0.5404 0.528579 0.508106 
0.481996 0.459514 0.438471 0.415777 0.383124 0.365539 0.364516 0.363822 0.358276 
0.354546 0.354596 0.354642 0.354685 0.354724 0.354759 0.354792 0.354821 0.354847 
0.354872 0.354893 0.354913 0.354931 0.354947 0.354961 0.354974 0.354986 0.354997 
0.355007 0.355016 0.355024 0.355031 0.355038 0.355044 0.35505 0.355055 0.35506 
0.355064 0.355069 0.355073 0.355076 0.35508 0.355083 0.355086 0.355089 0.355092 
0.355095 0.355098 0.3551 0.355103 0.355105 0.355108 0.35511 0.355113 0.355115 
0.355118 0.35512 0.355123 0.355125 0.355127 0.35513 0.355132 0.355135 0.355137 
0.35514 0.355143 0.355145 0.355148 0.355151 0.355154 0.355156 0.355159 0.355162 
0.355165 0.355168 0.355171 0.355174 0.355177 0.35518 0.355184 0.355187 0.35519 
0.355194 0.355197 0.355201 0.355204 0.355208 0.355211 0.355215 0.355219 0.355223 
0.355227 0.35517 0.355171 0.350201 0.63999 0.639973 0.639956 0.63994 0.639924 
0.639909 0.639894 0.63988 0.639867 0.639855 0.639845 0.639835 0.639827 0.639821 
0.639816 0.639813 0.639812 0.639812 0.639815 0.63982 0.639826 0.639835 0.639845 
0.639858 0.639872 0.639887 0.639904 0.639923 0.639942 0.639963 0.639984 0.640005 
0.640027 0.640049 0.64007 0.64009 0.64011 0.640128 0.640145 0.64016 0.640173 
0.640185 0.640194 0.640201 0.640205 0.640207 0.640206 0.640202 0.640196 0.640188 
0.640177 0.640163 0.640147 0.640129 0.640108 0.640085 0.640059 0.640032 0.640002 
0.639971 0.639938 0.639904 0.639869 0.639832 0.639795 0.639758 0.63972 0.639683 
0.639646 0.63961 0.639576 0.639543 0.639513 0.639485 0.639459 0.639437 0.639419 
0.639404 0.639393 0.639386 0.639384 0.639385 0.63939 0.6394 0.639412 0.639428 
0.639446 0.639467 0.639489 0.639513 0.639537 0.639561 0.639584 0.639607 0.639629 
0.63965 0.63967 0.639687 0.639703 0.639718 0.639731 0.639742 0.639752 0.639761 
0.639768 0.639775 0.63978 0.639785 0.639789 0.639793 0.639797 0.639801 0.639805 
0.639809 0.639814 0.63982 0.639828 0.639837 0.639847 0.639861 0.639877 0.639896 
0.63992 0.639948 0.639983 0.640023 0.640072 0.64013 0.640198 0.640279 0.640443 
0.640418 0.635797 0.623779 0.605442 0.582004 0.554688 0.524719 0.493326 0.461748 
0.431297 0.40355 0.380265 0.363203 0.353995 0.352647 0.352772 0.35288 0.352974 