# vtk DataFile Version 5.1
vtk output
ASCII
DATASET UNSTRUCTURED_GRID
POINTS 10043 double
-10.1 1.4499999993 0 -10.049999999 1.4499999993 0 -10.049999999 1.5 0 
-9.9999999985 1.4499999993 0 -9.9999999985 1.5 0 -9.9499999978 1.4499999993 0 
-9.9499999978 1.5 0 -9.899999997 1.4499999993 0 -9.899999997 1.5 0 
-9.8499999963 1.4499999993 0 -9.8499999963 1.5 0 -9.7999999955 1.4499999993 0 
-9.7999999955 1.5 0 -9.7499999948 1.4499999993 0 -9.7499999948 1.5 0 
-9.699999994 1.4499999993 0 -9.699999994 1.5 0 -9.6499999933 1.4499999993 0 
-9.6499999933 1.5 0 -9.5999999925 1.4499999993 0 -9.5999999925 1.5 0 
-9.5499999918 1.4499999993 0 -9.5499999918 1.5 0 -9.4999999911 1.4499999993 0 
-9.4999999911 1.5 0 -9.4499999903 1.4499999993 0 -9.4499999903 1.5 0 
-9.3999999896 1.4499999993 0 -9.3999999896 1.5 0 -9.3499999888 1.4499999993 0 
-9.3499999888 1.5 0 -9.2999999881 1.4499999993 0 -9.2999999881 1.5 0 
-9.2499999873 1.4499999993 0 -9.2499999873 1.5 0 -9.1999999866 1.4499999993 0 
-9.1999999866 1.5 0 -9.1499999858 1.4499999993 0 -9.1499999858 1.5 0 
-9.0999999851 1.4499999993 0 -9.0999999851 1.5 0 -9.0499999844 1.4499999993 0 
-9.0499999844 1.5 0 -8.9999999836 1.4499999993 0 -8.9999999836 1.5 0 
-8.9499999829 1.4499999993 0 -8.9499999829 1.5 0 -8.8999999821 1.4499999993 0 
-8.8999999821 1.5 0 -8.8499999814 1.4499999993 0 -8.8499999814 1.5 0 
-8.7999999806 1.4499999993 0 -8.7999999806 1.5 0 -8.7499999799 1.4499999993 0 
-8.7499999799 1.5 0 -8.6999999791 1.4499999993 0 -8.6999999791 1.5 0 
-8.6499999784 1.4499999993 0 -8.6499999784 1.5 0 -8.5999999776 1.4499999993 0 
-8.5999999776 1.5 0 -8.5499999769 1.4499999993 0 -8.5499999769 1.5 0 
-8.4999999762 1.4499999993 0 -8.4999999762 1.5 0 -8.4499999754 1.4499999993 0 
-8.4499999754 1.5 0 -8.3999999747 1.4499999993 0 -8.3999999747 1.5 0 
-8.3499999739 1.4499999993 0 -8.3499999739 1.5 0 -8.2999999732 1.4499999993 0 
-8.2999999732 1.5 0 -8.2499999724 1.4499999993 0 -8.2499999724 1.5 0 
-8.1999999717 1.4499999993 0 -8.1999999717 1.5 0 -8.1499999709 1.4499999993 0 
-8.1499999709 1.5 0 -8.0999999702 1.4499999993 0 -8.0999999702 1.5 0 
-8.0499999695 1.4499999993 0 -8.0499999695 1.5 0 -7.9999999687 1.4499999993 0 
-7.9999999687 1.5 0 -7.949999968 1.4499999993 0 -7.949999968 1.5 0 
-7.8999999672 1.4499999993 0 -7.8999999672 1.5 0 -7.8499999665 1.4499999993 0 
-7.8499999665 1.5 0 -7.7999999657 1.4499999993 0 -7.7999999657 1.5 0 
-7.749999965 1.4499999993 0 -7.749999965 1.5 0 -7.6999999642 1.4499999993 0 
-7.6999999642 1.5 0 -7.6499999635 1.4499999993 0 -7.6499999635 1.5 0 
-7.5999999627 1.4499999993 0 -7.5999999627 1.5 0 -7.549999962 1.4499999993 0 
-7.549999962 1.5 0 -7.4999999613 1.4499999993 0 -7.4999999613 1.5 0 
-7.4499999605 1.4499999993 0 -7.4499999605 1.5 0 -7.3999999598 1.4499999993 0 
-7.3999999598 1.5 0 -7.349999959 1.4499999993 0 -7.349999959 1.5 0 
-7.2999999583 1.4499999993 0 -7.2999999583 1.5 0 -7.2499999575 1.4499999993 0 
-7.2499999575 1.5 0 -7.1999999568 1.4499999993 0 -7.1999999568 1.5 0 
-7.149999956 1.4499999993 0 -7.149999956 1.5 0 -7.0999999553 1.4499999993 0 
-7.0999999553 1.5 0 -7.0499999546 1.4499999993 0 -7.0499999546 1.5 0 
-6.9999999538 1.4499999993 0 -6.9999999538 1.5 0 -6.9499999531 1.4499999993 0 
-6.9499999531 1.5 0 -6.8999999523 1.4499999993 0 -6.8999999523 1.5 0 
-6.8499999516 1.4499999993 0 -6.8499999516 1.5 0 -6.7999999508 1.4499999993 0 
-6.7999999508 1.5 0 -6.7499999501 1.4499999993 0 -6.7499999501 1.5 0 
-6.6999999493 1.4499999993 0 -6.6999999493 1.5 0 -6.6499999486 1.4499999993 0 
-6.6499999486 1.5 0 -6.5999999478 1.4499999993 0 -6.5999999478 1.5 0 
-6.5499999471 1.4499999993 0 -6.5499999471 1.5 0 -6.4999999464 1.4499999993 0 
-6.4999999464 1.5 0 -6.4499999456 1.4499999993 0 -6.4499999456 1.5 0 
-6.3999999449 1.4499999993 0 -6.3999999449 1.5 0 -6.3499999441 1.4499999993 0 
-6.3499999441 1.5 0 -6.2999999434 1.4499999993 0 -6.2999999434 1.5 0 
-6.2499999426 1.4499999993 0 -6.2499999426 1.5 0 -6.1999999419 1.4499999993 0 
-6.1999999419 1.5 0 -6.1499999411 1.4499999993 0 -6.1499999411 1.5 0 
-6.0999999404 1.4499999993 0 -6.0999999404 1.5 0 -6.0499999397 1.4499999993 0 
-6.0499999397 1.5 0 -5.9999999389 1.4499999993 0 -5.9999999389 1.5 0 
-5.9499999382 1.4499999993 0 -5.9499999382 1.5 0 -5.8999999374 1.4499999993 0 
-5.8999999374 1.5 0 -5.8499999367 1.4499999993 0 -5.8499999367 1.5 0 
-5.7999999359 1.4499999993 0 -5.7999999359 1.5 0 -5.7499999352 1.4499999993 0 
-5.7499999352 1.5 0 -5.6999999344 1.4499999993 0 -5.6999999344 1.5 0 
-5.6499999337 1.4499999993 0 -5.6499999337 1.5 0 -5.5999999329 1.4499999993 0 
-5.5999999329 1.5 0 -5.5499999322 1.4499999993 0 -5.5499999322 1.5 0 
-5.4999999315 1.4499999993 0 -5.4999999315 1.5 0 -5.4499999307 1.4499999993 0 
-5.4499999307 1.5 0 -5.39999993 1.4499999993 0 -5.39999993 1.5 0 
-5.3499999292 1.4499999993 0 -5.3499999292 1.5 0 -5.2999999285 1.4499999993 0 
-5.2999999285 1.5 0 -5.2499999277 1.4499999993 0 -5.2499999277 1.5 0 
-5.199999927 1.4499999993 0 -5.199999927 1.5 0 -5.1499999262 1.4499999993 0 
-5.1499999262 1.5 0 -5.0999999255 1.4499999993 0 -5.0999999255 1.5 0 
-5.0499999247 1.4499999993 0 -5.0499999247 1.5 0 -4.999999924 1.4499999993 0 
-4.999999924 1.5 0 -4.9499999233 1.4499999993 0 -4.9499999233 1.5 0 
-4.8999999225 1.4499999993 0 -4.8999999225 1.5 0 -4.8499999218 1.4499999993 0 
-4.8499999218 1.5 0 -4.799999921 1.4499999993 0 -4.799999921 1.5 0 
-4.7499999203 1.4499999993 0 -4.7499999203 1.5 0 -4.6999999195 1.4499999993 0 
-4.6999999195 1.5 0 -4.6499999188 1.4499999993 0 -4.6499999188 1.5 0 
-4.599999918 1.4499999993 0 -4.599999918 1.5 0 -4.5499999173 1.4499999993 0 
-4.5499999173 1.5 0 -4.4999999166 1.4499999993 0 -4.4999999166 1.5 0 
-4.4499999158 1.4499999993 0 -4.4499999158 1.5 0 -4.3999999151 1.4499999993 0 
-4.3999999151 1.5 0 -4.3499999143 1.4499999993 0 -4.3499999143 1.5 0 
-4.2999999136 1.4499999993 0 -4.2999999136 1.5 0 -4.2499999128 1.4499999993 0 
-4.2499999128 1.5 0 -4.1999999121 1.4499999993 0 -4.1999999121 1.5 0 
-4.1499999113 1.4499999993 0 -4.1499999113 1.5 0 -4.0999999106 1.4499999993 0 
-4.0999999106 1.5 0 -4.0499999098 1.4499999993 0 -4.0499999098 1.5 0 
-3.9999999091 1.4499999993 0 -3.9999999091 1.5 0 -3.9499999084 1.4499999993 0 
-3.9499999084 1.5 0 -3.8999999076 1.4499999993 0 -3.8999999076 1.5 0 
-3.8499999069 1.4499999993 0 -3.8499999069 1.5 0 -3.7999999061 1.4499999993 0 
-3.7999999061 1.5 0 -3.7499999054 1.4499999993 0 -3.7499999054 1.5 0 
-3.6999999046 1.4499999993 0 -3.6999999046 1.5 0 -3.6499999039 1.4499999993 0 
-3.6499999039 1.5 0 -3.5999999031 1.4499999993 0 -3.5999999031 1.5 0 
-3.5499999024 1.4499999993 0 -3.5499999024 1.5 0 -3.4999999017 1.4499999993 0 
-3.4999999017 1.5 0 -3.4499999009 1.4499999993 0 -3.4499999009 1.5 0 
-3.3999999002 1.4499999993 0 -3.3999999002 1.5 0 -3.3499998994 1.4499999993 0 
-3.3499998994 1.5 0 -3.2999998987 1.4499999993 0 -3.2999998987 1.5 0 
-3.2499998979 1.4499999993 0 -3.2499998979 1.5 0 -3.1999998972 1.4499999993 0 
-3.1999998972 1.5 0 -3.1499998964 1.4499999993 0 -3.1499998964 1.5 0 
-3.0999998957 1.4499999993 0 -3.0999998957 1.5 0 -3.0499998949 1.4499999993 0 
-3.0499998949 1.5 0 -2.9999998942 1.4499999993 0 -2.9999998942 1.5 0 
-2.9499998935 1.4499999993 0 -2.9499998935 1.5 0 -2.8999998927 1.4499999993 0 
-2.8999998927 1.5 0 -2.849999892 1.4499999993 0 -2.849999892 1.5 0 
-2.7999998912 1.4499999993 0 -2.7999998912 1.5 0 -2.7499998905 1.4499999993 0 
-2.7499998905 1.5 0 -2.6999998897 1.4499999993 0 -2.6999998897 1.5 0 
-2.649999889 1.4499999993 0 -2.649999889 1.5 0 -2.5999998882 1.4499999993 0 
-2.5999998882 1.5 0 -2.5499998875 1.4499999993 0 -2.5499998875 1.5 0 
-2.4999998868 1.4499999993 0 -2.4999998868 1.5 0 -2.449999886 1.4499999993 0 
-2.449999886 1.5 0 -2.3999998853 1.4499999993 0 -2.3999998853 1.5 0 
-2.3499998845 1.4499999993 0 -2.3499998845 1.5 0 -2.2999998838 1.4499999993 0 
-2.2999998838 1.5 0 -2.249999883 1.4499999993 0 -2.249999883 1.5 0 
-2.1999998823 1.4499999993 0 -2.1999998823 1.5 0 -2.1499998815 1.4499999993 0 
-2.1499998815 1.5 0 -2.0999998808 1.4499999993 0 -2.0999998808 1.5 0 
-2.04999988 1.4499999993 0 -2.04999988 1.5 0 -1.9999998793 1.4499999993 0 
-1.9999998793 1.5 0 -1.9499998786 1.4499999993 0 -1.9499998786 1.5 0 
-1.8999998778 1.4499999993 0 -1.8999998778 1.5 0 -1.8499998771 1.4499999993 0 
-1.8499998771 1.5 0 -1.7999998763 1.4499999993 0 -1.7999998763 1.5 0 
-1.7499998756 1.4499999993 0 -1.7499998756 1.5 0 -1.6999998748 1.4499999993 0 
-1.6999998748 1.5 0 -1.6499998741 1.4499999993 0 -1.6499998741 1.5 0 
-1.5999998733 1.4499999993 0 -1.5999998733 1.5 0 -1.5499998726 1.4499999993 0 
-1.5499998726 1.5 0 -1.4999998718 1.4499999993 0 -1.4999998718 1.5 0 
-1.4499998711 1.4499999993 0 -1.4499998711 1.5 0 -1.3999998704 1.4499999993 0 
-1.3999998704 1.5 0 -1.3499998696 1.4499999993 0 -1.3499998696 1.5 0 
-1.2999998689 1.4499999993 0 -1.2999998689 1.5 0 -1.2499998681 1.4499999993 0 
-1.2499998681 1.5 0 -1.1999998674 1.4499999993 0 -1.1999998674 1.5 0 
-1.1499998666 1.4499999993 0 -1.1499998666 1.5 0 -1.0999998659 1.4499999993 0 
-1.0999998659 1.5 0 -1.0499998651 1.4499999993 0 -1.0499998651 1.5 0 
-0.9999998644 1.4499999993 0 -0.9999998644 1.5 0 -0.94999986365 1.4499999993 0 
-0.94999986365 1.5 0 -0.89999986291 1.4499999993 0 -0.89999986291 1.5 0 
-0.84999986216 1.4499999993 0 -0.84999986216 1.5 0 -0.79999986142 1.4499999993 0 
-0.79999986142 1.5 0 -0.74999986067 1.4499999993 0 -0.74999986067 1.5 0 
-0.69999985993 1.4499999993 0 -0.69999985993 1.5 0 -0.64999985918 1.4499999993 0 
-0.64999985918 1.5 0 -0.59999985844 1.4499999993 0 -0.59999985844 1.5 0 
-0.54999985769 1.4499999993 0 -0.54999985769 1.5 0 -0.49999985695 1.4499999993 0 
-0.49999985695 1.5 0 -0.4499998562 1.4499999993 0 -0.4499998562 1.5 0 
-0.39999985546 1.4499999993 0 -0.39999985546 1.5 0 -0.34999985471 1.4499999993 0 
-0.34999985471 1.5 0 -0.29999985397 1.4499999993 0 -0.29999985397 1.5 0 
-0.24999985322 1.4499999993 0 -0.24999985322 1.5 0 -0.191663057 1.4499999993 0 
-0.17548248559 1.5 0 0.18862900414 1.4499999993 0 0.25000015423 1.4499999993 0 
[...]
CELL_DATA 9510
FIELD FieldData 4
Water_Depth_m 1 9510 float
0.340031 0.340092 0.340153 0.340216 0.34028 0.340347 0.340416 0.340488 0.340564 
0.340643 0.340727 0.340814 0.340905 0.340999 0.341097 0.341199 0.341303 0.34141 
0.341518 0.341628 0.341739 0.34185 0.341961 0.342071 0.342179 0.342285 0.342388 
0.342488 0.342583 0.342675 0.342762 0.342843 0.34292 0.34299 0.343055 0.343113 
0.343165 0.34321 0.343249 0.343281 0.343305 0.343323 0.343334 0.343338 0.343335 
0.343324 0.343306 0.343281 0.343248 0.343208 0.34316 0.343104 0.343041 0.342971 
0.342892 0.342806 0.342713 0.342612 0.342505 0.34239 0.342268 0.34214 0.342006 
0.341866 0.34172 0.34157 0.341415 0.341257 0.341096 0.340933 0.340769 0.340604 
0.34044 0.340277 0.340117 0.33996 0.339808 0.339662 0.339522 0.339391 0.339267 
0.339154 0.339051 0.33896 0.338882 0.338816 0.338764 0.338726 0.338703 0.338695 
0.338702 0.338724 0.33876 0.338811 0.338875 0.338951 0.33904 0.33914 0.33925 
0.339368 0.339494 0.339627 0.339765 0.339906 0.340049 0.340194 0.340337 0.340479 
0.340618 0.340753 0.340883 0.341006 0.341122 0.341231 0.341332 0.341424 0.341507 
0.341581 0.341646 0.341702 0.341749 0.341788 0.341819 0.341844 0.341862 0.341876 
0.341884 0.341889 0.341892 0.341893 0.341894 0.341895 0.341896 0.3419 0.341906 
0.341915 0.341928 0.341943 0.341963 0.341985 0.342011 0.342039 0.34207 0.342102 
0.342137 0.342172 0.342209 0.342246 0.342284 0.342321 0.342358 0.342395 0.342432 
0.342468 0.342503 0.342538 0.342572 0.342605 0.342638 0.342671 0.342703 0.342735 
0.342766 0.342797 0.342828 0.342859 0.34289 0.342921 0.342953 0.342985 0.343019 
0.343053 0.34309 0.343128 0.343169 0.343212 0.34326 0.343312 0.343369 0.343432 
0.343502 0.343581 0.343669 0.343768 0.34388 0.344007 0.344149 0.344309 0.344488 
0.344689 0.344909 0.345148 0.345418 0.345695 0.345966 0.346235 0.346564 0.34695 
0.353543 0.354163 0.35467 0.355134 0.355556 0.355939 0.356284 0.356595 0.356873 
0.357123 0.357347 0.357547 0.357725 0.357885 0.358028 0.358156 0.35827 0.358373 
0.358465 0.358547 0.358621 0.358688 0.358748 0.358802 0.35885 0.358894 0.358934 
0.35897 0.359002 0.359031 0.359058 0.359082 0.359104 0.359124 0.359142 0.359159 
0.359174 0.359188 0.3592 0.359212 0.359222 0.359232 0.359241 0.359249 0.359256 
0.359263 0.359269 0.359275 0.35928 0.359285 0.359289 0.359293 0.359296 0.3593 
0.359303 0.359305 0.359308 0.35931 0.359312 0.359314 0.359315 0.359316 0.359318 
0.359319 0.359319 0.35932 0.35932 0.359321 0.359321 0.359321 0.359321 0.359321 
0.35932 0.35932 0.359319 0.359319 0.359318 0.359317 0.359316 0.359315 0.359313 
0.359312 0.359311 0.359309 0.359307 0.359306 0.359304 0.359302 0.3593 0.359298 
0.359296 0.359294 0.359291 0.359279 0.359211 0.358699 0.352978 0.340029 0.340089 
0.34015 0.340212 0.340275 0.340341 0.34041 0.340482 0.340557 0.340636 0.340719 
0.340806 0.340897 0.340991 0.341089 0.341191 0.341295 0.341402 0.341512 0.341622 
0.341734 0.341845 0.341957 0.342067 0.342176 0.342283 0.342386 0.342487 0.342583 
0.342676 0.342763 0.342846 0.342922 0.342994 0.343059 0.343118 0.34317 0.343216 
0.343255 0.343287 0.343313 0.343331 0.343342 0.343346 0.343343 0.343333 0.343315 
0.34329 0.343257 0.343217 0.343169 0.343114 0.343051 0.34298 0.342902 0.342816 
0.342722 0.342622 0.342513 0.342398 0.342276 0.342148 0.342013 0.341873 0.341727 
0.341576 0.341421 0.341262 0.3411 0.340936 0.340771 0.340606 0.340441 0.340277 
0.340116 0.339959 0.339806 0.339659 0.339518 0.339385 0.339261 0.339147 0.339044 
0.338952 0.338872 0.338806 0.338753 0.338715 0.338691 0.338683 0.33869 0.338712 
0.338748 0.338798 0.338862 0.338939 0.339028 0.339128 0.339239 0.339358 0.339485 
0.339619 0.339757 0.339899 0.340044 0.340189 0.340334 0.340477 0.340617 0.340753 
0.340884 0.341008 0.341126 0.341236 0.341337 0.34143 0.341513 0.341588 0.341653 
0.341709 0.341756 0.341795 0.341826 0.34185 0.341868 0.341881 0.341888 0.341893 
0.341895 0.341895 0.341895 0.341895 0.341896 0.341899 0.341904 0.341913 0.341925 
0.341941 0.34196 0.341982 0.342008 0.342036 0.342067 0.342101 0.342135 0.342171 
0.342208 0.342245 0.342283 0.342321 0.342358 0.342395 0.342432 0.342468 0.342503 
0.342538 0.342572 0.342605 0.342638 0.342671 0.342703 0.342734 0.342765 0.342796 
0.342827 0.342858 0.342889 0.34292 0.342952 0.342984 0.343017 0.343051 0.343087 
0.343125 0.343165 0.343208 0.343255 0.343306 0.343362 0.343424 0.343493 0.34357 
0.343657 0.343754 0.343864 0.343989 0.344129 0.344287 0.344464 0.344662 0.34488 
0.345123 0.345383 0.345655 0.345965 0.346294 0.346821 0.347427 0.353539 0.354163 
0.354674 0.355141 0.355566 0.35595 0.356296 0.356607 0.356885 0.357135 0.357358 
0.357557 0.357735 0.357894 0.358036 0.358164 0.358277 0.358379 0.35847 0.358552 
0.358626 0.358692 0.358751 0.358805 0.358853 0.358897 0.358936 0.358972 0.359004 
0.359033 0.35906 0.359084 0.359105 0.359125 0.359143 0.35916 0.359175 0.359188 
0.359201 0.359212 0.359223 0.359232 0.359241 0.359249 0.359256 0.359263 0.359269 
0.359275 0.35928 0.359285 0.359289 0.359293 0.359297 0.3593 0.359303 0.359305 
0.359308 0.35931 0.359312 0.359314 0.359315 0.359317 0.359318 0.359319 0.359319 
0.35932 0.359321 0.359321 0.359321 0.359321 0.359321 0.359321 0.35932 0.35932 
0.359319 0.359319 0.359318 0.359317 0.359316 0.359315 0.359313 0.359312 0.359311 
0.359309 0.359307 0.359306 0.359304 0.359302 0.3593 0.359298 0.359296 0.359294 
0.359291 0.359279 0.359211 0.358699 0.352978 0.340028 0.340087 0.340146 0.340207 
0.34027 0.340335 0.340402 0.340474 0.340548 0.340627 0.34071 0.340796 0.340887 
0.340982 0.34108 0.341182 0.341287 0.341395 0.341505 0.341617 0.341729 0.341842 
0.341955 0.342067 0.342177 0.342285 0.34239 0.342491 0.342589 0.342682 0.342771 
0.342854 0.342932 0.343004 0.34307 0.343129 0.343182 0.343229 0.343268 0.343301 
0.343326 0.343345 0.343356 0.34336 0.343357 0.343346 0.343328 0.343303 0.34327 
0.343229 0.343181 0.343125 0.343062 0.34299 0.342911 0.342825 0.34273 0.342629 
0.342519 0.342403 0.34228 0.34215 0.342014 0.341873 0.341725 0.341573 0.341416 
0.341256 0.341093 0.340927 0.340761 0.340594 0.340427 0.340262 0.340099 0.33994 
0.339786 0.339637 0.339496 0.339362 0.339236 0.339121 0.339017 0.338924 0.338844 
0.338777 0.338724 0.338686 0.338662 0.338654 0.338661 0.338684 0.338721 0.338772 
0.338838 0.338916 0.339007 0.339108 0.339221 0.339342 0.339471 0.339607 0.339748 
0.339892 0.340039 0.340187 0.340334 0.340479 0.340622 0.34076 0.340893 0.341019 
0.341138 0.341249 0.341352 0.341445 0.34153 0.341604 0.341669 0.341725 0.341772 
0.34181 0.34184 0.341862 0.341878 0.341889 0.341895 0.341897 0.341897 0.341896 
0.341894 0.341892 0.341892 0.341894 0.341898 0.341906 0.341918 0.341934 0.341953 
0.341976 0.342002 0.342031 0.342063 0.342097 0.342132 0.342169 0.342207 0.342245 
0.342283 0.342321 0.342358 0.342395 0.342432 0.342468 0.342504 0.342538 0.342573 
0.342606 0.342639 0.342671 0.342703 0.342735 0.342766 0.342797 0.342827 0.342858 
0.342888 0.342919 0.34295 0.342982 0.343015 0.343048 0.343084 0.343121 0.34316 
0.343202 0.343247 0.343297 0.343351 0.343411 0.343478 0.343553 0.343637 0.343731 
0.343838 0.343959 0.344095 0.344249 0.344423 0.344619 0.344836 0.345077 0.345344 
0.345627 0.345935 0.346313 0.346732 0.347215 0.353552 0.354186 0.354703 0.355175 
0.355602 0.355988 0.356334 0.356644 0.356921 0.357169 0.35739 0.357587 0.357762 
0.357919 0.358059 0.358184 0.358296 0.358396 0.358486 0.358566 0.358638 0.358703 
0.358762 0.358814 0.358862 0.358904 0.358943 0.358978 0.359009 0.359038 0.359064 
0.359088 0.359109 0.359128 0.359146 0.359162 0.359177 0.359191 0.359203 0.359214 
0.359224 0.359234 0.359242 0.35925 0.359257 0.359264 0.35927 0.359276 0.359281 
0.359285 0.35929 0.359293 0.359297 0.3593 0.359303 0.359306 0.359308 0.35931 
0.359312 0.359314 0.359315 0.359317 0.359318 0.359319 0.35932 0.35932 0.359321 
0.359321 0.359321 0.359321 0.359321 0.359321 0.35932 0.35932 0.359319 0.359319 
0.359318 0.359317 0.359316 0.359315 0.359313 0.359312 0.359311 0.359309 0.359307 
0.359306 0.359304 0.359302 0.3593 0.359298 0.359296 0.359294 0.359291 0.359279 
0.359211 0.358699 0.352978 0.340027 0.340084 0.340141 0.3402 0.340261 0.340325 
0.340391 0.340461 0.340535 0.340613 0.340695 0.340782 0.340872 0.340967 0.341066 
0.341169 0.341275 0.341384 0.341496 0.341609 0.341723 0.341838 0.341952 0.342066 
0.342178 0.342288 0.342395 0.342498 0.342597 0.342692 0.342783 0.342867 0.342946 
0.34302 0.343086 0.343147 0.343201 0.343248 0.343288 0.343321 0.343346 0.343365 
0.343376 0.34338 0.343377 0.343366 0.343348 0.343323 0.343289 0.343248 0.343199 
0.343142 0.343078 0.343006 0.342926 0.342838 0.342742 0.342639 0.342528 0.342411 
0.342286 0.342154 0.342016 0.341873 0.341723 0.341569 0.34141 0.341247 0.341082 
0.340914 0.340745 0.340575 0.340406 0.340239 0.340074 0.339913 0.339756 0.339606 
0.339462 0.339326 0.339199 0.339082 0.338976 0.338883 0.338802 0.338734 0.338681 
0.338642 0.338618 0.33861 0.338618 0.338642 0.33868 0.338733 0.3388 0.338881 
0.338974 0.339078 0.339193 0.339318 0.33945 0.339589 0.339734 0.339882 0.340032 
0.340184 0.340334 0.340483 0.340629 0.34077 0.340906 0.341035 0.341157 0.34127 
0.341375 0.341469 0.341555 0.34163 0.341694 0.34175 0.341795 0.341832 0.34186 
0.34188 0.341894 0.341902 0.341905 0.341904 0.341902 0.341897 0.341892 0.341888 
0.341886 0.341886 0.341889 0.341896 0.341907 0.341923 0.341943 0.341966 0.341993 
0.342024 0.342057 0.342092 0.342128 0.342166 0.342204 0.342243 0.342282 0.342321 
0.342359 0.342396 0.342433 0.342469 0.342505 0.34254 0.342574 0.342607 0.34264 
0.342672 0.342704 0.342735 0.342766 0.342797 0.342827 0.342857 0.342887 0.342918 
0.342948 0.342979 0.343011 0.343044 0.343078 0.343114 0.343152 0.343192 0.343236 
0.343283 0.343335 0.343392 0.343456 0.343527 0.343607 0.343696 0.343798 0.343913 
0.344044 0.344193 0.344361 0.344552 0.344766 0.345007 0.345279 0.345568 0.345891 
0.346271 0.346637 0.347077 0.353572 0.354221 0.354748 0.355227 0.355658 0.356045 
0.356391 0.3567 0.356975 0.35722 0.357437 0.357631 0.357803 0.357956 0.358093 
0.358215 0.358324 0.358421 0.358509 0.358587 0.358657 0.35872 0.358777 0.358828 
0.358874 0.358915 0.358953 0.358987 0.359017 0.359045 0.35907 0.359093 0.359114 
0.359133 0.35915 0.359166 0.359181 0.359194 0.359206 0.359217 0.359227 0.359236 
0.359244 0.359252 0.359259 0.359265 0.359271 0.359277 0.359282 0.359286 0.35929 
0.359294 0.359298 0.359301 0.359304 0.359306 0.359309 0.359311 0.359313 0.359314 
0.359316 0.359317 0.359318 0.359319 0.35932 0.35932 0.359321 0.359321 0.359321 
0.359321 0.359321 0.359321 0.359321 0.35932 0.359319 0.359319 0.359318 0.359317 
0.359316 0.359315 0.359313 0.359312 0.359311 0.359309 0.359307 0.359306 0.359304 
0.359302 0.3593 0.359298 0.359296 0.359294 0.359291 0.359279 0.359211 0.358699 
0.352978 0.340025 0.340079 0.340134 0.340191 0.34025 0.340312 0.340377 0.340445 
0.340518 0.340595 0.340676 0.340762 0.340853 0.340948 0.341048 0.341152 0.341259 
0.341369 0.341483 0.341598 0.341714 0.341831 0.341948 0.342065 0.342179 0.342291 
0.342401 0.342507 0.342609 0.342706 0.342798 0.342885 0.342965 0.34304 0.343108 
0.34317 0.343225 0.343273 0.343314 0.343347 0.343373 0.343392 0.343403 0.343407 
0.343404 0.343393 0.343375 0.343348 0.343314 0.343273 0.343223 0.343165 0.3431 
0.343026 0.342944 0.342855 0.342758 0.342653 0.34254 0.34242 0.342293 0.342159 
0.342019 0.341872 0.34172 0.341563 0.341401 0.341235 0.341067 0.340896 0.340724 
0.340551 0.340379 0.340208 0.34004 0.339876 0.339716 0.339563 0.339416 0.339278 
0.339149 0.33903 0.338922 0.338827 0.338744 0.338676 0.338622 0.338583 0.338559 
0.338552 0.338561 0.338586 0.338626 0.338681 0.338751 0.338834 0.33893 0.339038 
0.339157 0.339285 0.339422 0.339566 0.339715 0.339868 0.340023 0.340179 0.340335 
0.340489 0.340639 0.340785 0.340925 0.341057 0.341183 0.341299 0.341405 0.341502 
0.341588 0.341664 0.341728 0.341783 0.341827 0.341861 0.341887 0.341904 0.341914 
0.341919 0.341918 0.341914 0.341907 0.341898 0.34189 0.341882 0.341877 0.341875 
0.341876 0.341882 0.341893 0.341908 0.341928 0.341953 0.341981 0.342013 0.342048 
0.342084 0.342123 0.342162 0.342202 0.342242 0.342282 0.342321 0.34236 0.342398 
0.342435 0.342471 0.342507 0.342541 0.342575 0.342609 0.342642 0.342674 0.342705 
0.342736 0.342767 0.342797 0.342827 0.342856 0.342886 0.342916 0.342946 0.342976 
0.343007 0.343038 0.343071 0.343106 0.343142 0.34318 0.343221 0.343266 0.343314 
0.343368 0.343427 0.343493 0.343567 0.343651 0.343746 0.343854 0.343977 0.344117 
0.344278 0.344461 0.34467 0.344908 0.345181 0.345478 0.345812 0.346195 0.346532 
0.346938 0.3536 0.35427 0.354811 0.355299 0.355735 0.356124 0.35647 0.356776 
0.357047 0.357288 0.357501 0.357689 0.357857 0.358006 0.358138 0.358256 0.358361 
0.358455 0.358539 0.358614 0.358681 0.358742 0.358797 0.358846 0.35889 0.35893 
0.358966 0.358998 0.359028 0.359055 0.359079 0.359101 0.359121 0.359139 0.359156 
0.359171 0.359185 0.359198 0.359209 0.35922 0.359229 0.359238 0.359246 0.359254 
0.359261 0.359267 0.359273 0.359278 0.359283 0.359287 0.359291 0.359295 0.359298 
0.359302 0.359304 0.359307 0.359309 0.359311 0.359313 0.359315 0.359316 0.359317 
0.359318 0.359319 0.35932 0.359321 0.359321 0.359321 0.359321 0.359321 0.359321 
0.359321 0.359321 0.35932 0.35932 0.359319 0.359318 0.359317 0.359316 0.359315 
0.359314 0.359312 0.359311 0.359309 0.359308 0.359306 0.359304 0.359302 0.3593 
0.359298 0.359296 0.359294 0.359291 0.359279 0.359211 0.358699 0.352978 0.340023 
0.340074 0.340126 0.34018 0.340236 0.340296 0.340358 0.340425 0.340496 0.340572 
0.340652 0.340738 0.340828 0.340924 0.341024 0.341129 0.341238 0.341351 0.341466 
0.341584 0.341703 0.341823 0.341943 0.342063 0.342181 0.342296 0.342409 0.342518 
0.342622 0.342722 0.342817 0.342906 0.342989 0.343066 0.343136 0.343199 0.343255 
0.343304 0.343346 0.34338 0.343407 0.343426 0.343437 0.343441 0.343438 0.343426 
0.343407 0.343381 0.343346 0.343303 0.343252 0.343193 0.343126 0.343051 0.342968 
0.342876 0.342777 0.34267 0.342555 0.342432 0.342302 0.342165 0.342022 0.341872 
0.341716 0.341555 0.34139 0.34122 0.341048 0.340873 0.340697 0.34052 0.340344 
0.340169 0.339998 0.339829 0.339666 0.339509 0.33936 0.339218 0.339086 0.338965 
0.338855 0.338757 0.338673 0.338603 0.338548 0.338509 0.338485 0.338478 0.338489 
0.338515 0.338558 0.338616 0.338688 0.338775 0.338875 0.338987 0.339111 0.339245 
0.339388 0.339537 0.339692 0.339851 0.340012 0.340175 0.340336 0.340496 0.340652 
0.340803 0.340948 0.341085 0.341215 0.341334 0.341444 0.341543 0.341631 0.341707 
0.341771 0.341825 0.341867 0.341899 0.341921 0.341934 0.34194 0.34194 0.341935 
0.341925 0.341913 0.3419 0.341886 0.341874 0.341865 0.34186 0.341859 0.341863 
0.341873 0.341889 0.341909 0.341935 0.341966 0.342 0.342037 0.342076 0.342116 
0.342157 0.342199 0.34224 0.342281 0.342322 0.342361 0.342399 0.342437 0.342473 
0.342509 0.342544 0.342578 0.342611 0.342643 0.342675 0.342707 0.342737 0.342768 
0.342797 0.342827 0.342856 0.342885 0.342914 0.342943 0.342972 0.343002 0.343032 
0.343063 0.343096 0.34313 0.343165 0.343204 0.343245 0.343289 0.343338 0.343392 
0.343452 0.34352 0.343596 0.343682 0.34378 0.343893 0.344023 0.344172 0.344346 
0.344545 0.344778 0.345047 0.345349 0.345697 0.34607 0.346441 0.346835 0.353639 
0.354336 0.354895 0.355393 0.355835 0.356226 0.35657 0.356873 0.357139 0.357374 
0.35758 0.357763 0.357924 0.358067 0.358194 0.358306 0.358407 0.358496 0.358576 
0.358648 0.358712 0.358769 0.358821 0.358868 0.35891 0.358947 0.358982 0.359013 
0.359041 0.359066 0.359089 0.35911 0.359129 0.359147 0.359163 0.359177 0.35919 
0.359203 0.359214 0.359224 0.359233 0.359242 0.359249 0.359257 0.359263 0.359269 
0.359275 0.35928 0.359284 0.359289 0.359293 0.359296 0.359299 0.359302 0.359305 
0.359308 0.35931 0.359312 0.359313 0.359315 0.359316 0.359318 0.359319 0.35932 
0.35932 0.359321 0.359321 0.359321 0.359322 0.359322 0.359321 0.359321 0.359321 
0.35932 0.35932 0.359319 0.359318 0.359317 0.359316 0.359315 0.359314 0.359312 
0.359311 0.359309 0.359308 0.359306 0.359304 0.359302 0.3593 0.359298 0.359296 
0.359294 0.359291 0.359279 0.359211 0.358699 0.352978 0.34002 0.340068 0.340117 
0.340167 0.34022 0.340276 0.340337 0.340401 0.34047 0.340544 0.340624 0.340709 
0.340799 0.340895 0.340996 0.341103 0.341213 0.341328 0.341446 0.341567 0.34169 
0.341814 0.341937 0.342061 0.342182 0.342302 0.342418 0.34253 0.342639 0.342742 
0.34284 0.342931 0.343017 0.343096 0.343168 0.343233 0.343291 0.343341 0.343384 
0.343419 0.343446 0.343465 0.343477 0.343481 0.343477 0.343465 0.343446 0.343418 
0.343383 0.343339 0.343287 0.343226 0.343158 0.343081 0.342995 0.342902 0.3428 
0.34269 0.342572 0.342446 0.342313 0.342173 0.342025 0.341871 0.341712 0.341546 
0.341376 0.341202 0.341025 0.340846 0.340665 0.340483 0.340302 0.340123 0.339946 
0.339774 0.339606 0.339445 0.339292 0.339146 0.339011 0.338886 0.338773 0.338674 
0.338587 0.338516 0.33846 0.33842 0.338397 0.338391 0.338403 0.338431 0.338476 
0.338538 0.338614 0.338706 0.33881 0.338928 0.339058 0.339198 0.339347 0.339504 
0.339666 0.339832 0.34 0.34017 0.340338 0.340505 0.340668 0.340825 0.340976 
0.34112 0.341254 0.341378 0.341491 0.341592 0.341682 0.341759 0.341823 0.341875 
0.341915 0.341944 0.341962 0.341971 0.341971 0.341965 0.341954 0.341938 0.34192 
0.3419 0.341881 0.341864 0.34185 0.34184 0.341836 0.341839 0.341848 0.341864 
0.341886 0.341914 0.341947 0.341984 0.342024 0.342066 0.342109 0.342152 0.342196 
0.342239 0.342282 0.342323 0.342363 0.342402 0.34244 0.342477 0.342512 0.342547 
0.342581 0.342614 0.342646 0.342678 0.342709 0.342739 0.342769 0.342798 0.342827 
0.342856 0.342884 0.342912 0.34294 0.342968 0.342996 0.343025 0.343054 0.343084 
0.343116 0.343149 0.343184 0.343221 0.343261 0.343304 0.343352 0.343405 0.343465 
0.343532 0.343608 0.343695 0.343795 0.343911 0.344046 0.344204 0.34439 0.344611 
0.34487 0.345173 0.345534 0.345916 0.346369 0.346852 0.35369 0.354423 0.355003 
0.355514 0.355962 0.356353 0.356694 0.356991 0.35725 0.357477 0.357676 0.35785 
0.358004 0.35814 0.358259 0.358366 0.35846 0.358545 0.35862 0.358687 0.358747 
0.358801 0.35885 0.358893 0.358933 0.358968 0.359001 0.35903 0.359056 0.35908 
0.359102 0.359121 0.359139 0.359156 0.359171 0.359184 0.359197 0.359208 0.359219 
0.359228 0.359237 0.359245 0.359253 0.35926 0.359266 0.359272 0.359277 0.359282 
0.359286 0.35929 0.359294 0.359297 0.359301 0.359303 0.359306 0.359308 0.359311 
0.359312 0.359314 0.359316 0.359317 0.359318 0.359319 0.35932 0.359321 0.359321 
0.359321 0.359322 0.359322 0.359322 0.359322 0.359321 0.359321 0.35932 0.35932 
0.359319 0.359318 0.359317 0.359316 0.359315 0.359314 0.359312 0.359311 0.359309 
0.359308 0.359306 0.359304 0.359302 0.3593 0.359298 0.359296 0.359294 0.359291 
0.359279 0.359211 0.358699 0.352978 0.340018 0.340061 0.340106 0.340152 0.340202 
0.340255 0.340312 0.340373 0.34044 0.340512 0.340591 0.340675 0.340765 0.340861 
0.340964 0.341072 0.341184 0.341302 0.341423 0.341548 0.341674 0.341802 0.34193 
0.342058 0.342184 0.342308 0.342428 0.342545 0.342657 0.342764 0.342865 0.34296 
0.343049 0.34313 0.343205 0.343272 0.343331 0.343383 0.343427 0.343463 0.343491 
0.34351 0.343522 0.343526 0.343522 0.34351 0.34349 0.343461 0.343425 0.34338 
0.343326 0.343264 0.343193 0.343114 0.343027 0.342931 0.342826 0.342713 0.342592 
0.342462 0.342325 0.34218 0.342029 0.34187 0.341706 0.341536 0.341361 0.341181 
0.340999 0.340814 0.340627 0.34044 0.340254 0.340069 0.339887 0.33971 0.339537 
0.339371 0.339213 0.339063 0.338924 0.338796 0.33868 0.338577 0.338489 0.338416 
0.338359 0.338318 0.338295 0.33829 0.338304 0.338335 0.338383 0.338449 0.33853 
0.338627 0.338737 0.338861 0.338998 0.339146 0.339303 0.339467 0.339638 0.339812 
0.339988 0.340166 0.340342 0.340517 0.340687 0.340852 0.34101 0.341159 0.341299 
0.341428 0.341545 0.34165 0.341741 0.341819 0.341883 0.341934 0.341971 0.341996 
0.342009 0.342012 0.342007 0.341994 0.341976 0.341952 0.341926 0.341899 0.341873 
0.341849 0.34183 0.341816 0.341808 0.341809 0.341817 0.341834 0.341858 0.341889 
0.341925 0.341965 0.342009 0.342055 0.342101 0.342148 0.342194 0.342239 0.342283 