# vtk DataFile Version 5.1
vtk output
ASCII
DATASET UNSTRUCTURED_GRID
POINTS 10043 double
-10.1 1.4499999993 7.5966234192e-08 -10.049999999 1.4499999993 9.0079772974e-08 -10.049999999 1.5 -3.5011566979e-07 
-9.9999999985 1.4499999993 9.3647720689e-08 -9.9999999985 1.5 -3.5856669456e-07 -9.9499999978 1.4499999993 9.382780064e-08 
-9.9499999978 1.5 -3.5875314097e-07 -9.899999997 1.4499999993 9.331120765e-08 -9.899999997 1.5 -3.5646758079e-07 
-9.8499999963 1.4499999993 9.2503576354e-08 -9.8499999963 1.5 -3.5344780258e-07 -9.7999999955 1.4499999993 9.1680483649e-08 
-9.7999999955 1.5 -3.5018115341e-07 -9.7499999948 1.4499999993 9.0857390944e-08 -9.7499999948 1.5 -3.4689878703e-07 
-9.699999994 1.4499999993 9.0027931776e-08 -9.699999994 1.5 -3.438146905e-07 -9.6499999933 1.4499999993 8.9220300481e-08 
-9.6499999933 1.5 -3.4090248846e-07 -9.5999999925 1.4499999993 8.8516351582e-08 -9.5999999925 1.5 -3.3815035749e-07 
-9.5499999918 1.4499999993 8.785242045e-08 -9.5499999918 1.5 -3.3557103052e-07 -9.4999999911 1.4499999993 8.7279438787e-08 
-9.4999999911 1.5 -3.3324545257e-07 -9.4499999903 1.4499999993 8.6665529864e-08 -9.4499999903 1.5 -3.3107176023e-07 
-9.3999999896 1.4499999993 8.6117104559e-08 -9.3999999896 1.5 -3.2906632441e-07 -9.3499999888 1.4499999993 8.5657809734e-08 
-9.3499999888 1.5 -3.2721277421e-07 -9.2999999881 1.4499999993 8.5206700362e-08 -9.2999999881 1.5 -3.2556749829e-07 
-9.2499999873 1.4499999993 8.4829260061e-08 -9.2499999873 1.5 -3.2402954275e-07 -9.1999999866 1.4499999993 8.4430901381e-08 
-9.1999999866 1.5 -3.2260373928e-07 -9.1499999858 1.4499999993 8.4100754805e-08 -9.1499999858 1.5 -3.2135199035e-07 
-9.0999999851 1.4499999993 8.3799712058e-08 -9.0999999851 1.5 -3.2018965612e-07 -9.0499999844 1.4499999993 8.3531411121e-08 
-9.0499999844 1.5 -3.1909644349e-07 -8.9999999836 1.4499999993 8.3297670983e-08 -8.9999999836 1.5 -3.1820422919e-07 
-8.9499999829 1.4499999993 8.3090306191e-08 -8.9499999829 1.5 -3.1739614315e-07 -8.8999999821 1.4499999993 8.2907952503e-08 
-8.8999999821 1.5 -3.1667627809e-07 -8.8499999814 1.4499999993 8.2735603257e-08 -8.8499999814 1.5 -3.1606646189e-07 
-8.7999999806 1.4499999993 8.2584627137e-08 -8.7999999806 1.5 -3.1549711821e-07 -8.7499999799 1.4499999993 8.2456843131e-08 
-8.7499999799 1.5 -3.1508147913e-07 -8.6999999791 1.4499999993 8.2434560511e-08 -8.6999999791 1.5 -3.1484501051e-07 
-8.6499999784 1.4499999993 8.2303138527e-08 -8.6499999784 1.5 -3.1456670513e-07 -8.5999999776 1.4499999993 8.2261756518e-08 
-8.5999999776 1.5 -3.1429249248e-07 -8.5499999769 1.4499999993 8.2229014708e-08 -8.5499999769 1.5 -3.1411559576e-07 
-8.4999999762 1.4499999993 8.2215827035e-08 -8.4999999762 1.5 -3.1406284506e-07 -8.4499999754 1.4499999993 8.2217646025e-08 
-8.4499999754 1.5 -3.1402009881e-07 -8.3999999747 1.4499999993 8.2206732088e-08 -8.3999999747 1.5 -3.1407694223e-07 
-8.3499999739 1.4499999993 8.2272215707e-08 -8.3499999739 1.5 -3.1421063795e-07 -8.2999999732 1.4499999993 8.2299500548e-08 
-8.2999999732 1.5 -3.1443755688e-07 -8.2499999724 1.4499999993 8.2368167398e-08 -8.2499999724 1.5 -3.1465401662e-07 
-8.1999999717 1.4499999993 8.2463209594e-08 -8.1999999717 1.5 -3.1499075703e-07 -8.1499999709 1.4499999993 8.2572348958e-08 
-8.1499999709 1.5 -3.1535932976e-07 -8.0999999702 1.4499999993 8.2687854785e-08 -8.0999999702 1.5 -3.1583817872e-07 
-8.0499999695 1.4499999993 8.2818367275e-08 -8.0499999695 1.5 -3.1633112485e-07 -7.9999999687 1.4499999993 8.2925232903e-08 
-7.9999999687 1.5 -3.1694867175e-07 -7.949999968 1.4499999993 8.3078937507e-08 -7.949999968 1.5 -3.1757213037e-07 
-7.8999999672 1.4499999993 8.3319498856e-08 -7.8999999672 1.5 -3.1826061786e-07 -7.8499999665 1.4499999993 8.3490029112e-08 
-7.8499999665 1.5 -3.1906733966e-07 -7.7999999657 1.4499999993 8.3715129051e-08 -7.7999999657 1.5 -3.1988679439e-07 
-7.749999965 1.4499999993 8.393340778e-08 -7.749999965 1.5 -3.2079219636e-07 -7.6999999642 1.4499999993 8.420625619e-08 
-7.6999999642 1.5 -3.2170942177e-07 -7.6499999635 1.4499999993 8.448092359e-08 -7.6499999635 1.5 -3.2271259442e-07 
-7.5999999627 1.4499999993 8.4725122917e-08 -7.5999999627 1.5 -3.2385946724e-07 -7.549999962 1.4499999993 8.5042991316e-08 
-7.549999962 1.5 -3.2493792901e-07 -7.4999999613 1.4499999993 8.5367226177e-08 -7.4999999613 1.5 -3.2615366763e-07 
-7.4499999605 1.4499999993 8.5698736996e-08 -7.4499999605 1.5 -3.2743969314e-07 -7.3999999598 1.4499999993 8.6026155088e-08 
-7.3999999598 1.5 -3.2876982914e-07 -7.349999959 1.4499999993 8.6404050137e-08 -7.349999959 1.5 -3.3015089684e-07 
-7.2999999583 1.4499999993 8.6809230027e-08 -7.2999999583 1.5 -3.3164837987e-07 -7.2499999575 1.4499999993 8.7205769717e-08 
-7.2499999575 1.5 -3.3316632653e-07 -7.1999999568 1.4499999993 8.7597307186e-08 -7.1999999568 1.5 -3.3479159356e-07 
-7.149999956 1.4499999993 8.8083886851e-08 -7.149999956 1.5 -3.3646006159e-07 -7.0999999553 1.4499999993 8.8316262747e-08 
-7.0999999553 1.5 -3.3734545468e-07 -7.0499999546 1.4499999993 8.8747363236e-08 -7.0499999546 1.5 -3.3914989217e-07 
-6.9999999538 1.4499999993 8.9268048953e-08 -6.9999999538 1.5 -3.4105892155e-07 -6.9499999531 1.4499999993 8.9767361544e-08 
-6.9499999531 1.5 -3.4299614526e-07 -6.8999999523 1.4499999993 9.0306237155e-08 -6.8999999523 1.5 -3.4503023016e-07 
-6.8499999516 1.4499999993 9.0873761849e-08 -6.8499999516 1.5 -3.4719255382e-07 -6.7999999508 1.4499999993 9.14485625e-08 
-6.7999999508 1.5 -3.4943764149e-07 -6.7499999501 1.4499999993 9.2051557488e-08 -6.7499999501 1.5 -3.5176367419e-07 
-6.6999999493 1.4499999993 9.2712305388e-08 -6.6999999493 1.5 -3.5417792787e-07 -6.6499999486 1.4499999993 9.3384421973e-08 
-6.6499999486 1.5 -3.5672860577e-07 -6.5999999478 1.4499999993 9.4048353105e-08 -6.5999999478 1.5 -3.5937159737e-07 
-6.5499999471 1.4499999993 9.480277896e-08 -6.5499999471 1.5 -3.6212571786e-07 -6.4999999464 1.4499999993 9.5570847236e-08 
-6.4999999464 1.5 -3.6501728573e-07 -6.4499999456 1.4499999993 9.6319361376e-08 -6.4499999456 1.5 -3.6805818127e-07 
-6.3999999449 1.4499999993 9.7174286395e-08 -6.3999999449 1.5 -3.7122185859e-07 -6.3499999441 1.4499999993 9.8049675046e-08 
-6.3499999441 1.5 -3.7455788515e-07 -6.2999999434 1.4499999993 9.8934613391e-08 -6.2999999434 1.5 -3.7803897612e-07 
-6.2499999426 1.4499999993 9.9890492322e-08 -6.2499999426 1.5 -3.8169923755e-07 -6.1999999419 1.4499999993 1.0091140012e-07 
-6.1999999419 1.5 -3.8552889237e-07 -6.1499999411 1.4499999993 1.0198096589e-07 -6.1499999411 1.5 -3.8957841753e-07 
-6.0999999404 1.4499999993 1.030744059e-07 -6.0999999404 1.5 -3.9383076e-07 -6.0499999397 1.4499999993 1.0425402053e-07 
-6.0499999397 1.5 -3.9834958443e-07 -5.9999999389 1.4499999993 1.054868406e-07 -5.9999999389 1.5 -4.0310874283e-07 
-5.9499999382 1.4499999993 1.0681811347e-07 -5.9499999382 1.5 -4.0811096369e-07 -5.8999999374 1.4499999993 1.0820827612e-07 
-5.8999999374 1.5 -4.1346885382e-07 -5.8499999367 1.4499999993 1.0969529995e-07 -5.8499999367 1.5 -4.1916291593e-07 
-5.7999999359 1.4499999993 1.1128486932e-07 -5.7999999359 1.5 -4.2519650378e-07 -5.7499999352 1.4499999993 1.1297039038e-07 
-5.7499999352 1.5 -4.3161435315e-07 -5.6999999344 1.4499999993 1.1477323625e-07 -5.6999999344 1.5 -4.3853287934e-07 
-5.6499999337 1.4499999993 1.1671318845e-07 -5.6499999337 1.5 -4.4593593884e-07 -5.5999999329 1.4499999993 1.1880116091e-07 
-5.5999999329 1.5 -4.5386582315e-07 -5.5499999322 1.4499999993 1.1990779569e-07 -5.5499999322 1.5 -4.5806075377e-07 
-5.4999999315 1.4499999993 1.2221109102e-07 -5.4999999315 1.5 -4.6696231948e-07 -5.4499999307 1.4499999993 1.2472675337e-07 
-5.4499999307 1.5 -4.7660250857e-07 -5.39999993 1.4499999993 1.2747501899e-07 -5.39999993 1.5 -4.8703213906e-07 
-5.3499999292 1.4499999993 1.304417907e-07 -5.3499999292 1.5 -4.9841764849e-07 -5.2999999285 1.4499999993 1.3370119234e-07 
-5.2999999285 1.5 -5.1081974561e-07 -5.2499999277 1.4499999993 1.3725890824e-07 -5.2499999277 1.5 -5.2442396736e-07 
-5.199999927 1.4499999993 1.4118019465e-07 -5.199999927 1.5 -5.3940198086e-07 -5.1499999262 1.4499999993 1.4549529226e-07 
-5.1499999262 1.5 -5.5590521697e-07 -5.0999999255 1.4499999993 1.5028150813e-07 -5.0999999255 1.5 -5.7419379118e-07 
-5.0499999247 1.4499999993 1.5560796385e-07 -5.0499999247 1.5 -5.9451713241e-07 -4.999999924 1.4499999993 1.6155696869e-07 
-4.999999924 1.5 -6.1721380007e-07 -4.9499999233 1.4499999993 1.68220609e-07 -4.9499999233 1.5 -6.4265873334e-07 
-4.8999999225 1.4499999993 1.7572848776e-07 -4.8999999225 1.5 -6.7132066306e-07 -4.8499999218 1.4499999993 1.842186208e-07 
-4.8499999218 1.5 -7.0373766903e-07 -4.799999921 1.4499999993 1.9387563555e-07 -4.799999921 1.5 -7.4057629718e-07 
-4.7499999203 1.4499999993 2.0492826991e-07 -4.7499999203 1.5 -7.8267635217e-07 -4.6999999195 1.4499999993 2.1759707636e-07 
-4.6999999195 1.5 -8.3102236204e-07 -4.6499999188 1.4499999993 2.3224107792e-07 -4.6499999188 1.5 -8.8686806521e-07 
-4.599999918 1.4499999993 2.4927885534e-07 -4.599999918 1.5 -9.5177324511e-07 -4.5499999173 1.4499999993 2.6919815355e-07 
-4.5499999173 1.5 -1.0277037745e-06 -4.4999999166 1.4499999993 2.9266925594e-07 -4.4999999166 1.5 -1.11708232e-06 
-4.4499999158 1.4499999993 3.2050979826e-07 -4.4499999158 1.5 -1.2231273558e-06 -4.3999999151 1.4499999993 3.5382004171e-07 
-4.3999999151 1.5 -1.3499836768e-06 -4.3499999143 1.4499999993 3.940751867e-07 -4.3499999143 1.5 -1.5030591385e-06 
-4.2999999136 1.4499999993 4.4311843794e-07 -4.2999999136 1.5 -1.6895775161e-06 -4.2499999128 1.4499999993 5.0360745263e-07 
-4.2499999128 1.5 -1.9193489607e-06 -4.1999999121 1.4499999993 5.7909596762e-07 -4.1999999121 1.5 -2.2058982267e-06 
-4.1499999113 1.4499999993 6.7466055498e-07 -4.1499999113 1.5 -2.5682988962e-06 -4.0999999106 1.4499999993 7.9765379724e-07 
-4.0999999106 1.5 -3.0340597732e-06 -4.0499999098 1.4499999993 9.590269201e-07 -4.0499999098 1.5 -3.6440421809e-06 
-3.9999999091 1.4499999993 1.1756841332e-06 -3.9999999091 1.5 -4.4611479098e-06 -3.9499999084 1.4499999993 1.3126763179e-06 
[...]
CELL_DATA 9510
FIELD FieldData 4
Water_Depth_m 1 9510 float
0.759992 0.759976 0.75996 0.759946 0.759935 0.759927 0.759923 0.759923 0.759927 
0.759937 0.759952 0.759972 0.759997 0.760026 0.760059 0.760096 0.760136 0.760179 
0.760223 0.760268 0.760314 0.760359 0.760404 0.760447 0.760488 0.760528 0.760564 
0.760598 0.76063 0.760658 0.760683 0.760705 0.760723 0.760739 0.760751 0.76076 
0.760766 0.760769 0.760769 0.760766 0.760759 0.760749 0.760736 0.760719 0.760698 
0.760673 0.760643 0.760607 0.760565 0.760517 0.760462 0.7604 0.760329 0.760249 
0.760161 0.760065 0.759961 0.759851 0.759737 0.75962 0.759503 0.759389 0.75928 
0.759178 0.759086 0.759005 0.758937 0.758881 0.758839 0.75881 0.758793 0.75879 
0.758798 0.758818 0.758849 0.758889 0.758938 0.758994 0.759057 0.759125 0.759196 
0.75927 0.759346 0.759422 0.759496 0.759569 0.759639 0.759706 0.759768 0.759826 
0.759879 0.759927 0.759969 0.760007 0.76004 0.760068 0.760092 0.760112 0.760127 
0.760139 0.760148 0.760154 0.760157 0.760158 0.760157 0.760154 0.760149 0.760143 
0.760136 0.760127 0.760118 0.760108 0.760098 0.760087 0.760077 0.760067 0.760058 
0.76005 0.760044 0.76004 0.76004 0.760043 0.760051 0.760064 0.760085 0.760113 
0.760151 0.760201 0.76027 0.760394 0.760665 0.760591 0.755134 0.741764 0.722248 
0.698258 0.671091 0.641874 0.611655 0.581438 0.55275 0.526456 0.503592 0.485663 
0.474642 0.472871 0.472973 0.473065 0.473151 0.473228 0.473298 0.47336 0.473417 
0.473469 0.473518 0.473566 0.473612 0.47366 0.473874 0.473821 0.470189 0.457585 
0.447703 0.445128 0.444911 0.444475 0.445471 0.448153 0.451791 0.454943 0.456448 
0.457775 0.459783 0.462487 0.46571 0.468385 0.468573 0.4696 0.473202 0.476904 
0.483939 0.49079 0.491478 0.493003 0.495497 0.498139 0.50247 0.507291 0.516591 
0.525081 0.535531 0.543139 0.551072 0.553121 0.556785 0.557465 0.551921 0.546947 
0.484407 0.486197 0.487193 0.487323 0.486992 0.488328 0.489086 0.48884 0.482603 
0.474542 0.474492 0.47453 0.474564 0.474594 0.474622 0.474647 0.47467 0.474691 
0.47471 0.474727 0.474743 0.474756 0.474768 0.474779 0.474788 0.474795 0.474802 
0.474808 0.474813 0.474817 0.47482 0.474822 0.474824 0.474825 0.474826 0.474827 
0.474827 0.474826 0.474826 0.474825 0.474823 0.474822 0.47482 0.474819 0.474817 
0.474815 0.474812 0.47481 0.474808 0.474805 0.474803 0.4748 0.474798 0.474795 
0.474793 0.47479 0.474788 0.474785 0.474782 0.47478 0.474777 0.474775 0.474772 
0.47477 0.474767 0.474765 0.474762 0.47476 0.474758 0.474755 0.474753 0.474751 
0.474749 0.474746 0.474744 0.474742 0.47474 0.474738 0.474736 0.474735 0.474733 
0.474731 0.474729 0.474728 0.474726 0.474725 0.474723 0.474722 0.47472 0.474719 
0.474718 0.474717 0.474716 0.474715 0.474714 0.474713 0.469206 0.759991 0.759974 
0.759958 0.759943 0.759932 0.759923 0.759918 0.759918 0.759922 0.759931 0.759946 
0.759966 0.759991 0.76002 0.760054 0.760091 0.760132 0.760175 0.760219 0.760265 
0.760311 0.760357 0.760402 0.760445 0.760487 0.760527 0.760564 0.760599 0.76063 
0.760659 0.760684 0.760706 0.760725 0.760741 0.760753 0.760762 0.760769 0.760772 
0.760772 0.760769 0.760762 0.760752 0.760739 0.760722 0.760701 0.760675 0.760645 
0.760609 0.760567 0.760518 0.760463 0.760399 0.760328 0.760247 0.760158 0.76006 
0.759955 0.759843 0.759727 0.759609 0.75949 0.759375 0.759265 0.759163 0.759071 
0.75899 0.758922 0.758867 0.758825 0.758796 0.758781 0.758777 0.758786 0.758807 
0.758838 0.758879 0.758928 0.758985 0.759049 0.759117 0.75919 0.759265 0.759342 
0.759418 0.759494 0.759568 0.759639 0.759706 0.759769 0.759827 0.759881 0.759929 
0.759972 0.76001 0.760043 0.760071 0.760095 0.760114 0.76013 0.760141 0.76015 
0.760156 0.760159 0.760159 0.760158 0.760155 0.76015 0.760143 0.760136 0.760127 
0.760117 0.760107 0.760096 0.760086 0.760075 0.760064 0.760055 0.760046 0.760039 
0.760034 0.760033 0.760034 0.76004 0.760052 0.760069 0.760094 0.760127 0.760168 
0.760219 0.760282 0.760382 0.760378 0.755486 0.742808 0.723749 0.699869 0.672541 
0.642986 0.612325 0.581579 0.552073 0.524964 0.501724 0.484116 0.474314 0.472898 
0.472992 0.473079 0.473162 0.473238 0.473306 0.473368 0.473424 0.473475 0.473523 
0.473569 0.473614 0.47366 0.47381 0.473749 0.470252 0.457787 0.448401 0.449274 
0.4493 0.448697 0.449895 0.452273 0.455804 0.458924 0.459497 0.46111 0.461239 
0.463404 0.465941 0.470501 0.476253 0.481417 0.482315 0.484284 0.489126 0.4939 
0.498838 0.50203 0.50707 0.511986 0.514957 0.520178 0.531322 0.543829 0.553536 
0.561211 0.562851 0.562502 0.555105 0.5549 0.554658 0.557311 0.503011 0.487394 
0.487456 0.48742 0.487672 0.489071 0.48987 0.489618 0.483043 0.474642 0.474468 
0.474506 0.474541 0.474573 0.474603 0.474631 0.474656 0.474678 0.474699 0.474717 
0.474733 0.474747 0.47476 0.474771 0.47478 0.474789 0.474796 0.474802 0.474807 
0.474811 0.474815 0.474817 0.47482 0.474821 0.474822 0.474823 0.474823 0.474823 
0.474822 0.474821 0.47482 0.474819 0.474817 0.474816 0.474814 0.474812 0.47481 
0.474808 0.474805 0.474803 0.474801 0.474798 0.474796 0.474793 0.474791 0.474788 
0.474786 0.474783 0.47478 0.474778 0.474775 0.474773 0.47477 0.474768 0.474766 
0.474763 0.474761 0.474758 0.474756 0.474754 0.474752 0.474749 0.474747 0.474745 
0.474743 0.474741 0.474739 0.474737 0.474735 0.474733 0.474732 0.47473 0.474728 
0.474726 0.474725 0.474723 0.474722 0.47472 0.474719 0.474718 0.474716 0.474715 
0.474714 0.474713 0.474712 0.474711 0.469202 0.759991 0.759972 0.759954 0.759938 
0.759925 0.759915 0.759909 0.759908 0.759912 0.759921 0.759935 0.759955 0.75998 
0.76001 0.760044 0.760082 0.760123 0.760167 0.760212 0.760259 0.760305 0.760352 
0.760398 0.760443 0.760486 0.760526 0.760564 0.760599 0.760632 0.760661 0.760687 
0.760709 0.760729 0.760745 0.760758 0.760768 0.760774 0.760778 0.760778 0.760775 
0.760769 0.760759 0.760746 0.760728 0.760707 0.760681 0.76065 0.760613 0.760571 
0.760521 0.760464 0.760399 0.760325 0.760243 0.760151 0.76005 0.759942 0.759827 
0.759708 0.759586 0.759465 0.759348 0.759236 0.759133 0.75904 0.75896 0.758892 
0.758838 0.758797 0.75877 0.758755 0.758753 0.758763 0.758785 0.758817 0.758859 
0.75891 0.758969 0.759034 0.759104 0.759179 0.759256 0.759334 0.759413 0.759491 
0.759566 0.759639 0.759708 0.759772 0.759831 0.759886 0.759934 0.759978 0.760016 
0.760049 0.760077 0.760101 0.76012 0.760135 0.760147 0.760155 0.76016 0.760163 
0.760163 0.760161 0.760158 0.760152 0.760146 0.760138 0.760129 0.760119 0.760108 
0.760097 0.760086 0.760074 0.760063 0.760052 0.760043 0.760035 0.760029 0.760025 
0.760026 0.76003 0.76004 0.760056 0.760079 0.76011 0.76015 0.760201 0.760266 
0.760415 0.760359 0.755616 0.743286 0.724556 0.700837 0.673478 0.643731 0.612763 
0.581667 0.551738 0.524275 0.500968 0.483674 0.474261 0.472887 0.472993 0.473088 
0.473173 0.473248 0.473315 0.473375 0.473429 0.473477 0.473522 0.473563 0.473604 
0.473646 0.473808 0.473749 0.470389 0.4586 0.451119 0.453837 0.455356 0.456364 
0.457448 0.459638 0.461812 0.463725 0.464184 0.464976 0.468531 0.471517 0.475229 
0.4796 0.485377 0.490067 0.490884 0.492504 0.496535 0.502228 0.508175 0.514262 
0.518652 0.523381 0.528449 0.536532 0.546785 0.558134 0.564862 0.568745 0.569108 
0.569184 0.574022 0.579442 0.587796 0.59209 0.530654 0.504521 0.491137 0.488411 
0.48847 0.489092 0.489916 0.48968 0.483237 0.474628 0.474471 0.47451 0.474545 
0.474578 0.474608 0.474636 0.47466 0.474683 0.474703 0.474721 0.474737 0.474751 
0.474763 0.474774 0.474783 0.474791 0.474798 0.474804 0.474809 0.474813 0.474816 
0.474819 0.474821 0.474822 0.474823 0.474824 0.474824 0.474824 0.474823 0.474822 
0.474821 0.47482 0.474818 0.474816 0.474814 0.474812 0.47481 0.474808 0.474806 
0.474803 0.474801 0.474798 0.474796 0.474793 0.474791 0.474788 0.474786 0.474783 
0.474781 0.474778 0.474776 0.474773 0.474771 0.474768 0.474766 0.474763 0.474761 
0.474758 0.474756 0.474754 0.474752 0.474749 0.474747 0.474745 0.474743 0.474741 
0.474739 0.474737 0.474735 0.474733 0.474732 0.47473 0.474728 0.474727 0.474725 
0.474723 0.474722 0.474721 0.474719 0.474718 0.474717 0.474715 0.474714 0.474713 
0.474712 0.474711 0.469203 0.759989 0.759968 0.759948 0.75993 0.759915 0.759903 
0.759896 0.759894 0.759896 0.759905 0.759919 0.759939 0.759964 0.759994 0.760029 
0.760068 0.76011 0.760155 0.760202 0.760249 0.760298 0.760346 0.760393 0.760439 
0.760483 0.760525 0.760564 0.760601 0.760634 0.760664 0.760691 0.760715 0.760735 
0.760752 0.760765 0.760776 0.760783 0.760786 0.760787 0.760784 0.760778 0.760768 
0.760755 0.760738 0.760716 0.760689 0.760657 0.76062 0.760576 0.760524 0.760465 
0.760398 0.760321 0.760235 0.76014 0.760035 0.759922 0.759802 0.759677 0.759551 
0.759426 0.759305 0.759191 0.759086 0.758993 0.758913 0.758847 0.758794 0.758756 
0.75873 0.758718 0.758717 0.758729 0.758752 0.758786 0.75883 0.758883 0.758944 
0.759012 0.759085 0.759163 0.759243 0.759324 0.759406 0.759486 0.759565 0.75964 
0.759711 0.759777 0.759838 0.759894 0.759943 0.759988 0.760026 0.760059 0.760087 
0.76011 0.760129 0.760144 0.760154 0.760162 0.760167 0.760169 0.760168 0.760166 
0.760162 0.760156 0.760149 0.760141 0.760131 0.760121 0.760109 0.760098 0.760085 
0.760073 0.760061 0.760049 0.760038 0.760028 0.76002 0.760014 0.760012 0.760014 
0.760021 0.760034 0.760054 0.760082 0.76012 0.760167 0.760226 0.760368 0.760326 
0.755652 0.743494 0.724964 0.701374 0.674027 0.644176 0.61302 0.581718 0.551571 
0.523989 0.500713 0.483568 0.474291 0.472917 0.473022 0.473115 0.473198 0.473271 
0.473335 0.473392 0.473442 0.473487 0.473528 0.473565 0.4736 0.473635 0.473774 
0.473717 0.470873 0.46064 0.455118 0.457805 0.459379 0.460479 0.461638 0.462893 
0.464964 0.467257 0.469992 0.473653 0.477465 0.481172 0.483114 0.486507 0.489901 
0.493538 0.495893 0.498327 0.502742 0.508728 0.514203 0.520481 0.525098 0.530632 
0.535854 0.543261 0.552642 0.563156 0.566132 0.568494 0.575092 0.581245 0.592175 
0.605598 0.614765 0.615505 0.550674 0.525161 0.500217 0.489467 0.489431 0.489808 
0.49061 0.490418 0.483901 0.474639 0.474474 0.474513 0.47455 0.474583 0.474613 
0.474641 0.474666 0.474688 0.474708 0.474725 0.474741 0.474755 0.474767 0.474777 
0.474786 0.474794 0.474801 0.474806 0.474811 0.474815 0.474818 0.474821 0.474822 
0.474824 0.474824 0.474825 0.474825 0.474824 0.474824 0.474823 0.474821 0.47482 
0.474818 0.474817 0.474815 0.474813 0.47481 0.474808 0.474806 0.474803 0.474801 
0.474799 0.474796 0.474793 0.474791 0.474788 0.474786 0.474783 0.474781 0.474778 
0.474776 0.474773 0.474771 0.474768 0.474766 0.474763 0.474761 0.474758 0.474756 
0.474754 0.474752 0.474749 0.474747 0.474745 0.474743 0.474741 0.474739 0.474737 
0.474735 0.474733 0.474732 0.47473 0.474728 0.474726 0.474725 0.474723 0.474722 
0.47472 0.474719 0.474718 0.474716 0.474715 0.474714 0.474713 0.474712 0.474711 
0.469202 0.759988 0.759964 0.75994 0.75992 0.759902 0.759888 0.759879 0.759875 
0.759876 0.759884 0.759897 0.759917 0.759943 0.759974 0.760009 0.760049 0.760093 
0.760139 0.760188 0.760237 0.760288 0.760338 0.760387 0.760435 0.76048 0.760524 
0.760565 0.760603 0.760637 0.760669 0.760697 0.760721 0.760743 0.76076 0.760775 
0.760786 0.760794 0.760798 0.760799 0.760797 0.760791 0.760781 0.760767 0.76075 
0.760727 0.7607 0.760667 0.760628 0.760582 0.760529 0.760467 0.760396 0.760316 
0.760225 0.760124 0.760013 0.759893 0.759767 0.759635 0.759502 0.759372 0.759246 
0.759129 0.759023 0.75893 0.758851 0.758787 0.758738 0.758702 0.75868 0.75867 
0.758672 0.758686 0.758712 0.758749 0.758795 0.758851 0.758915 0.758986 0.759063 
0.759144 0.759228 0.759313 0.759399 0.759483 0.759564 0.759643 0.759717 0.759785 
0.759848 0.759905 0.759956 0.760001 0.76004 0.760073 0.760101 0.760123 0.760141 
0.760155 0.760165 0.760172 0.760176 0.760177 0.760176 0.760173 0.760168 0.760161 
0.760154 0.760144 0.760134 0.760123 0.760111 0.760099 0.760086 0.760072 0.760058 
0.760044 0.760031 0.760019 0.760009 0.76 0.759995 0.759993 0.759996 0.760005 
0.760021 0.760046 0.76008 0.760125 0.760184 0.760326 0.760283 0.755639 0.743566 
0.725146 0.701639 0.674313 0.644413 0.613157 0.58175 0.5515 0.523888 0.500652 
0.483574 0.474329 0.472955 0.473059 0.47315 0.47323 0.4733 0.473361 0.473414 
0.473461 0.473501 0.473537 0.473568 0.473596 0.473622 0.473723 0.473674 0.471954 
0.46622 0.461661 0.461858 0.463428 0.464758 0.466194 0.467246 0.467454 0.469163 
0.473927 0.478779 0.482385 0.48534 0.486608 0.488208 0.492393 0.49627 0.500519 
0.504318 0.507886 0.511688 0.517675 0.5226 0.528781 0.533724 0.541199 0.54657 
0.552733 0.562116 0.564676 0.566885 0.577588 0.587079 0.600043 0.617558 0.623378 
0.622918 0.572625 0.542181 0.521081 0.499371 0.490495 0.491626 0.492098 0.491841 
0.484495 0.47467 0.47448 0.474521 0.474558 0.474592 0.474622 0.47465 0.474674 
0.474696 0.474715 0.474733 0.474748 0.474761 0.474773 0.474783 0.474791 0.474799 
0.474805 0.47481 0.474815 0.474818 0.474821 0.474823 0.474825 0.474826 0.474826 
0.474827 0.474826 0.474826 0.474825 0.474824 0.474823 0.474821 0.474819 0.474817 
0.474815 0.474813 0.474811 0.474809 0.474806 0.474804 0.474801 0.474799 0.474796 
0.474794 0.474791 0.474789 0.474786 0.474783 0.474781 0.474778 0.474776 0.474773 
0.474771 0.474768 0.474766 0.474763 0.474761 0.474758 0.474756 0.474754 0.474752 
0.474749 0.474747 0.474745 0.474743 0.474741 0.474739 0.474737 0.474735 0.474733 
0.474732 0.47473 0.474728 0.474726 0.474725 0.474723 0.474722 0.47472 0.474719 
0.474718 0.474716 0.474715 0.474714 0.474713 0.474712 0.474711 0.469202 0.759986 
0.759958 0.759931 0.759907 0.759886 0.759869 0.759858 0.759851 0.759851 0.759858 
0.759871 0.759891 0.759917 0.759949 0.759986 0.760027 0.760073 0.760121 0.760171 
0.760223 0.760276 0.760328 0.760379 0.760429 0.760477 0.760523 0.760565 0.760605 
0.760641 0.760674 0.760704 0.760729 0.760752 0.760771 0.760786 0.760798 0.760807 
0.760812 0.760813 0.760811 0.760805 0.760796 0.760782 0.760764 0.760742 0.760713 
0.760679 0.760639 0.76059 0.760534 0.760469 0.760394 0.760308 0.760211 0.760103 
0.759984 0.759856 0.759721 0.759581 0.75944 0.759303 0.759172 0.759052 0.758945 
0.758854 0.758778 0.758718 0.758673 0.758643 0.758625 0.758619 0.758624 0.758642 
0.75867 0.758708 0.758757 0.758816 0.758883 0.758957 0.759038 0.759123 0.759212 
0.759302 0.759392 0.759481 0.759567 0.759649 0.759726 0.759798 0.759863 0.759922 
0.759974 0.76002 0.760059 0.760092 0.760119 0.760141 0.760157 0.76017 0.760179 
0.760184 0.760187 0.760187 0.760185 0.760181 0.760175 0.760168 0.760159 0.76015 
0.760139 0.760127 0.760114 0.760101 0.760086 0.760071 0.760055 0.76004 0.760024 
0.760009 0.759995 0.759983 0.759973 0.759967 0.759965 0.759969 0.75998 0.759999 
0.760029 0.76007 0.760126 0.760268 0.760227 0.755596 0.743561 0.725198 0.701742 
0.674437 0.644521 0.613223 0.581773 0.551482 0.52387 0.500665 0.483617 0.474382 
0.473007 0.473108 0.473196 0.473273 0.473339 0.473395 0.473443 0.473485 0.47352 
0.47355 0.473574 0.473595 0.47361 0.47367 0.47363 0.472513 0.468674 0.465603 
0.46643 0.46781 0.469103 0.470144 0.471364 0.472588 0.474657 0.477904 0.481357 
0.485115 0.488042 0.491157 0.494273 0.498036 0.502602 0.507373 0.511789 0.516112 
0.520843 0.526025 0.531947 0.537713 0.543958 0.550819 0.558556 0.558904 0.558232 
0.561366 0.565711 0.576845 0.587345 0.599408 0.61584 0.621568 0.621237 0.592713 
0.563431 0.544777 0.523628 0.499832 0.492052 0.493076 0.492799 0.484959 0.474689 
0.474488 0.474531 0.474569 0.474603 0.474633 0.474661 0.474685 0.474706 0.474725 
0.474742 0.474756 0.474769 0.47478 0.474789 0.474797 0.474804 0.47481 0.474815 
0.474819 0.474822 0.474824 0.474826 0.474828 0.474828 0.474829 0.474829 0.474828 
0.474827 0.474826 0.474825 0.474824 0.474822 0.47482 0.474818 0.474816 0.474814 
0.474812 0.474809 0.474807 0.474804 0.474802 0.474799 0.474797 0.474794 0.474791 
0.474789 0.474786 0.474784 0.474781 0.474778 0.474776 0.474773 0.474771 0.474768 
0.474766 0.474763 0.474761 0.474759 0.474756 0.474754 0.474752 0.474749 0.474747 
0.474745 0.474743 0.474741 0.474739 0.474737 0.474735 0.474733 0.474732 0.47473 
0.474728 0.474726 0.474725 0.474723 0.474722 0.47472 0.474719 0.474718 0.474716 
0.474715 0.474714 0.474713 0.474712 0.474711 0.469202 0.759983 0.759951 0.75992 
0.759891 0.759867 0.759847 0.759833 0.759824 0.759823 0.759828 0.759841 0.759861 
0.759887 0.75992 0.759959 0.760002 0.760049 0.7601 0.760153 0.760207 0.760262 
0.760317 0.760371 0.760423 0.760474 0.760521 0.760566 0.760608 0.760646 0.760681 
0.760712 0.760739 0.760763 0.760783 0.760799 0.760812 0.760822 0.760828 0.76083 
0.760828 0.760823 0.760813 0.760799 0.760781 0.760758 0.760728 0.760693 0.76065 
0.760599 0.76054 0.76047 0.76039 0.760298 0.760194 0.760078 0.75995 0.759812 
0.759667 0.759518 0.759369 0.759225 0.75909 0.758969 0.758864 0.758776 0.758706 
0.758653 0.758614 0.758588 0.758575 0.758573 0.758581 0.758599 0.758628 0.758668 
0.758719 0.758779 0.758849 0.758927 0.759012 0.759102 0.759196 0.759291 0.759386 
0.75948 0.759571 0.759658 0.759739 0.759814 0.759882 0.759943 0.759997 0.760043 
0.760082 0.760115 0.760141 0.760162 0.760177 0.760189 0.760196 0.7602 0.760201 
0.7602 0.760197 0.760191 0.760184 0.760176 0.760167 0.760156 0.760145 0.760132 
0.760118 0.760103 0.760087 0.760071 0.760053 0.760035 0.760016 0.759998 0.75998 
0.759963 0.759948 0.759936 0.759928 0.759925 0.759929 0.759942 0.759965 0.760001 
0.760053 0.760193 0.760153 0.755527 0.743508 0.725175 0.70175 0.674466 0.644555 
0.613251 0.581795 0.551495 0.523895 0.500712 0.483681 0.474447 0.47307 0.473169 
0.473253 0.473324 0.473385 0.473436 0.473479 0.473515 0.473544 0.473567 0.473585 
0.473597 0.473604 0.473637 0.473605 0.472751 0.469707 0.469043 0.470691 0.471995 
0.473009 0.474313 0.476024 0.479496 0.482839 0.484563 0.487273 0.491185 0.494839 
0.4983 0.501592 0.505848 0.510771 0.516298 0.521661 0.52598 0.530591 0.536433 
0.542831 0.548667 0.554529 0.559155 0.562032 0.568142 0.572875 0.576833 0.580308 
0.584006 0.590803 0.596515 0.606079 0.61503 0.615972 0.616371 0.585234 0.564112 
0.542737 0.517209 0.496873 0.493223 0.492934 0.484983 0.474712 0.474501 0.474544 
0.474583 0.474617 0.474648 0.474674 0.474698 0.474719 0.474737 0.474753 0.474766 
0.474778 0.474788 0.474797 0.474805 0.474811 0.474816 0.47482 0.474824 0.474827 
0.474829 0.47483 0.474831 0.474831 0.474831 0.474831 0.474831 0.47483 0.474828 
0.474827 0.474825 0.474823 0.474822 0.474819 0.474817 0.474815 0.474813 0.47481 
0.474808 0.474805 0.474802 0.4748 0.474797 0.474795 0.474792 0.474789 0.474786 
0.474784 0.474781 0.474779 0.474776 0.474773 0.474771 0.474768 0.474766 0.474763 
0.474761 0.474759 0.474756 0.474754 0.474752 0.47475 0.474747 0.474745 0.474743 
0.474741 0.474739 0.474737 0.474735 0.474733 0.474732 0.47473 0.474728 0.474727 
0.474725 0.474723 0.474722 0.47472 0.474719 0.474718 0.474716 0.474715 0.474714 
0.474713 0.474712 0.474711 0.469202 0.759981 0.759943 0.759907 0.759874 0.759846 
0.759823 0.759805 0.759795 0.759791 0.759795 0.759808 0.759828 0.759855 0.759889 
0.759929 0.759975 0.760025 0.760078 0.760133 0.760191 0.760248 0.760306 0.760363 
0.760418 0.76047 0.76052 0.760567 0.760611 0.760651 0.760688 0.76072 0.760749 
0.760775 0.760796 0.760814 0.760828 0.760838 0.760845 0.760848 0.760846 0.760841 
0.760832 0.760818 0.760799 0.760775 0.760745 0.760708 0.760663 0.760609 0.760546 
0.760472 0.760385 0.760287 0.760175 0.76005 0.759912 0.759764 0.759609 0.759451 
0.759294 0.759146 0.75901 0.758892 0.758791 0.758711 0.758648 0.758601 0.758568 
0.758547 0.758535 0.758534 0.758542 0.758559 0.758588 0.758627 0.758679 0.758741 
0.758813 0.758895 0.758983 0.759078 0.759176 0.759277 0.759378 0.759477 0.759573 
0.759665 0.759751 0.75983 0.759902 0.759965 0.760021 0.760068 0.760108 0.760141 
0.760166 0.760186 0.7602 0.76021 0.760215 0.760218 0.760218 0.760215 0.76021 
0.760203 0.760195 0.760186 0.760176 0.760164 0.760152 0.760138 0.760123 0.760107 
0.76009 0.760071 0.760051 0.76003 0.760008 0.759986 0.759963 0.759941 0.75992 
0.759901 0.759885 0.759875 0.75987 0.759874 0.759888 0.759916 0.759962 0.760099 
0.760058 0.755434 0.743425 0.725107 0.701705 0.674443 0.644551 0.613262 0.581822 