# vtk DataFile Version 5.1
vtk output
ASCII
DATASET UNSTRUCTURED_GRID
POINTS 4929 double
0.1016 1.5 0.28099998832 0.1016 1.45 0.25999999046 0.1016 1.4 0.23600000143 
0.1016 1.35 0.21099999547 0.1016 1.3 0.20100000501 0.1016 1.25 0.16500000656 
0.1016 1.2 0.14900000393 0.1016 1.15 0.13099999726 0.1016 1.1 0.12700000405 
0.1016 1.05 0.125 0.1016 1 0.093000002205 0.1016 0.95 0.067000001669 
0.1016 0.9 0.045000001788 0.1016 0.85 0.034000001848 0.1016 0.8 0.028000000864 
0.1016 0.75 0.025000000373 0.1016 0.7 0.044058129191 0.1016 0.65 0.070433147252 
0.1016 0.6 0.09648257494 0.1016 0.55 0.12507975101 0.1016 0.5 0.15407636762 
0.1016 0.45 0.18182496727 0.1016 0.4 0.20970889926 0.1016 0.35 0.23818907142 
0.1016 0.3 0.26254275441 0.1016 0.25 0.27623543143 0.1016 0.2 0.2801887095 
0.1016 0.15 0.27855038643 0.1016 0.1 0.26756572723 0.1016 0.05 0.22187276185 
0.1016 0 0.12328904867 5.08 1.5 0.28700000048 5.08 1.45 0.28700000048 
5.08 1.4 0.28700000048 5.08 1.35 0.28700000048 5.08 1.3 0.28700000048 
5.08 1.25 0.28700000048 5.08 1.2 0.28700000048 5.08 1.15 0.28700000048 
5.08 1.1 0.28700000048 5.08 1.05 0.28700000048 5.08 1 0.28700000048 
5.08 0.95 0.28700000048 5.08 0.9 0.28700000048 5.08 0.85 0.28700000048 
5.08 0.8 0.28700000048 5.08 0.75 0.28700000048 5.08 0.7 0.28700000048 
5.08 0.65 0.28700000048 5.08 0.6 0.28700000048 5.08 0.55 0.28700000048 
5.08 0.5 0.28700000048 5.08 0.45 0.28700000048 5.08 0.4 0.28700000048 
5.08 0.35 0.28700000048 5.08 0.3 0.28700000048 5.08 0.25 0.28700000048 
5.08 0.2 0.28700000048 5.08 0.15 0.28700000048 5.08 0.1 0.28700000048 
5.08 0.05 0.28700000048 5.08 0 0.28700000048 0.12737462728 1.5 0.28042718768 
0.12737462728 1.45 0.26958322525 0.12737462728 1.4 0.24622510374 0.12737462728 1.35 0.21888443828 
0.12737462728 1.3 0.2066898793 0.12737462728 1.25 0.17308999598 0.12737462728 1.2 0.15343038738 
0.12737462728 1.15 0.1336863935 0.12737462728 1.1 0.12678776681 0.12737462728 1.05 0.11909794807 
0.12737462728 1 0.10070821643 0.12737462728 0.95 0.079532891512 0.12737462728 0.9 0.056582219899 
0.12737462728 0.85 0.038052659482 0.12737462728 0.8 0.030367512256 0.12737462728 0.75 0.028310723603 
0.12737462728 0.7 0.044225990772 0.12737462728 0.65 0.068478241563 0.12737462728 0.6 0.091173432767 
0.12737462728 0.55 0.1195602417 0.12737462728 0.5 0.14868426323 0.12737462728 0.45 0.17677389085 
0.12737462728 0.4 0.20553925633 0.12737462728 0.35 0.23608642817 0.12737462728 0.3 0.26294034719 
0.12737462728 0.25 0.27703362703 0.12737462728 0.2 0.28043156862 0.12737462728 0.15 0.28190365434 
0.12737462728 0.1 0.27863574028 0.12737462728 0.05 0.24999776483 0.12737462728 0 0.12281348556 
0.15441581276 1.5 0.27901610732 0.15441581276 1.45 0.27716097236 0.15441581276 1.4 0.2567242384 
0.15441581276 1.35 0.22673384845 0.15441581276 1.3 0.21315133572 0.15441581276 1.25 0.18190729618 
0.15441581276 1.2 0.16197873652 0.15441581276 1.15 0.1387437731 0.15441581276 1.1 0.12951609492 
0.15441581276 1.05 0.11548787355 0.15441581276 1 0.10849896818 0.15441581276 0.95 0.092863172293 
0.15441581276 0.9 0.07214679569 0.15441581276 0.85 0.048317637295 0.15441581276 0.8 0.039055276662 
0.15441581276 0.75 0.038141530007 0.15441581276 0.7 0.04964042455 0.15441581276 0.65 0.071353696287 
0.15441581276 0.6 0.091595128179 0.15441581276 0.55 0.119369708 0.15441581276 0.5 0.1471323669 
0.15441581276 0.45 0.1751562655 0.15441581276 0.4 0.20420090854 0.15441581276 0.35 0.23501980305 
0.15441581276 0.3 0.26285743713 0.15441581276 0.25 0.27686312795 0.15441581276 0.2 0.27884212136 
0.15441581276 0.15 0.28279325366 0.15441581276 0.1 0.28304031491 0.15441581276 0.05 0.283110708 
0.15441581276 0 0.14485383034 0.18278579477 1.5 0.27916291356 0.18278579477 1.45 0.27902269363 
0.18278579477 1.4 0.26667118073 0.18278579477 1.35 0.23716130853 0.18278579477 1.3 0.21590660512 
0.18278579477 1.25 0.1948992759 0.18278579477 1.2 0.17621158063 0.18278579477 1.15 0.14965434372 
0.18278579477 1.1 0.13756345212 0.18278579477 1.05 0.12288504839 0.18278579477 1 0.11560480297 
0.18278579477 0.95 0.10466721654 0.18278579477 0.9 0.088109783828 0.18278579477 0.85 0.067213967443 
0.18278579477 0.8 0.054575558752 0.18278579477 0.75 0.055037934333 0.18278579477 0.7 0.059607721865 
0.18278579477 0.65 0.0771336779 0.18278579477 0.6 0.10056013614 0.18278579477 0.55 0.12529577315 
0.18278579477 0.5 0.14971448481 0.18278579477 0.45 0.17795661092 0.18278579477 0.4 0.20740869641 
0.18278579477 0.35 0.23559315503 0.18278579477 0.3 0.26096737385 0.18278579477 0.25 0.27482873201 
0.18278579477 0.2 0.27641943097 0.18278579477 0.15 0.27972862124 0.18278579477 0.1 0.28242689371 
0.18278579477 0.05 0.28353244066 0.18278579477 0 0.22615532577 0.21254987001 1.5 0.27892774343 
0.21254987001 1.45 0.27880933881 0.21254987001 1.4 0.27411806583 0.21254987001 1.35 0.24955645204 
0.21254987001 1.3 0.22513796389 0.21254987001 1.25 0.20983821154 0.21254987001 1.2 0.19176670909 
0.21254987001 1.15 0.16461597383 0.21254987001 1.1 0.14973814785 0.21254987001 1.05 0.13274395466 
0.21254987001 1 0.12342774123 0.21254987001 0.95 0.1147923097 0.21254987001 0.9 0.10273194313 
0.21254987001 0.85 0.087812170386 0.21254987001 0.8 0.074917145073 0.21254987001 0.75 0.076999895275 
0.21254987001 0.7 0.077974960208 0.21254987001 0.65 0.089020214975 0.21254987001 0.6 0.11223744601 
0.21254987001 0.55 0.13573920727 0.21254987001 0.5 0.15765924752 0.21254987001 0.45 0.18473041058 
0.21254987001 0.4 0.21234373748 0.21254987001 0.35 0.23857034743 0.21254987001 0.3 0.26064679027 
0.21254987001 0.25 0.27168673277 0.21254987001 0.2 0.27326014638 0.21254987001 0.15 0.2758140564 
0.21254987001 0.1 0.27682480216 0.21254987001 0.05 0.27985927463 0.21254987001 0 0.28473773599 
0.24377654385 1.5 0.27832347155 0.24377654385 1.45 0.2775965035 0.24377654385 1.4 0.27661255002 
0.24377654385 1.35 0.26372471452 0.24377654385 1.3 0.24294556677 0.24377654385 1.25 0.22582532465 
0.24377654385 1.2 0.20347118378 0.24377654385 1.15 0.18246825039 0.24377654385 1.1 0.16203744709 
0.24377654385 1.05 0.14196285605 0.24377654385 1 0.13201959431 0.24377654385 0.95 0.1240157336 
0.24377654385 0.9 0.1138356626 0.24377654385 0.85 0.10568276793 0.24377654385 0.8 0.096475996077 
0.24377654385 0.75 0.099761486053 0.24377654385 0.7 0.10501015931 0.24377654385 0.65 0.10741432011 
0.24377654385 0.6 0.12508746982 0.24377654385 0.55 0.1498311162 0.24377654385 0.5 0.1711461693 
0.24377654385 0.45 0.1951430589 0.24377654385 0.4 0.21784681082 0.24377654385 0.35 0.24469207227 
0.24377654385 0.3 0.26369473338 0.24377654385 0.25 0.26797902584 0.24377654385 0.2 0.27139851451 
0.24377654385 0.15 0.27271574736 0.24377654385 0.1 0.27432498336 0.24377654385 0.05 0.2768586278 
0.24377654385 0 0.28628197312 0.27653768798 1.5 0.27604544163 0.27653768798 1.45 0.2760515511 
0.27653768798 1.4 0.2763954103 0.27653768798 1.35 0.27075749636 0.27653768798 1.3 0.25993260741 
0.27653768798 1.25 0.2400932312 0.27653768798 1.2 0.21540209651 0.27653768798 1.15 0.19640290737 
0.27653768798 1.1 0.17315770686 0.27653768798 1.05 0.15504287183 0.27653768798 1 0.14305333793 
0.27653768798 0.95 0.13481521606 0.27653768798 0.9 0.12335604429 0.27653768798 0.85 0.11948463321 
0.27653768798 0.8 0.11363232881 0.27653768798 0.75 0.11953126639 0.27653768798 0.7 0.12651862204 
0.27653768798 0.65 0.13049499691 0.27653768798 0.6 0.14815351367 0.27653768798 0.55 0.16819497943 
0.27653768798 0.5 0.18740519881 0.27653768798 0.45 0.20837374032 0.27653768798 0.4 0.22920872271 
0.27653768798 0.35 0.25223955512 0.27653768798 0.3 0.26683187485 0.27653768798 0.25 0.26817780733 
0.27653768798 0.2 0.27072063088 0.27653768798 0.15 0.27235037088 0.27653768798 0.1 0.2736902535 
0.27653768798 0.05 0.27366358042 0.27653768798 0 0.27867996693 0.31090870586 1.5 0.27416908741 
0.31090870586 1.45 0.27480497956 0.31090870586 1.4 0.27478861809 0.31090870586 1.35 0.27141174674 
0.31090870586 1.3 0.2705283165 0.31090870586 1.25 0.25385409594 0.31090870586 1.2 0.22876237333 
0.31090870586 1.15 0.20955169201 0.31090870586 1.1 0.18647253513 0.31090870586 1.05 0.17163932323 
0.31090870586 1 0.15664711595 0.31090870586 0.95 0.14827872813 0.31090870586 0.9 0.13506239653 
0.31090870586 0.85 0.13427150249 0.31090870586 0.8 0.12812814116 0.31090870586 0.75 0.13410742581 
0.31090870586 0.7 0.13981504738 0.31090870586 0.65 0.1523103714 0.31090870586 0.6 0.17386728525 
0.31090870586 0.55 0.18833456933 0.31090870586 0.5 0.20521615446 0.31090870586 0.45 0.22375075519 
0.31090870586 0.4 0.24456912279 0.31090870586 0.35 0.26038727164 0.31090870586 0.3 0.26919201016 
0.31090870586 0.25 0.27017745376 0.31090870586 0.2 0.27101573348 0.31090870586 0.15 0.27290540934 
0.31090870586 0.1 0.27386876941 0.31090870586 0.05 0.27300480008 0.31090870586 0 0.27565985918 
0.34696870625 1.5 0.27555927634 0.34696870625 1.45 0.27406427264 0.34696870625 1.4 0.27404111624 
0.34696870625 1.35 0.27356234193 0.34696870625 1.3 0.27206686139 0.34696870625 1.25 0.26955679059 
0.34696870625 1.2 0.24508737028 0.34696870625 1.15 0.22578968108 0.34696870625 1.1 0.20771208405 
0.34696870625 1.05 0.18791350722 0.34696870625 1 0.17358469963 0.34696870625 0.95 0.16440400481 
0.34696870625 0.9 0.1554723829 0.34696870625 0.85 0.15608821809 0.34696870625 0.8 0.14856527746 
0.34696870625 0.75 0.14950177073 0.34696870625 0.7 0.15244790912 0.34696870625 0.65 0.17216257751 
0.34696870625 0.6 0.19023559988 0.34696870625 0.55 0.20753657818 0.34696870625 0.5 0.22436927259 
0.34696870625 0.45 0.24007093906 0.34696870625 0.4 0.25883373618 0.34696870625 0.35 0.26756197214 
0.34696870625 0.3 0.26993146539 0.34696870625 0.25 0.27091091871 0.34696870625 0.2 0.27102223039 
0.34696870625 0.15 0.27220615745 0.34696870625 0.1 0.27315440774 0.34696870625 0.05 0.27300679684 
0.34696870625 0 0.27419903874 0.3848006853 1.5 0.27619233727 0.3848006853 1.45 0.27468720078 
0.3848006853 1.4 0.27466383576 0.3848006853 1.35 0.27354541421 0.3848006853 1.3 0.27301460505 
0.3848006853 1.25 0.27366960049 0.3848006853 1.2 0.26314097643 0.3848006853 1.15 0.24503950775 
[...]
CELL_DATA 4740
FIELD FieldData 7
B_Stress_n_p_m2 1 4740 float
0.343081 0.334919 0.324921 0.319292 0.315074 0.309468 0.308068 0.308445 0.309158 
0.310447 0.305007 0.292801 0.269309 0.240479 0.161092 0.0853307 0.0659293 0.0567878 
0.0483269 0.0430212 0.0398567 0.0382576 0.037818 0.0379686 0.0377073 0.0363946 0.0343333 
0.0304487 0.0271564 0.0234759 0.34346 0.338877 0.326833 0.31743 0.312896 0.307096 
0.302875 0.301346 0.299871 0.300172 0.299385 0.290508 0.27113 0.246584 0.196824 
0.145356 0.115801 0.0931273 0.0801603 0.0710982 0.0643502 0.059445 0.0558323 0.052845 
0.0493386 0.0446148 0.0399221 0.033955 0.0214554 0.0553134 0.34082 0.340924 0.330177 
0.316452 0.312005 0.3074 0.301829 0.297625 0.294668 0.292152 0.292117 0.285071 
0.269249 0.246351 0.208256 0.161198 0.128966 0.107174 0.0924915 0.0821108 0.0744573 
0.0688139 0.0643927 0.0601796 0.0550843 0.0489434 0.0427868 0.0361479 0.02808 0.0449518 
0.337078 0.339663 0.334867 0.320886 0.312965 0.309222 0.30362 0.296387 0.290831 
0.286304 0.283484 0.276597 0.263335 0.242938 0.211258 0.172754 0.142747 0.121554 
0.106357 0.0948889 0.0861985 0.0795677 0.0742029 0.0685994 0.0618144 0.0545651 0.0476304 
0.0412419 0.0360364 0.0450572 0.331987 0.335647 0.337587 0.329111 0.317878 0.310951 
0.304436 0.295002 0.286898 0.279956 0.274341 0.266188 0.254449 0.237167 0.211512 
0.181129 0.154133 0.133661 0.118595 0.106694 0.0972278 0.0898077 0.083575 0.0767962 
0.0686203 0.0605036 0.053333 0.0474384 0.043431 0.0474936 0.32559 0.329757 0.334538 
0.33449 0.324373 0.312787 0.302732 0.292734 0.282951 0.27379 0.265951 0.256037 
0.244617 0.229745 0.209367 0.184983 0.16262 0.144027 0.129404 0.117619 0.107833 
0.100048 0.0928165 0.0849786 0.0758098 0.0669014 0.0597883 0.054189 0.0505282 0.0509512 
0.318837 0.323468 0.328504 0.332631 0.329303 0.315722 0.302559 0.2914 0.279874 
0.269707 0.259828 0.249129 0.237517 0.223693 0.206297 0.186528 0.16897 0.153625 
0.140542 0.128875 0.119123 0.111131 0.102841 0.0934164 0.0833132 0.0740059 0.0667932 
0.0613461 0.0576571 0.0562358 0.313709 0.318146 0.322692 0.326735 0.329873 0.321184 
0.306882 0.294214 0.28064 0.269591 0.258631 0.24835 0.236475 0.22339 0.207134 
0.190343 0.175923 0.163644 0.152269 0.141138 0.131746 0.122845 0.113082 0.1018 
0.0908267 0.0814401 0.0740871 0.0687047 0.0649344 0.0629204 0.309664 0.313265 0.316848 
0.320619 0.323817 0.324609 0.314287 0.301785 0.288557 0.2761 0.264906 0.2542 
0.242456 0.23018 0.215307 0.200105 0.186551 0.175544 0.1642 0.154199 0.144637 
0.133732 0.121976 0.109426 0.0980973 0.088963 0.081689 0.0763829 0.0725805 0.0705204 
0.303836 0.307384 0.310533 0.313164 0.315397 0.318919 0.317992 0.310999 0.300821 
0.289241 0.276944 0.264543 0.252501 0.239873 0.226676 0.212652 0.198834 0.186711 
0.175555 0.165451 0.154399 0.141927 0.128353 0.115691 0.104948 0.0964071 0.0895294 
0.0844216 0.0806952 0.0786659 0.296345 0.300073 0.302991 0.305208 0.306684 0.308508 
0.311891 0.311673 0.30798 0.300782 0.290026 0.27651 0.262285 0.248893 0.235578 
0.221616 0.208364 0.19607 0.184678 0.173069 0.160506 0.146838 0.13316 0.121382 
0.111495 0.103542 0.0972437 0.0923943 0.0888543 0.0868568 0.289671 0.293264 0.295604 
0.297754 0.299027 0.299775 0.301397 0.302906 0.303157 0.300492 0.295321 0.285083 
0.271209 0.25753 0.243049 0.229016 0.216555 0.204688 0.192279 0.178831 0.165109 
0.150833 0.138478 0.127759 0.118539 0.110836 0.104897 0.100231 0.0969486 0.0950269 
0.287695 0.29075 0.292796 0.294484 0.295826 0.296451 0.296993 0.297564 0.296906 
0.294679 0.291681 0.285943 0.27782 0.265433 0.252466 0.239787 0.226754 0.213565 
0.200073 0.185607 0.170742 0.1577 0.14642 0.1364 0.127739 0.120182 0.114163 
0.109561 0.106325 0.10453 0.290759 0.293161 0.295305 0.297141 0.298397 0.299227 
0.299443 0.299108 0.297916 0.295238 0.290638 0.285767 0.279025 0.270798 0.260919 
0.249189 0.237546 0.224008 0.209178 0.194718 0.181219 0.169063 0.158122 0.148499 
0.139894 0.13255 0.126392 0.121645 0.118082 0.116481 0.291652 0.29366 0.296008 
0.297928 0.299271 0.300042 0.300044 0.299154 0.297341 0.294364 0.289887 0.284368 
0.277853 0.270428 0.261659 0.251693 0.240741 0.22868 0.215919 0.203277 0.191216 
0.179888 0.169429 0.159982 0.151617 0.144432 0.1384 0.133538 0.129911 0.12835 
0.2867 0.288795 0.291019 0.292746 0.293873 0.294342 0.294041 0.292837 0.290685 
0.287614 0.283489 0.278166 0.271953 0.264773 0.256628 0.247768 0.237887 0.227431 
0.216775 0.206053 0.195503 0.185408 0.175975 0.167322 0.159623 0.152937 0.147292 
0.142673 0.139224 0.137586 0.279777 0.282246 0.284297 0.285778 0.286627 0.286803 
0.286248 0.284893 0.282698 0.279651 0.275704 0.270822 0.265104 0.258556 0.25123 
0.243241 0.234587 0.225486 0.216178 0.206835 0.197651 0.18883 0.180532 0.172879 
0.165985 0.159925 0.15475 0.150485 0.147237 0.145411 0.273315 0.276 0.27797 
0.279299 0.27998 0.279996 0.279317 0.277909 0.27575 0.272826 0.269124 0.264649 
0.259446 0.253551 0.247017 0.239921 0.23234 0.224413 0.216304 0.208169 0.200168 
0.192451 0.185148 0.178368 0.172202 0.166722 0.161986 0.158033 0.154941 0.152971 
0.267249 0.269955 0.271881 0.273129 0.273728 0.273675 0.272964 0.271583 0.269525 
0.26679 0.263381 0.259316 0.25463 0.249364 0.243573 0.237325 0.230701 0.223807 
0.216768 0.209706 0.202746 0.196006 0.189592 0.183595 0.178093 0.173151 0.168824 
0.16515 0.162197 0.160168 0.261498 0.264166 0.266059 0.267272 0.267845 0.267789 
0.267113 0.26582 0.263917 0.261414 0.258327 0.254677 0.250501 0.245839 0.240744 
0.235278 0.229512 0.223533 0.217436 0.211319 0.205277 0.199405 0.193785 0.188494 
0.183596 0.179147 0.175197 0.171779 0.168956 0.1669 0.25609 0.258709 0.26058 
0.261787 0.262374 0.262362 0.261768 0.260609 0.258898 0.256655 0.253901 0.250665 
0.246982 0.242891 0.238441 0.233688 0.228693 0.223525 0.218259 0.212972 0.20774 
0.202633 0.19772 0.19306 0.188706 0.184704 0.181096 0.177912 0.17521 0.173133 
0.251053 0.253625 0.255484 0.256705 0.257335 0.257399 0.256921 0.255923 0.254427 
0.252457 0.250041 0.247208 0.243993 0.240435 0.236578 0.23247 0.228163 0.223714 
0.219181 0.214625 0.210103 0.205672 0.201383 0.197283 0.193414 0.189813 0.186514 
0.183542 0.180949 0.178851 0.246408 0.248938 0.250794 0.252044 0.252736 0.252896 
0.252553 0.251733 0.250463 0.248771 0.246684 0.244237 0.241461 0.238395 0.235078 
0.23155 0.227857 0.224043 0.220155 0.21624 0.212341 0.208503 0.204763 0.201157 
0.197718 0.194473 0.19145 0.188667 0.18617 0.184052 0.242169 0.244662 0.246522 
0.247812 0.248576 0.248844 0.248646 0.248011 0.246967 0.245546 0.243776 0.241691 
0.239322 0.236705 0.233875 0.230866 0.227717 0.224463 0.221141 0.217787 0.214434 
0.211113 0.207854 0.204683 0.201621 0.19869 0.19591 0.193295 0.190881 0.188744 
0.238342 0.240802 0.242672 0.244005 0.244847 0.245227 0.245176 0.244724 0.243901 
0.242738 0.241265 0.239515 0.237519 0.235308 0.232913 0.230366 0.227696 0.224934 
0.222107 0.219242 0.216364 0.213495 0.210655 0.207862 0.205131 0.202475 0.199908 
0.197439 0.195098 0.192942 0.234924 0.237355 0.239236 0.240616 0.241536 0.242027 
0.242118 0.241841 0.241226 0.240304 0.239105 0.237661 0.236001 0.234153 0.232145 
0.230005 0.227757 0.225424 0.223028 0.220589 0.218123 0.215646 0.213169 0.210705 
0.20826 0.205844 0.203462 0.20112 0.198841 0.196668 0.231904 0.234309 0.236203 
0.237628 0.238624 0.239219 0.239444 0.23933 0.238906 0.238205 0.237254 0.236085 
0.234724 0.233198 0.231531 0.229747 0.227866 0.225907 0.223885 0.221813 0.219704 
0.217565 0.215403 0.213223 0.211027 0.208817 0.206595 0.204364 0.202138 0.199949 
0.229265 0.231648 0.233554 0.235022 0.236087 0.236778 0.237126 0.237159 0.236908 
0.236403 0.235674 0.234747 0.23365 0.232406 0.231037 0.229563 0.228001 0.226364 
0.224664 0.22291 0.221107 0.21926 0.217368 0.215433 0.21345 0.211419 0.209336 
0.207199 0.205019 0.202816 0.226988 0.229351 0.231268 0.232773 0.233901 0.234677 
0.235133 0.235296 0.235198 0.234866 0.23433 0.233615 0.232747 0.231747 0.230636 
0.229429 0.22814 0.22678 0.225357 0.223874 0.222335 0.220737 0.219078 0.217353 
0.215554 0.213677 0.211713 0.209658 0.207516 0.205302 0.225046 0.227392 0.229318 
0.230856 0.232037 0.232887 0.233436 0.233711 0.233744 0.233561 0.233191 0.232658 
0.231987 0.231196 0.230304 0.229325 0.22827 0.227147 0.225959 0.224709 0.223394 
0.22201 0.22055 0.219004 0.217364 0.215618 0.213758 0.211773 0.209665 0.207441 
0.223414 0.225744 0.227677 0.229242 0.230466 0.231378 0.232004 0.232374 0.232516 
0.232459 0.232229 0.23185 0.231344 0.23073 0.230024 0.229238 0.228381 0.227458 
0.226471 0.225418 0.224294 0.223092 0.221802 0.220411 0.218906 0.217274 0.215502 
0.213579 0.2115 0.209268 0.222064 0.224379 0.226317 0.227902 0.229161 0.230121 
0.23081 0.231256 0.231488 0.231533 0.231418 0.231166 0.230798 0.230332 0.229781 
0.229157 0.228466 0.227712 0.226893 0.226007 0.225046 0.223999 0.222854 0.221596 
0.220208 0.218675 0.21698 0.21511 0.213057 0.21082 0.220966 0.223269 0.225208 
0.226807 0.228091 0.229087 0.229824 0.230329 0.230631 0.230759 0.230736 0.230587 
0.230332 0.229986 0.229564 0.229073 0.228521 0.227907 0.227231 0.226485 0.225662 
0.224748 0.223727 0.222583 0.221297 0.21985 0.218223 0.2164 0.214371 0.21213 
0.220094 0.222385 0.224322 0.225928 0.227229 0.22825 0.22902 0.229568 0.229923 
0.230113 0.230162 0.230094 0.229928 0.22968 0.229362 0.228981 0.228543 0.228046 
0.227489 0.226862 0.226156 0.225355 0.224442 0.223397 0.2222 0.220828 0.219262 
0.217481 0.215474 0.213232 0.21942 0.2217 0.223633 0.22524 0.226547 0.227582 
0.228372 0.228949 0.22934 0.229574 0.229677 0.229671 0.229575 0.229403 0.229168 
0.228876 0.228531 0.228132 0.227674 0.227147 0.226541 0.225837 0.225018 0.22406 
0.222942 0.221639 0.220127 0.218386 0.2164 0.214157 0.21892 0.221189 0.223114 
0.224717 0.226022 0.22706 0.227858 0.228449 0.228861 0.229125 0.229265 0.229303 
0.229259 0.229146 0.228977 0.228756 0.228487 0.228167 0.227792 0.227351 0.22683 
0.226211 0.225474 0.224595 0.223548 0.222307 0.220847 0.219143 0.217178 0.214937 
0.218571 0.220829 0.222744 0.224335 0.225631 0.226661 0.227455 0.228048 0.228469 
0.228747 0.228909 0.228977 0.22897 0.228902 0.228782 0.228618 0.22841 0.228156 
0.22785 0.227481 0.227035 0.226491 0.225828 0.22502 0.22404 0.222858 0.221447 
0.21978 0.217836 0.2156 0.218355 0.220601 0.222501 0.224075 0.225353 0.226365 
0.227145 0.227727 0.228144 0.228425 0.228597 0.228683 0.2287 0.228663 0.228581 
0.22846 0.228301 0.228102 0.227854 0.227548 0.227166 0.22669 0.226096 0.225355 
0.224438 0.223314 0.221952 0.220322 0.218401 0.21617 0.218254 0.220488 0.222369 
0.223919 0.22517 0.226155 0.22691 0.227471 0.227872 0.228145 0.228316 0.228408 
0.228439 0.228423 0.228369 0.228281 0.228162 0.228007 0.227809 0.227557 0.227235 
0.226821 0.226291 0.225615 0.224761 0.223695 0.222383 0.220792 0.218896 0.216674 
0.218256 0.220476 0.222333 0.223852 0.225067 0.226015 0.226734 0.227264 0.22764 
0.227894 0.228055 0.228145 0.228181 0.228177 0.228142 0.22808 0.227992 0.227874 
0.227719 0.227516 0.227248 0.226893 0.226425 0.225814 0.225024 0.224019 0.22276 
0.221212 0.219344 0.217132 0.218351 0.220555 0.222383 0.223862 0.225031 0.22593 
0.226603 0.227091 0.227433 0.227661 0.227804 0.227884 0.227919 0.227921 0.227898 
0.227855 0.227791 0.227705 0.227588 0.227428 0.22721 0.226912 0.226507 0.225962 
0.22524 0.2243 0.223101 0.221601 0.219766 0.217568 0.218534 0.220719 0.22251 
0.22394 0.225051 0.22589 0.226505 0.226942 0.22724 0.227435 0.227553 0.227618 
0.227646 0.227649 0.227634 0.227604 0.227561 0.227501 0.227417 0.227297 0.227128 
0.226885 0.226543 0.226068 0.225419 0.224552 0.22342 0.221977 0.220181 0.218 
0.218806 0.220967 0.222711 0.224077 0.225116 0.225881 0.226427 0.226803 0.22705 
0.227205 0.227295 0.227341 0.227359 0.227358 0.227347 0.227327 0.2273 0.227262 
0.227207 0.227125 0.227001 0.226815 0.226538 0.226137 0.225569 0.224785 0.223733 
0.222357 0.22061 0.218451 0.219171 0.221301 0.222985 0.22427 0.225218 0.225894 
0.226357 0.226661 0.226851 0.226962 0.227021 0.227046 0.227051 0.227046 0.227036 
0.227023 0.227008 0.226989 0.22696 0.226912 0.226832 0.226701 0.226492 0.226171 
0.225693 0.225006 0.224049 0.222757 0.221072 0.218944 0.219644 0.221731 0.223333 
0.224513 0.225347 0.225913 0.22628 0.226505 0.226633 0.226698 0.226724 0.226728 
0.226721 0.22671 0.2267 0.226692 0.226687 0.226683 0.226675 0.226657 0.226618 
0.22654 0.226401 0.226166 0.22579 0.225217 0.224377 0.223194 0.221591 0.219505 
0.220247 0.222273 0.22376 0.224797 0.225486 0.225921 0.226179 0.226318 0.226383 
0.226404 0.226401 0.226386 0.226369 0.226354 0.226343 0.226339 0.226341 0.226347 
0.226356 0.226363 0.226358 0.226331 0.226259 0.226113 0.225851 0.225412 0.224719 
0.22368 0.222193 0.220167 0.221032 0.222958 0.22427 0.225108 0.225611 0.225892 
0.22603 0.226084 0.226091 0.226074 0.226048 0.226021 0.225997 0.225979 0.225969 
0.225967 0.225973 0.225986 0.226005 0.226029 0.226051 0.226065 0.226054 0.225997 
0.225856 0.225574 0.225069 0.224229 0.222918 0.220992 0.222105 0.223832 0.224845 
0.225392 0.22566 0.225768 0.225791 0.225773 0.225738 0.225699 0.225663 0.225633 
0.22561 0.225594 0.225586 0.225585 0.225591 0.225605 0.225627 0.225655 0.22569 
0.225728 0.225762 0.225779 0.225754 0.225645 0.225377 0.22483 0.223816 0.22209 
0.223442 0.224695 0.225258 0.225479 0.225542 0.225536 0.225503 0.225464 0.225427 
0.225396 0.225371 0.225352 0.225339 0.22533 0.225326 0.225326 0.22533 0.225338 
0.225351 0.225369 0.225394 0.225425 0.225461 0.2255 0.225533 0.225539 0.225476 
0.225254 0.224691 0.223439 0.334829 0.341386 0.346973 0.351755 0.356136 0.360981 
0.365973 0.367111 0.35731 0.339691 0.315922 0.280843 0.234702 0.170392 0.0855003 
227.932 190.88 162.65 142.843 129.815 121.101 115.305 111.209 107.705 
103.837 98.7816 91.2217 79.2631 64.3452 36.0733 0.334945 0.338255 0.343217 
0.348311 0.351951 0.353762 0.358043 0.360042 0.355697 0.341824 0.317514 0.284136 
0.239915 0.175926 0.0995813 233.511 188.777 157.999 137.915 125.613 118.324 
114.025 111.277 108.893 105.834 100.98 92.7255 79.7027 62.8031 31.8382 
0.337036 0.335102 0.339874 0.344355 0.346691 0.345767 0.348691 0.351694 0.350834 
0.341466 0.318017 0.287299 0.242618 0.171488 0.0951483 235.424 186.453 154.312 
134.156 122.421 116.237 113.276 111.864 110.674 108.487 103.884 94.9756 
80.4574 61.2801 31.1927 0.337961 0.332596 0.33473 0.340006 0.340169 0.338118 
0.339683 0.343709 0.345279 0.338054 0.317478 0.289589 0.245467 0.170968 0.0817448 
233.11 184.276 152.748 132.848 121.358 115.665 113.459 112.959 112.684 
111.197 106.822 97.4793 81.7676 60.6667 31.3725 0.336137 0.329578 0.329342 
0.334119 0.333134 0.33162 0.332142 0.337623 0.340659 0.334087 0.315885 0.291062 
0.249689 0.180985 0.0809319 233.82 184.353 154.162 134.427 122.781 117.011 
114.988 114.95 115.286 114.32 110.205 100.834 84.7325 62.6482 31.7904 
0.334426 0.326885 0.325214 0.328482 0.326304 0.325678 0.326677 0.3316 0.336912 
0.330255 0.313949 0.29174 0.254697 0.196963 0.081525 239.259 188.658 159.669 
139.453 127.042 120.582 118.158 118.102 118.699 118.008 114.099 105.097 
89.5713 67.5299 33.0851 0.336183 0.327281 0.322873 0.324442 0.321112 0.320009 
0.321365 0.324891 0.331006 0.325857 0.312021 0.292054 0.259984 0.215313 0.0929054 
250.144 198.904 169.803 147.861 133.886 126.082 122.672 122.105 122.585 
121.836 117.9 109.448 95.1294 73.8892 37.2255 0.339806 0.330727 0.323148 
0.321556 0.317527 0.314509 0.31489 0.317055 0.321224 0.319341 0.309258 0.292737 
0.265279 0.231051 0.135286 274.959 213.347 180.931 155.931 139.891 130.53 
126.036 124.917 125.285 124.443 120.372 112.521 99.1928 79.7558 47.5572 
0.113664 0.114204 0.114274 0.113883 0.113044 0.111772 0.110083 0.107994 0.105529 
0.102711 0.0995679 0.0961295 0.0924282 0.0884989 0.084379 0.0801083 0.0757292 0.0712866 
0.066828 0.0624036 0.0580663 0.053872 0.0498793 0.0461489 0.0427434 0.0397259 0.0371576 
0.0350961 0.0335951 0.0326951 0.116481 0.116992 0.117017 0.116561 0.115635 0.114253 
0.112431 0.11019 0.107553 0.104546 0.101198 0.0975404 0.0936084 0.0894386 0.0850706 
0.0805461 0.0759096 0.0712079 0.0664907 0.0618102 0.0572215 0.0527827 0.0485552 0.0446028 
0.040992 0.0377903 0.0350646 0.0328781 0.0312871 0.0303357 0.118376 0.118881 0.118882 
0.118385 0.117402 0.115946 0.114036 0.111692 0.10894 0.105805 0.102319 0.0985151 
0.0944283 0.0900974 0.085563 0.0808684 0.0760592 0.0711836 0.0662921 0.0614382 0.0566783 
0.052072 0.0476822 0.0435751 0.0398198 0.0364875 0.0336494 0.0313738 0.0297219 0.0287428 
0.120796 0.121296 0.121269 0.120721 0.119665 0.118115 0.116091 0.113615 0.110713 
0.107413 0.103748 0.0997539 0.0954669 0.0909279 0.0861796 0.0812669 0.0762374 0.0711409 
0.0660296 0.0609587 0.0559862 0.0511734 0.0465853 0.0422904 0.0383611 0.0348725 0.0319009 
0.0295203 0.0277986 0.0267911 0.123267 0.123761 0.123705 0.123104 0.121972 0.120324 
0.118182 0.115569 0.112512 0.109043 0.105195 0.101006 0.0965153 0.0917652 0.0868005 
0.0816683 0.076418 0.0711012 0.0657718 0.0604865 0.0553048 0.0502897 0.0455076 0.0410295 
0.0369302 0.0332885 0.0301854 0.0277009 0.0259093 0.024873 0.125929 0.126418 0.126329 
0.12567 0.124455 0.122702 0.120431 0.117669 0.114444 0.110791 0.106745 0.102345 
0.0976341 0.0926569 0.0874603 0.0820938 0.0766088 0.0710589 0.0655001 0.0599906 0.0545914 
0.049367 0.0443853 0.0397192 0.0354458 0.0316472 0.0284092 0.0258174 0.0239535 0.0228874 
0.12874 0.129222 0.129098 0.128378 0.127074 0.125207 0.122798 0.119877 0.116474 
0.112624 0.108368 0.103745 0.0988023 0.0935861 0.0881466 0.0825355 0.0768068 0.0710164 
0.065222 0.0594836 0.0538639 0.0484284 0.0432467 0.0383927 0.0339456 0.0299905 0.0266171 
0.023917 0.0219792 0.0208824 0.131719 0.132194 0.132033 0.131246 0.129847 0.127857 
0.125301 0.12221 0.118615 0.114557 0.110076 0.105217 0.100027 0.0945588 0.0888633 
0.0829958 0.0770128 0.0709726 0.0649352 0.0589624 0.0531184 0.0474699 0.0420874 0.037046 
0.0324264 0.0283155 0.0248069 0.0219979 0.0199851 0.0188566 0.134873 0.13534 0.135139 
0.13428 0.132779 0.130658 0.127944 0.12467 0.120872 0.11659 0.11187 0.10676 
0.10131 0.0955748 0.0896102 0.0834741 0.0772261 0.0709271 0.0646395 0.0584272 0.0523558 
0.0464934 0.0409111 0.0356845 0.0308952 0.0266315 0.0229899 0.0200726 0.0179843 0.0168234 
0.138215 0.138674 0.13843 0.137494 0.135882 0.133621 0.130738 0.127269 0.123252 
0.118733 0.113758 0.108381 0.102654 0.0966374 0.0903891 0.0839711 0.0774463 0.0708786 
0.0643331 0.0578759 0.0515744 0.0454975 0.0397171 0.034309 0.0293547 0.0249432 0.0211727 
0.0181495 0.0159861 0.0147924 0.141762 0.142212 0.141921 0.140901 0.139172 0.136759 
0.133695 0.130016 0.125766 0.120993 0.115747 0.110085 0.104065 0.0977499 0.0912023 
0.084488 0.0776735 0.0708264 0.0640146 0.0573068 0.0507721 0.0444808 0.0385052 0.0329207 
0.0278083 0.0232563 0.0193635 0.0162391 0.0140024 0.0127758 0.145531 0.14597 0.145629 
0.144519 0.142663 0.140088 0.136828 0.132926 0.128426 0.123381 0.117846 0.111881 
0.105549 0.0989172 0.0920531 0.0850266 0.0779084 0.0707699 0.0636825 0.0567177 0.0499467 
0.0434413 0.0372739 0.0315198 0.0262582 0.0215761 0.0175707 0.0143526 0.0120464 0.0107878 
0.149542 0.14997 0.149574 0.148367 0.146374 0.143624 0.140156 0.136013 0.131246 
0.12591 0.120065 0.113777 0.107114 0.100146 0.0929465 0.0855904 0.0781531 0.07071 
0.0633365 0.0561073 0.0490964 0.0423769 0.036022 0.0301062 0.0247069 0.0199079 0.0158038 
0.0125033 0.0101342 0.00884538 0.153816 0.154231 0.153776 0.152465 0.150324 0.147386 
0.143694 0.139293 0.13424 0.128593 0.122418 0.115786 0.108769 0.101444 0.0938895 
0.0861851 0.0784116 0.0706493 0.0629779 0.055476 0.0482204 0.0412865 0.0347485 0.02868 
0.0231563 0.0182574 0.0140727 0.0107063 0.00828513 0.00696962 0.158373 0.158774 0.158255 
0.156831 0.154532 0.151394 0.14746 0.142785 0.137425 0.131446 0.12492 0.117921 
0.110528 0.102823 0.094892 0.0868193 0.0786913 0.0705938 0.0626114 0.0548269 0.0473209 
0.0401715 0.033454 0.0272423 0.0216092 0.0166303 0.0123883 0.00897904 0.00652269 0.00518717 
0.163234 0.163619 0.163031 0.161486 0.159017 0.155664 0.151474 0.146504 0.140818 
0.134486 0.127585 0.120196 0.112404 0.104298 0.0959674 0.0875055 0.079004 0.0705544 