# vtk DataFile Version 5.1
vtk output
ASCII
DATASET UNSTRUCTURED_GRID
POINTS 9610 double
0.1016 1.5 0.28099998832 0.1016 1.45 0.25999999046 0.1016 1.4 0.23600000143 
0.1016 1.35 0.21099999547 0.1016 1.3 0.20100000501 0.1016 1.25 0.16500000656 
0.1016 1.2 0.14900000393 0.1016 1.15 0.13099999726 0.1016 1.1 0.12700000405 
0.1016 1.05 0.125 0.1016 1 0.093000002205 0.1016 0.95 0.067000001669 
0.1016 0.9 0.045000001788 0.1016 0.85 0.034000001848 0.1016 0.8 0.028000000864 
0.1016 0.75 0.025000000373 0.1016 0.7 0.044058129191 0.1016 0.65 0.070433147252 
0.1016 0.6 0.09648257494 0.1016 0.55 0.12507975101 0.1016 0.5 0.15407636762 
0.1016 0.45 0.18182496727 0.1016 0.4 0.20970889926 0.1016 0.35 0.23818907142 
0.1016 0.3 0.26254275441 0.1016 0.25 0.27623543143 0.1016 0.2 0.2801887095 
0.1016 0.15 0.27855038643 0.1016 0.1 0.26756572723 0.1016 0.05 0.22187276185 
0.1016 0 0.12328904867 5.08 1.5 0.28700000048 5.08 1.45 0.28700000048 
5.08 1.4 0.28700000048 5.08 1.35 0.28700000048 5.08 1.3 0.28700000048 
5.08 1.25 0.28700000048 5.08 1.2 0.28700000048 5.08 1.15 0.28700000048 
5.08 1.1 0.28700000048 5.08 1.05 0.28700000048 5.08 1 0.28700000048 
5.08 0.95 0.28700000048 5.08 0.9 0.28700000048 5.08 0.85 0.28700000048 
5.08 0.8 0.28700000048 5.08 0.75 0.28700000048 5.08 0.7 0.28700000048 
5.08 0.65 0.28700000048 5.08 0.6 0.28700000048 5.08 0.55 0.28700000048 
5.08 0.5 0.28700000048 5.08 0.45 0.28700000048 5.08 0.4 0.28700000048 
5.08 0.35 0.28700000048 5.08 0.3 0.28700000048 5.08 0.25 0.28700000048 
5.08 0.2 0.28700000048 5.08 0.15 0.28700000048 5.08 0.1 0.28700000048 
5.08 0.05 0.28700000048 5.08 0 0.28700000048 0.151384 1.5 0.27905794978 
0.151384 1.45 0.27669888735 0.151384 1.4 0.25560316443 0.151384 1.35 0.22571110725 
0.151384 1.3 0.21274381876 0.151384 1.25 0.18067885935 0.151384 1.2 0.1606926769 
0.151384 1.15 0.1378248632 0.151384 1.1 0.12891018391 0.151384 1.05 0.11516637355 
0.151384 1 0.10770396143 0.151384 0.95 0.091493852437 0.151384 0.9 0.070414654911 
0.151384 0.85 0.046636749059 0.151384 0.8 0.037690129131 0.151384 0.75 0.036647226661 
0.151384 0.7 0.048806179315 0.151384 0.65 0.070897623897 0.151384 0.6 0.091007038951 
0.151384 0.55 0.11902274936 0.151384 0.5 0.14706838131 0.151384 0.45 0.17507201433 
0.151384 0.4 0.20406249166 0.151384 0.35 0.23504410684 0.151384 0.3 0.26299759746 
0.151384 0.25 0.27700138092 0.151384 0.2 0.2790581286 0.151384 0.15 0.2829554677 
0.151384 0.1 0.28282281756 0.151384 0.05 0.28166013956 0.151384 0 0.13834284246 
0.201168 1.5 0.27901622653 0.201168 1.45 0.27900227904 0.201168 1.4 0.27237004042 
0.201168 1.35 0.24421975017 0.201168 1.3 0.21959254146 0.201168 1.25 0.20399458706 
0.201168 1.2 0.18682658672 0.201168 1.15 0.15806974471 0.201168 1.1 0.14516024292 
0.201168 1.05 0.12929178774 0.201168 1 0.12046296895 0.201168 0.95 0.11127010733 
0.201168 0.9 0.097916007042 0.201168 0.85 0.080528222024 0.201168 0.8 0.066663756967 
0.201168 0.75 0.068510696292 0.201168 0.7 0.068965569139 0.201168 0.65 0.083316534758 
0.201168 0.6 0.10815990716 0.201168 0.55 0.13133266568 0.201168 0.5 0.15357342362 
0.201168 0.45 0.18159753084 0.201168 0.4 0.21064251661 0.201168 0.35 0.23685996234 
0.201168 0.3 0.26009628177 0.201168 0.25 0.27318203449 0.201168 0.2 0.2742408216 
0.201168 0.15 0.27727159858 0.201168 0.1 0.27844065428 0.201168 0.05 0.28035160899 
0.201168 0 0.2755408287 0.250952 1.5 0.27809643745 0.250952 1.45 0.27717784047 
0.250952 1.4 0.27688449621 0.250952 1.35 0.26672539115 0.250952 1.3 0.24719494581 
0.250952 1.25 0.22945722938 0.250952 1.2 0.20594792068 0.250952 1.15 0.18635076284 
0.250952 1.1 0.16481861472 0.250952 1.05 0.14409451187 0.250952 1 0.13411143422 
0.250952 0.95 0.12611028552 0.250952 0.9 0.11605659127 0.250952 0.85 0.10941473395 
0.250952 0.8 0.1010549441 0.250952 0.75 0.1048419252 0.250952 0.7 0.1113197878 
0.250952 0.65 0.11203655601 0.250952 0.6 0.1285353899 0.250952 0.55 0.1534589678 
0.250952 0.5 0.17455288768 0.250952 0.45 0.19785009325 0.250952 0.4 0.21935805678 
0.250952 0.35 0.2463119179 0.250952 0.3 0.26461085677 0.250952 0.25 0.26729187369 
0.250952 0.2 0.27111881971 0.250952 0.15 0.27221339941 0.250952 0.1 0.27409687638 
0.250952 0.05 0.27555412054 0.250952 0 0.28397846222 0.300736 1.5 0.27428755164 
0.300736 1.45 0.27514898777 0.300736 1.4 0.2752109766 0.300736 1.35 0.2710172236 
0.300736 1.3 0.26861137152 0.300736 1.25 0.24943968654 0.300736 1.2 0.22447507083 
0.300736 1.15 0.20547521114 0.300736 1.1 0.18157067895 0.300736 1.05 0.16697093844 
0.300736 1 0.15241217613 0.300736 0.95 0.14436924458 0.300736 0.9 0.13074612617 
0.300736 0.85 0.12932994962 0.300736 0.8 0.12339722365 0.300736 0.75 0.13025963306 
0.300736 0.7 0.13641735911 0.300736 0.65 0.14637438953 0.300736 0.6 0.16771344841 
0.300736 0.55 0.18257932365 0.300736 0.5 0.19989658892 0.300736 0.45 0.21917027235 
0.300736 0.4 0.24014051259 0.300736 0.35 0.25802481174 0.300736 0.3 0.26869031787 
0.300736 0.25 0.26973238587 0.300736 0.2 0.27094963193 0.300736 0.15 0.27290317416 
0.300736 0.1 0.27394413948 0.300736 0.05 0.27307900786 0.300736 0 0.27634099126 
0.35052 1.5 0.27574059367 0.35052 1.45 0.27403780818 0.35052 1.4 0.27402418852 
0.35052 1.35 0.27374240756 0.35052 1.3 0.27203935385 0.35052 1.25 0.27097347379 
0.35052 1.2 0.24669718742 0.35052 1.15 0.22752198577 0.35052 1.1 0.2098877728 
0.35052 1.05 0.18959486485 0.35052 1 0.1754013449 0.35052 0.95 0.16629499197 
0.35052 0.9 0.15774668753 0.35052 0.85 0.15852059424 0.35052 0.8 0.15080136061 
0.35052 0.75 0.15135253966 0.35052 0.7 0.15390940011 0.35052 0.65 0.17415291071 
0.35052 0.6 0.19178444147 0.35052 0.55 0.20937302709 0.35052 0.5 0.22627454996 
0.35052 0.45 0.24168753624 0.35052 0.4 0.2601364851 0.35052 0.35 0.26815363765 
0.35052 0.3 0.26995968819 0.35052 0.25 0.27094757557 0.35052 0.2 0.27101308107 
0.35052 0.15 0.27212134004 0.35052 0.1 0.27309086919 0.35052 0.05 0.27300399542 
0.35052 0 0.27411714196 0.400304 1.5 0.27605429292 0.400304 1.45 0.27491173148 
0.400304 1.4 0.27490511537 0.400304 1.35 0.2731539309 0.400304 1.3 0.27300411463 
0.400304 1.25 0.2724712193 0.400304 1.2 0.26878193021 0.400304 1.15 0.25218883157 
0.400304 1.1 0.23666471243 0.400304 1.05 0.21901516616 0.400304 1 0.21025703847 
0.400304 0.95 0.20410560071 0.400304 0.9 0.19811345637 0.400304 0.85 0.19108389318 
0.400304 0.8 0.19096513093 0.400304 0.75 0.19252809882 0.400304 0.7 0.19284175336 
0.400304 0.65 0.20521552861 0.400304 0.6 0.22154374421 0.400304 0.55 0.23346307874 
0.400304 0.5 0.24957509339 0.400304 0.45 0.26558357477 0.400304 0.4 0.26860481501 
0.400304 0.35 0.27014628053 0.400304 0.3 0.27011552453 0.400304 0.25 0.27104184031 
0.400304 0.2 0.27187478542 0.400304 0.15 0.27197834849 0.400304 0.1 0.27382349968 
0.400304 0.05 0.27386802435 0.400304 0 0.27482628822 0.450088 1.5 0.27515858412 
0.450088 1.45 0.27418369055 0.450088 1.4 0.27331107855 0.450088 1.35 0.27300551534 
0.450088 1.3 0.27209055424 0.450088 1.25 0.27030715346 0.450088 1.2 0.27047652006 
0.450088 1.15 0.26762294769 0.450088 1.1 0.26458019018 0.450088 1.05 0.25451385975 
0.450088 1 0.24804627895 0.450088 0.95 0.23501609266 0.450088 0.9 0.2237021327 
0.450088 0.85 0.22185818851 0.450088 0.8 0.22227066755 0.450088 0.75 0.22188581526 
0.450088 0.7 0.22280931473 0.450088 0.65 0.22574804723 0.450088 0.6 0.23197965324 
0.450088 0.55 0.24386693537 0.450088 0.5 0.26178875566 0.450088 0.45 0.26494929194 
0.450088 0.4 0.26567786932 0.450088 0.35 0.26650029421 0.450088 0.3 0.26735934615 
0.450088 0.25 0.26927897334 0.450088 0.2 0.27202183008 0.450088 0.15 0.27204078436 
0.450088 0.1 0.27486345172 0.450088 0.05 0.27492448688 0.450088 0 0.27587261796 
0.499872 1.5 0.27414944768 0.499872 1.45 0.27313879132 0.499872 1.4 0.27214899659 
0.499872 1.35 0.27218651772 0.499872 1.3 0.27201932669 0.499872 1.25 0.26998788118 
0.499872 1.2 0.2691411376 0.499872 1.15 0.26933151484 0.499872 1.1 0.2686149478 
0.499872 1.05 0.26663300395 0.499872 1 0.2673022449 0.499872 0.95 0.26317375898 
0.499872 0.9 0.25844565034 0.499872 0.85 0.24646627903 0.499872 0.8 0.24376001954 
0.499872 0.75 0.2401868701 0.499872 0.7 0.23686382174 0.499872 0.65 0.24215321243 
0.499872 0.6 0.25313478708 0.499872 0.55 0.26121255755 0.499872 0.5 0.26404681802 
0.499872 0.45 0.26484560966 0.499872 0.4 0.26577168703 0.499872 0.35 0.26679316163 
0.499872 0.3 0.26864859462 0.499872 0.25 0.2690115869 0.499872 0.2 0.27035436034 
0.499872 0.15 0.27210208774 0.499872 0.1 0.27425345778 0.499872 0.05 0.27427840233 
0.499872 0 0.27604335546 0.549656 1.5 0.27456706762 0.549656 1.45 0.27350410819 
0.549656 1.4 0.27250754833 0.549656 1.35 0.27249127626 0.549656 1.3 0.27167934179 
0.549656 1.25 0.27049183846 0.549656 1.2 0.26943814754 0.549656 1.15 0.26936808228 
0.549656 1.1 0.26997902989 0.549656 1.05 0.26997628808 0.549656 1 0.26899018884 
0.549656 0.95 0.27154409885 0.549656 0.9 0.2694785893 0.549656 0.85 0.26510161161 
0.549656 0.8 0.2641993165 0.549656 0.75 0.25846558809 0.549656 0.7 0.26010221243 
0.549656 0.65 0.26220682263 0.549656 0.6 0.26294401288 0.549656 0.55 0.26321282983 
0.549656 0.5 0.26282328367 0.549656 0.45 0.26374971867 0.549656 0.4 0.2648113668 
0.549656 0.35 0.26748609543 0.549656 0.3 0.26869404316 0.549656 0.25 0.26946756244 
0.549656 0.2 0.2696184814 0.549656 0.15 0.27165040374 0.549656 0.1 0.27202031016 
0.549656 0.05 0.2737031877 0.549656 0 0.27576756477 0.59944 1.5 0.28180611134 
0.59944 1.45 0.28140956163 0.59944 1.4 0.28102755547 0.59944 1.35 0.28093528748 
0.59944 1.3 0.28047883511 0.59944 1.25 0.28005582094 0.59944 1.2 0.27968811989 
0.59944 1.15 0.27980130911 0.59944 1.1 0.28039675951 0.59944 1.05 0.28018990159 
0.59944 1 0.27916529775 0.59944 0.95 0.28016269207 0.59944 0.9 0.27987554669 
0.59944 0.85 0.28020054102 0.59944 0.8 0.280518502 0.59944 0.75 0.27860879898 
0.59944 0.7 0.27991515398 0.59944 0.65 0.2797690928 0.59944 0.6 0.27745947242 
0.59944 0.55 0.27609798312 0.59944 0.5 0.27613809705 0.59944 0.45 0.27664643526 
0.59944 0.4 0.2772500813 0.59944 0.35 0.27856889367 0.59944 0.3 0.27913093567 
[...]
CELL_DATA 9270
FIELD FieldData 7
B_Stress_n_p_m2 1 9270 float
0.270522 0.322238 0.318494 0.30716 0.30046 0.290679 0.284435 0.280798 0.278943 
0.281904 0.28244 0.280897 0.273924 0.267016 0.25157 0.18857 0.138964 0.112567 
0.0954606 0.0839201 0.0764199 0.0715461 0.0684476 0.066565 0.0649169 0.0628174 0.0608009 
0.0577985 0.0521377 0.0441558 0.267276 0.324862 0.326951 0.31151 0.30145 0.292258 
0.283652 0.27513 0.268888 0.263889 0.262534 0.257635 0.2483 0.234656 0.214688 
0.17796 0.145883 0.122743 0.105632 0.09329 0.0841774 0.077437 0.0727118 0.0688788 
0.0650177 0.0612633 0.057074 0.0524569 0.0421149 0.0335986 0.262427 0.319669 0.33156 
0.32353 0.308499 0.297045 0.287034 0.27498 0.265253 0.256795 0.250183 0.242384 
0.233072 0.220427 0.202455 0.177448 0.153552 0.135442 0.121532 0.110425 0.101946 
0.0960799 0.0916385 0.0871175 0.0819136 0.0768195 0.0712918 0.0640285 0.0522766 0.0324998 
0.255881 0.312375 0.326651 0.328226 0.31973 0.304256 0.289135 0.276625 0.263605 
0.252476 0.242973 0.233386 0.223348 0.211767 0.197045 0.179288 0.163357 0.148692 
0.136761 0.127101 0.119377 0.113744 0.108145 0.102346 0.0958155 0.0888419 0.0820855 
0.072639 0.0578007 0.0344546 0.25042 0.306334 0.320274 0.323229 0.323537 0.313957 
0.29796 0.283626 0.268417 0.25662 0.245507 0.235851 0.224975 0.214173 0.200837 
0.187063 0.174962 0.164836 0.155589 0.146796 0.139852 0.133032 0.1259 0.117528 
0.109329 0.10165 0.0934462 0.0826532 0.0657197 0.0395393 0.245822 0.300721 0.313764 
0.316783 0.316918 0.317535 0.309116 0.297137 0.284108 0.270991 0.258928 0.24787 
0.237388 0.227126 0.215103 0.202614 0.190859 0.181826 0.172838 0.165579 0.157773 
0.148729 0.139223 0.129316 0.120422 0.11277 0.104105 0.0925197 0.074156 0.045853 
0.239164 0.293608 0.306424 0.308496 0.308478 0.308639 0.309764 0.305571 0.298526 
0.288898 0.277456 0.26489 0.252736 0.240878 0.229706 0.217733 0.206243 0.196109 
0.187339 0.178405 0.168852 0.15856 0.147244 0.137572 0.12938 0.122151 0.113945 
0.102169 0.083078 0.0528086 0.232726 0.286498 0.298676 0.300796 0.300441 0.299654 
0.300217 0.300416 0.299268 0.295234 0.2892 0.278593 0.265508 0.253417 0.240838 
0.228598 0.217885 0.207605 0.197219 0.186372 0.175555 0.163642 0.153491 0.144815 
0.137343 0.130335 0.122624 0.111021 0.0917002 0.0597993 0.230553 0.283996 0.29597 
0.297718 0.297455 0.296567 0.295954 0.295779 0.294619 0.292247 0.289146 0.283606 
0.275895 0.264524 0.252916 0.241549 0.230118 0.218629 0.207114 0.194851 0.182103 
0.171184 0.162047 0.154119 0.147166 0.140253 0.132407 0.121062 0.101361 0.0678057 
0.233227 0.287078 0.299381 0.301269 0.300958 0.300318 0.299413 0.298349 0.296736 
0.294129 0.289853 0.285689 0.279758 0.272399 0.263644 0.253218 0.243033 0.231137 
0.218102 0.20548 0.193793 0.183658 0.17476 0.167143 0.160134 0.153422 0.145451 
0.134057 0.113552 0.0779154 0.234498 0.288657 0.30132 0.303315 0.303124 0.30247 
0.301396 0.299817 0.297675 0.294764 0.290623 0.285722 0.280046 0.273645 0.26598 
0.257315 0.247724 0.237174 0.225983 0.214997 0.204704 0.195236 0.186657 0.179002 
0.172107 0.165517 0.157831 0.146503 0.125754 0.0879726 0.23126 0.285046 0.297566 
0.299428 0.299085 0.298195 0.296874 0.295009 0.292513 0.289439 0.285621 0.280812 
0.275383 0.269114 0.261958 0.254298 0.245575 0.236409 0.227164 0.217924 0.208931 
0.200477 0.192718 0.185653 0.179294 0.173198 0.166118 0.155433 0.135085 0.0958988 
0.22662 0.279905 0.292156 0.293841 0.293269 0.292136 0.290588 0.288578 0.286033 
0.282921 0.279155 0.274672 0.269563 0.263779 0.257313 0.250301 0.242668 0.23467 
0.226534 0.218442 0.210596 0.203186 0.196335 0.190094 0.184416 0.178959 0.172572 
0.162694 0.142905 0.102698 0.222276 0.275193 0.287266 0.28882 0.288102 0.286825 
0.285155 0.283072 0.280514 0.277451 0.273832 0.269624 0.264861 0.259535 0.253671 
0.247346 0.240587 0.233559 0.226427 0.21934 0.212458 0.205929 0.199861 0.194315 
0.189248 0.184382 0.178648 0.169514 0.150264 0.109106 0.218138 0.270731 0.282672 
0.284133 0.283321 0.281963 0.280234 0.278134 0.275615 0.272649 0.269205 0.265269 
0.260857 0.255978 0.250663 0.244973 0.238964 0.232754 0.226467 0.22023 0.21417 
0.208406 0.203032 0.19811 0.193605 0.189288 0.184163 0.175725 0.157011 0.115024 
0.214268 0.266561 0.278401 0.279802 0.27894 0.277547 0.275807 0.273734 0.271287 
0.268449 0.2652 0.261534 0.257463 0.253005 0.248192 0.243077 0.23772 0.232211 
0.226651 0.221144 0.215792 0.210695 0.205933 0.201566 0.197569 0.193749 0.189179 
0.181383 0.163196 0.120496 0.210679 0.262686 0.274445 0.27581 0.274928 0.273535 
0.271818 0.269801 0.267453 0.264762 0.261715 0.258315 0.254571 0.250505 0.246149 
0.241549 0.236762 0.231862 0.226931 0.222054 0.217317 0.212803 0.208581 0.204708 
0.201165 0.197793 0.193723 0.186518 0.168845 0.125537 0.207379 0.259104 0.270792 
0.272139 0.271261 0.269892 0.268222 0.266284 0.26405 0.261516 0.258674 0.25553 
0.252095 0.248392 0.244449 0.240311 0.236027 0.231659 0.227275 0.222947 0.218746 
0.214743 0.210998 0.207564 0.204428 0.201454 0.197833 0.191167 0.173993 0.130175 
0.204363 0.255808 0.267431 0.268771 0.267914 0.266585 0.26498 0.263133 0.261023 
0.258651 0.256011 0.253112 0.249967 0.246596 0.24303 0.239304 0.235465 0.231564 
0.227659 0.223811 0.22008 0.216527 0.213203 0.210159 0.207384 0.204764 0.201542 
0.195368 0.178677 0.134435 0.201623 0.252786 0.264344 0.265686 0.264861 0.263585 
0.262054 0.260307 0.258326 0.256115 0.253671 0.251005 0.248128 0.245064 0.241837 
0.238481 0.235037 0.231548 0.228065 0.224638 0.22132 0.218163 0.215212 0.212513 
0.210059 0.207753 0.204887 0.19916 0.182932 0.138346 0.199149 0.250025 0.261517 
0.262864 0.262078 0.260862 0.259412 0.257769 0.255918 0.253864 0.251608 0.24916 
0.246534 0.243749 0.240829 0.237806 0.234712 0.231589 0.228478 0.225423 0.222469 
0.219662 0.217041 0.214648 0.212479 0.210449 0.207898 0.202578 0.186796 0.141936 
0.196925 0.247509 0.25893 0.260285 0.259543 0.258392 0.257025 0.255487 0.253763 
0.251862 0.249784 0.247541 0.245145 0.242615 0.239973 0.237248 0.234468 0.231669 
0.228887 0.226161 0.223529 0.221031 0.218703 0.216581 0.214664 0.212879 0.210608 
0.205657 0.190301 0.145231 0.194938 0.245222 0.256568 0.25793 0.257234 0.256149 
0.254867 0.253432 0.251832 0.250076 0.248166 0.246113 0.243929 0.241632 0.239242 
0.236784 0.234285 0.231775 0.229285 0.22685 0.224503 0.22228 0.22021 0.21833 
0.216635 0.215066 0.213044 0.208429 0.19348 0.148259 0.193173 0.243148 0.254412 
0.255781 0.255132 0.254112 0.252913 0.251579 0.250098 0.24848 0.246726 0.244849 
0.24286 0.240776 0.238614 0.236397 0.234148 0.231895 0.229666 0.22749 0.225396 
0.223416 0.221576 0.219909 0.218412 0.217033 0.215231 0.210923 0.196364 0.151043 
0.191613 0.241271 0.252446 0.25382 0.253217 0.252262 0.251144 0.249906 0.248538 
0.247049 0.245442 0.243728 0.241917 0.240026 0.23807 0.236069 0.234046 0.232023 
0.230026 0.22808 0.226211 0.224447 0.22281 0.221333 0.220011 0.2188 0.217195 
0.213165 0.198981 0.153606 0.190244 0.239575 0.250655 0.252032 0.251473 0.250581 
0.24954 0.248394 0.247132 0.245764 0.244292 0.242728 0.241081 0.239365 0.237596 
0.235791 0.233969 0.232153 0.230362 0.228621 0.226952 0.22538 0.223925 0.222615 
0.221449 0.220387 0.218955 0.21518 0.201356 0.155969 0.189051 0.238046 0.249024 
0.2504 0.249884 0.249051 0.248085 0.247025 0.245862 0.244607 0.243261 0.241834 
0.240336 0.23878 0.23718 0.235551 0.233911 0.232278 0.230673 0.229114 0.227623 
0.226222 0.224929 0.223768 0.22274 0.221809 0.220533 0.216991 0.203512 0.158152 
0.188022 0.236669 0.247539 0.248912 0.248435 0.247659 0.246762 0.245784 0.244714 
0.243563 0.242332 0.241032 0.23967 0.23826 0.236812 0.235342 0.233865 0.232397 
0.230957 0.229562 0.22823 0.226981 0.225831 0.224804 0.223898 0.223083 0.221945 
0.218617 0.205471 0.160173 0.187142 0.235432 0.246187 0.247553 0.247114 0.246392 
0.24556 0.244657 0.243673 0.242618 0.241494 0.24031 0.239072 0.237793 0.236484 
0.235157 0.233827 0.232508 0.231215 0.229967 0.228776 0.227663 0.226641 0.225732 
0.224935 0.224223 0.223208 0.220077 0.207253 0.162048 0.186401 0.234322 0.244956 
0.246313 0.245909 0.245236 0.244465 0.243632 0.242728 0.241762 0.240736 0.239657 
0.238533 0.237373 0.236189 0.234991 0.233793 0.232607 0.231448 0.23033 0.229266 
0.228274 0.227366 0.226562 0.225861 0.225241 0.224337 0.221388 0.208874 0.163792 
0.185785 0.233328 0.243836 0.245181 0.244808 0.244181 0.243467 0.242699 0.241869 
0.240985 0.240047 0.239065 0.238044 0.236993 0.235922 0.234841 0.233761 0.232695 
0.231655 0.230654 0.229704 0.22882 0.228014 0.227303 0.226689 0.22615 0.225344 
0.222564 0.210351 0.165418 0.185286 0.23244 0.242815 0.244146 0.243802 0.243217 
0.242556 0.241848 0.241085 0.240276 0.239421 0.238527 0.237599 0.236647 0.235678 
0.234702 0.23373 0.232771 0.231838 0.230941 0.230093 0.229306 0.22859 0.227963 
0.227425 0.226959 0.226242 0.223618 0.211698 0.166938 0.184893 0.231647 0.241886 
0.243199 0.242881 0.242336 0.241723 0.24107 0.24037 0.239629 0.238849 0.238035 
0.237193 0.236329 0.235453 0.234573 0.233696 0.232835 0.231997 0.231195 0.230437 
0.229737 0.229102 0.22855 0.22808 0.227678 0.227041 0.224562 0.212928 0.168364 
0.184598 0.23094 0.241038 0.242332 0.242038 0.241529 0.240961 0.240358 0.239716 
0.239038 0.238325 0.237584 0.236819 0.236037 0.235245 0.23445 0.233661 0.232886 
0.232135 0.231416 0.23074 0.230117 0.229556 0.22907 0.228661 0.228316 0.227751 
0.225408 0.214052 0.169704 0.184391 0.230313 0.240266 0.241538 0.241264 0.240789 
0.240262 0.239706 0.239115 0.238495 0.237845 0.23717 0.236475 0.235766 0.23505 
0.234332 0.233621 0.232925 0.232251 0.231609 0.231006 0.230452 0.229955 0.229529 
0.229175 0.228881 0.228381 0.226165 0.215081 0.170969 0.184265 0.229756 0.23956 
0.240809 0.240554 0.24011 0.23962 0.239107 0.238564 0.237996 0.237402 0.236788 
0.236157 0.235514 0.234866 0.234219 0.233578 0.232953 0.232348 0.231774 0.231236 
0.230745 0.230306 0.229933 0.229628 0.229379 0.228938 0.226842 0.216024 0.172165 
0.184213 0.229264 0.238917 0.240139 0.239902 0.239485 0.239029 0.238555 0.238056 
0.237535 0.236993 0.236434 0.23586 0.235278 0.234692 0.234108 0.233531 0.232969 
0.232427 0.231914 0.231435 0.230999 0.230613 0.230288 0.230026 0.229818 0.22943 
0.227446 0.216889 0.173301 0.184227 0.228832 0.238328 0.239524 0.239301 0.23891 
0.238485 0.238047 0.237587 0.23711 0.236614 0.236105 0.235584 0.235056 0.234526 
0.233998 0.233479 0.232974 0.232489 0.232031 0.231605 0.231219 0.23088 0.230597 
0.230374 0.230202 0.229862 0.227985 0.217685 0.174383 0.184298 0.228458 0.23779 
0.238956 0.238747 0.238379 0.237983 0.237576 0.237153 0.236715 0.236262 0.235798 
0.235325 0.234846 0.234366 0.23389 0.233423 0.23297 0.232535 0.232126 0.231748 
0.231407 0.231109 0.230865 0.230677 0.230537 0.230242 0.228465 0.218417 0.175418 
0.184419 0.228138 0.237297 0.238433 0.238235 0.237888 0.237518 0.237141 0.236751 
0.236348 0.235934 0.235511 0.23508 0.234646 0.234213 0.233783 0.233363 0.232956 
0.232567 0.232202 0.231866 0.231566 0.231306 0.231096 0.230939 0.230829 0.230573 
0.228892 0.219093 0.176409 0.184588 0.227865 0.236845 0.237949 0.237761 0.237433 
0.237087 0.236737 0.236376 0.236007 0.235628 0.235241 0.23485 0.234456 0.234064 
0.233676 0.233298 0.232933 0.232585 0.23226 0.231963 0.231699 0.231472 0.231293 
0.231164 0.23108 0.230861 0.22927 0.219717 0.177362 0.184799 0.227634 0.23643 
0.237501 0.237321 0.237011 0.236687 0.236361 0.236027 0.235687 0.23534 0.234987 
0.234631 0.234274 0.233919 0.233569 0.233229 0.232901 0.232591 0.232302 0.232039 
0.231808 0.231612 0.23146 0.231356 0.231295 0.23111 0.229605 0.220294 0.178282 
0.18505 0.227441 0.23605 0.237086 0.236913 0.236618 0.236314 0.23601 0.235701 
0.235388 0.235069 0.234747 0.234422 0.234098 0.233777 0.233462 0.233156 0.232862 
0.232585 0.232329 0.232097 0.231895 0.231726 0.231599 0.231517 0.231478 0.231323 
0.229901 0.22083 0.179172 0.185337 0.227282 0.2357 0.2367 0.236532 0.236252 
0.235965 0.235681 0.235395 0.235106 0.234814 0.234519 0.234223 0.233929 0.233638 
0.233354 0.233079 0.232816 0.232569 0.232342 0.232138 0.231962 0.231817 0.231713 
0.231651 0.231631 0.231504 0.230161 0.221327 0.180037 0.185658 0.227153 0.235378 
0.23634 0.236177 0.235909 0.235639 0.235373 0.235108 0.23484 0.234572 0.234302 
0.234032 0.233765 0.233502 0.233245 0.232998 0.232763 0.232543 0.232342 0.232163 
0.232011 0.231889 0.231804 0.231761 0.231757 0.231656 0.230389 0.221789 0.180878 
0.186009 0.22705 0.235081 0.236004 0.235845 0.235589 0.235333 0.235084 0.234836 
0.234589 0.234342 0.234094 0.233849 0.233606 0.233367 0.233136 0.232914 0.232704 
0.232508 0.232331 0.232175 0.232044 0.231941 0.231875 0.231848 0.23186 0.231782 
0.230587 0.22222 0.1817 0.186389 0.226972 0.234806 0.235689 0.235533 0.235287 
0.235045 0.234811 0.23458 0.234351 0.234123 0.233896 0.233671 0.23345 0.233235 
0.233026 0.232827 0.232639 0.232466 0.23231 0.232174 0.232062 0.231977 0.231927 
0.231914 0.23194 0.231884 0.230759 0.222623 0.182504 0.186796 0.226915 0.234551 
0.235394 0.23524 0.235003 0.234773 0.234553 0.234337 0.234124 0.233913 0.233705 
0.2335 0.233299 0.233103 0.232915 0.232736 0.232569 0.232416 0.232279 0.232161 
0.232067 0.231998 0.231962 0.231963 0.232001 0.231965 0.230907 0.223 0.183293 
0.187227 0.226877 0.234314 0.235116 0.234963 0.234735 0.234516 0.234308 0.234105 
0.233907 0.233713 0.233521 0.233333 0.23315 0.232973 0.232803 0.232643 0.232494 
0.232359 0.232239 0.232138 0.232059 0.232005 0.231982 0.231994 0.232044 0.232027 
0.231033 0.223353 0.18407 0.187681 0.226857 0.234093 0.234854 0.234702 0.234481 
0.234272 0.234075 0.233885 0.2337 0.23352 0.233343 0.233171 0.233004 0.232844 
0.232691 0.232547 0.232415 0.232295 0.232192 0.232105 0.23204 0.231999 0.231988 
0.232011 0.232071 0.232071 0.231139 0.223684 0.184835 0.188156 0.226851 0.233886 
0.234606 0.234454 0.23424 0.23404 0.233852 0.233674 0.233501 0.233334 0.233171 
0.233013 0.232861 0.232715 0.232577 0.232449 0.232331 0.232226 0.232137 0.232064 
0.232012 0.231982 0.231982 0.232014 0.232083 0.232099 0.231227 0.223996 0.185592 
0.188652 0.226859 0.233692 0.23437 0.234218 0.234011 0.233818 0.23364 0.233471 
0.233309 0.233154 0.233003 0.232858 0.232719 0.232587 0.232463 0.232348 0.232244 
0.232152 0.232075 0.232014 0.231974 0.231955 0.231964 0.232005 0.232082 0.232112 
0.231298 0.22429 0.186341 0.189166 0.226878 0.233508 0.234146 0.233993 0.233791 
0.233606 0.233436 0.233277 0.233125 0.23298 0.23284 0.232707 0.23258 0.23246 
0.232348 0.232245 0.232153 0.232073 0.232008 0.231958 0.231927 0.231918 0.231936 
0.231984 0.232069 0.232113 0.231354 0.224567 0.187085 0.189698 0.226908 0.233335 
0.233932 0.233778 0.233581 0.233403 0.23324 0.233089 0.232946 0.23281 0.232681 
0.232558 0.232442 0.232333 0.232232 0.23214 0.23206 0.23199 0.231935 0.231895 
0.231873 0.231872 0.231898 0.231954 0.232045 0.232101 0.231397 0.224829 0.187824 
0.190247 0.226947 0.23317 0.233727 0.233571 0.233379 0.233207 0.233051 0.232907 
0.232772 0.232645 0.232525 0.232412 0.232305 0.232206 0.232115 0.232034 0.231963 
0.231903 0.231857 0.231826 0.231813 0.231819 0.231852 0.231914 0.232011 0.232079 
0.231426 0.225077 0.188559 0.190813 0.226993 0.233013 0.23353 0.233373 0.233185 
0.233018 0.232868 0.232731 0.232603 0.232484 0.232372 0.232267 0.232169 0.23208 
0.231998 0.231925 0.231863 0.231812 0.231774 0.231751 0.231746 0.231759 0.231798 
0.231865 0.231968 0.232047 0.231445 0.225313 0.189292 0.191393 0.227046 0.232862 
0.233341 0.233182 0.232998 0.232836 0.232691 0.23256 0.232439 0.232327 0.232222 
0.232125 0.232035 0.231953 0.23188 0.231815 0.231761 0.231718 0.231688 0.231671 
0.231673 0.231693 0.231737 0.23181 0.231918 0.232006 0.231453 0.225536 0.190025 
0.191988 0.227105 0.232718 0.233158 0.232997 0.232816 0.232659 0.232519 0.232393 
0.232278 0.232172 0.232074 0.231984 0.231901 0.231827 0.231761 0.231703 0.231656 
0.23162 0.231597 0.231587 0.231595 0.23162 0.23167 0.231747 0.231859 0.231957 
0.231451 0.225748 0.190756 0.192596 0.227169 0.232579 0.232981 0.232818 0.23264 
0.232486 0.232351 0.232231 0.23212 0.23202 0.231928 0.231844 0.231768 0.2317 
0.231641 0.23159 0.23155 0.23152 0.231503 0.231499 0.231512 0.231543 0.231597 
0.231678 0.231795 0.231901 0.23144 0.22595 0.191489 0.193219 0.227236 0.232444 
0.232809 0.232644 0.232468 0.232319 0.232187 0.232071 0.231966 0.231871 0.231784 
0.231706 0.231636 0.231574 0.23152 0.231476 0.231441 0.231417 0.231406 0.231407 
0.231425 0.23146 0.231519 0.231603 0.231724 0.231838 0.23142 0.226141 0.192222 
0.193854 0.227307 0.232313 0.232642 0.232474 0.232301 0.232155 0.232027 0.231915 
0.231814 0.231724 0.231642 0.231569 0.231504 0.231447 0.231399 0.23136 0.231331 
0.231312 0.231306 0.231312 0.231334 0.231373 0.231436 0.231524 0.231647 0.231769 
0.231394 0.226324 0.192958 0.194502 0.22738 0.232185 0.232478 0.232309 0.232138 
0.231995 0.23187 0.231762 0.231665 0.231579 0.231501 0.231433 0.231373 0.231321 
0.231278 0.231243 0.231219 0.231205 0.231203 0.231213 0.23124 0.231283 0.231348 
0.231439 0.231566 0.231694 0.23136 0.226498 0.193696 0.195162 0.227455 0.23206 
0.232319 0.232147 0.231978 0.231837 0.231716 0.231611 0.231517 0.231435 0.231362 
0.231298 0.231241 0.231194 0.231155 0.231125 0.231105 0.231095 0.231097 0.231112 
0.231142 0.231188 0.231257 0.23135 0.23148 0.231615 0.231319 0.226664 0.194438 
0.195834 0.227532 0.231937 0.232162 0.231989 0.231821 0.231683 0.231564 0.231462 
0.231372 0.231293 0.231223 0.231163 0.231111 0.231067 0.231032 0.231006 0.23099 
0.230984 0.23099 0.231008 0.231041 0.23109 0.231162 0.231258 0.231389 0.23153 
0.231273 0.226822 0.195184 0.196518 0.227608 0.231816 0.232008 0.231833 0.231667 
0.231531 0.231414 0.231315 0.231228 0.231152 0.231086 0.231029 0.23098 0.23094 
0.230909 0.230886 0.230874 0.230871 0.23088 0.230901 0.230937 0.230989 0.231064 
0.231161 0.231295 0.231442 0.23122 0.226973 0.195934 0.197213 0.227685 0.231696 
0.231857 0.23168 0.231516 0.231382 0.231267 0.23117 0.231085 0.231012 0.230949 
0.230895 0.230849 0.230813 0.230785 0.230765 0.230756 0.230756 0.230768 0.230792 
0.230831 0.230886 0.230962 0.231062 0.231198 0.231349 0.231163 0.227116 0.19669 
0.197919 0.227762 0.231578 0.231708 0.231529 0.231366 0.231234 0.231121 0.231027 
0.230944 0.230874 0.230813 0.230762 0.230719 0.230685 0.23066 0.230644 0.230637 
0.23064 0.230655 0.230681 0.230723 0.230779 0.230858 0.230959 0.231097 0.231253 
0.2311 0.227252 0.19745 0.198637 0.227837 0.23146 0.231561 0.231381 0.231218 
0.231088 0.230977 0.230884 0.230804 0.230736 0.230677 0.230629 0.230589 0.230557 
0.230535 0.230521 0.230517 0.230523 0.23054 0.230568 0.230612 0.230671 0.230751 
0.230854 0.230993 0.231153 0.231033 0.227382 0.198217 0.199366 0.227912 0.231344 
0.231416 0.231234 0.231072 0.230943 0.230834 0.230743 0.230665 0.230599 0.230542 
0.230496 0.230458 0.230429 0.230409 0.230398 0.230396 0.230404 0.230423 0.230454 
0.2305 0.23056 0.230642 0.230746 0.230887 0.231051 0.230961 0.227505 0.19899 
0.200106 0.227985 0.231227 0.231272 0.231088 0.230928 0.2308 0.230692 0.230603 
0.230526 0.230462 0.230408 0.230363 0.230328 0.230301 0.230283 0.230274 0.230274 
0.230284 0.230305 0.230338 0.230385 0.230447 0.230531 0.230636 0.230778 0.230946 
0.230885 0.227621 0.199769 0.200856 0.228055 0.231111 0.231129 0.230944 0.230784 
0.230658 0.230551 0.230464 0.230389 0.230326 0.230274 0.230231 0.230197 0.230172 
0.230156 0.230149 0.230151 0.230163 0.230186 0.23022 0.230269 0.230332 0.230417 
0.230524 0.230667 0.230838 0.230806 0.227731 0.200555 0.201618 0.228124 0.230994 
0.230987 0.230801 0.230642 0.230517 0.230412 0.230325 0.230252 0.230191 0.23014 
0.230099 0.230067 0.230044 0.230029 0.230024 0.230028 0.230041 0.230066 0.230101 
0.230152 0.230216 0.230302 0.23041 0.230554 0.230727 0.230722 0.227834 0.201349 
0.20239 0.228189 0.230877 0.230846 0.230659 0.230501 0.230377 0.230272 0.230187 
0.230115 0.230056 0.230006 0.229967 0.229936 0.229915 0.229902 0.229898 0.229903 
0.229918 0.229944 0.229981 0.230033 0.230098 0.230185 0.230294 0.230439 0.230615 
0.230635 0.227932 0.202151 0.203173 0.228251 0.23076 0.230706 0.230518 0.23036 
0.230237 0.230134 0.23005 0.229979 0.229921 0.229873 0.229835 0.229806 0.229785 