# vtk DataFile Version 5.1
vtk output
ASCII
DATASET UNSTRUCTURED_GRID
POINTS 4929 double
0.1016 1.5 0 0.1016 1.45 0 0.1016 1.4 0 
0.1016 1.35 0 0.1016 1.3 0 0.1016 1.25 0 
0.1016 1.2 0 0.1016 1.15 0 0.1016 1.1 0 
0.1016 1.05 0 0.1016 1 0 0.1016 0.95 0 
0.1016 0.9 0 0.1016 0.85 0 0.1016 0.8 0 
0.1016 0.75 0 0.1016 0.7 0 0.1016 0.65 0 
0.1016 0.6 0 0.1016 0.55 0 0.1016 0.5 0 
0.1016 0.45 0 0.1016 0.4 0 0.1016 0.35 0 
0.1016 0.3 0 0.1016 0.25 0 0.1016 0.2 0 
0.1016 0.15 0 0.1016 0.1 0 0.1016 0.05 0 
0.1016 0 0 5.08 1.5 0 5.08 1.45 0 
5.08 1.4 0 5.08 1.35 0 5.08 1.3 0 
5.08 1.25 0 5.08 1.2 0 5.08 1.15 0 
5.08 1.1 0 5.08 1.05 0 5.08 1 0 
5.08 0.95 0 5.08 0.9 0 5.08 0.85 0 
5.08 0.8 0 5.08 0.75 0 5.08 0.7 0 
5.08 0.65 0 5.08 0.6 0 5.08 0.55 0 
5.08 0.5 0 5.08 0.45 0 5.08 0.4 0 
5.08 0.35 0 5.08 0.3 0 5.08 0.25 0 
5.08 0.2 0 5.08 0.15 0 5.08 0.1 0 
5.08 0.05 0 5.08 0 0 0.12737462728 1.5 0 
0.12737462728 1.45 0 0.12737462728 1.4 0 0.12737462728 1.35 0 
0.12737462728 1.3 0 0.12737462728 1.25 0 0.12737462728 1.2 0 
0.12737462728 1.15 0 0.12737462728 1.1 0 0.12737462728 1.05 0 
0.12737462728 1 0 0.12737462728 0.95 0 0.12737462728 0.9 0 
0.12737462728 0.85 0 0.12737462728 0.8 0 0.12737462728 0.75 0 
0.12737462728 0.7 0 0.12737462728 0.65 0 0.12737462728 0.6 0 
0.12737462728 0.55 0 0.12737462728 0.5 0 0.12737462728 0.45 0 
0.12737462728 0.4 0 0.12737462728 0.35 0 0.12737462728 0.3 0 
0.12737462728 0.25 0 0.12737462728 0.2 0 0.12737462728 0.15 0 
0.12737462728 0.1 0 0.12737462728 0.05 0 0.12737462728 0 0 
0.15441581276 1.5 0 0.15441581276 1.45 0 0.15441581276 1.4 0 
0.15441581276 1.35 0 0.15441581276 1.3 0 0.15441581276 1.25 0 
0.15441581276 1.2 0 0.15441581276 1.15 0 0.15441581276 1.1 0 
0.15441581276 1.05 0 0.15441581276 1 0 0.15441581276 0.95 0 
0.15441581276 0.9 0 0.15441581276 0.85 0 0.15441581276 0.8 0 
0.15441581276 0.75 0 0.15441581276 0.7 0 0.15441581276 0.65 0 
0.15441581276 0.6 0 0.15441581276 0.55 0 0.15441581276 0.5 0 
0.15441581276 0.45 0 0.15441581276 0.4 0 0.15441581276 0.35 0 
0.15441581276 0.3 0 0.15441581276 0.25 0 0.15441581276 0.2 0 
0.15441581276 0.15 0 0.15441581276 0.1 0 0.15441581276 0.05 0 
0.15441581276 0 0 0.18278579477 1.5 0 0.18278579477 1.45 0 
0.18278579477 1.4 0 0.18278579477 1.35 0 0.18278579477 1.3 0 
0.18278579477 1.25 0 0.18278579477 1.2 0 0.18278579477 1.15 0 
0.18278579477 1.1 0 0.18278579477 1.05 0 0.18278579477 1 0 
0.18278579477 0.95 0 0.18278579477 0.9 0 0.18278579477 0.85 0 
0.18278579477 0.8 0 0.18278579477 0.75 0 0.18278579477 0.7 0 
0.18278579477 0.65 0 0.18278579477 0.6 0 0.18278579477 0.55 0 
0.18278579477 0.5 0 0.18278579477 0.45 0 0.18278579477 0.4 0 
0.18278579477 0.35 0 0.18278579477 0.3 0 0.18278579477 0.25 0 
0.18278579477 0.2 0 0.18278579477 0.15 0 0.18278579477 0.1 0 
0.18278579477 0.05 0 0.18278579477 0 0 0.21254987001 1.5 0 
0.21254987001 1.45 0 0.21254987001 1.4 0 0.21254987001 1.35 0 
0.21254987001 1.3 0 0.21254987001 1.25 0 0.21254987001 1.2 0 
0.21254987001 1.15 0 0.21254987001 1.1 0 0.21254987001 1.05 0 
0.21254987001 1 0 0.21254987001 0.95 0 0.21254987001 0.9 0 
0.21254987001 0.85 0 0.21254987001 0.8 0 0.21254987001 0.75 0 
0.21254987001 0.7 0 0.21254987001 0.65 0 0.21254987001 0.6 0 
0.21254987001 0.55 0 0.21254987001 0.5 0 0.21254987001 0.45 0 
0.21254987001 0.4 0 0.21254987001 0.35 0 0.21254987001 0.3 0 
0.21254987001 0.25 0 0.21254987001 0.2 0 0.21254987001 0.15 0 
0.21254987001 0.1 0 0.21254987001 0.05 0 0.21254987001 0 0 
0.24377654385 1.5 0 0.24377654385 1.45 0 0.24377654385 1.4 0 
0.24377654385 1.35 0 0.24377654385 1.3 0 0.24377654385 1.25 0 
0.24377654385 1.2 0 0.24377654385 1.15 0 0.24377654385 1.1 0 
0.24377654385 1.05 0 0.24377654385 1 0 0.24377654385 0.95 0 
0.24377654385 0.9 0 0.24377654385 0.85 0 0.24377654385 0.8 0 
0.24377654385 0.75 0 0.24377654385 0.7 0 0.24377654385 0.65 0 
0.24377654385 0.6 0 0.24377654385 0.55 0 0.24377654385 0.5 0 
0.24377654385 0.45 0 0.24377654385 0.4 0 0.24377654385 0.35 0 
0.24377654385 0.3 0 0.24377654385 0.25 0 0.24377654385 0.2 0 
0.24377654385 0.15 0 0.24377654385 0.1 0 0.24377654385 0.05 0 
0.24377654385 0 0 0.27653768798 1.5 0 0.27653768798 1.45 0 
0.27653768798 1.4 0 0.27653768798 1.35 0 0.27653768798 1.3 0 
0.27653768798 1.25 0 0.27653768798 1.2 0 0.27653768798 1.15 0 
0.27653768798 1.1 0 0.27653768798 1.05 0 0.27653768798 1 0 
0.27653768798 0.95 0 0.27653768798 0.9 0 0.27653768798 0.85 0 
0.27653768798 0.8 0 0.27653768798 0.75 0 0.27653768798 0.7 0 
0.27653768798 0.65 0 0.27653768798 0.6 0 0.27653768798 0.55 0 
0.27653768798 0.5 0 0.27653768798 0.45 0 0.27653768798 0.4 0 
0.27653768798 0.35 0 0.27653768798 0.3 0 0.27653768798 0.25 0 
0.27653768798 0.2 0 0.27653768798 0.15 0 0.27653768798 0.1 0 
0.27653768798 0.05 0 0.27653768798 0 0 0.31090870586 1.5 0 
0.31090870586 1.45 0 0.31090870586 1.4 0 0.31090870586 1.35 0 
0.31090870586 1.3 0 0.31090870586 1.25 0 0.31090870586 1.2 0 
0.31090870586 1.15 0 0.31090870586 1.1 0 0.31090870586 1.05 0 
0.31090870586 1 0 0.31090870586 0.95 0 0.31090870586 0.9 0 
0.31090870586 0.85 0 0.31090870586 0.8 0 0.31090870586 0.75 0 
0.31090870586 0.7 0 0.31090870586 0.65 0 0.31090870586 0.6 0 
0.31090870586 0.55 0 0.31090870586 0.5 0 0.31090870586 0.45 0 
0.31090870586 0.4 0 0.31090870586 0.35 0 0.31090870586 0.3 0 
0.31090870586 0.25 0 0.31090870586 0.2 0 0.31090870586 0.15 0 
0.31090870586 0.1 0 0.31090870586 0.05 0 0.31090870586 0 0 
0.34696870625 1.5 0 0.34696870625 1.45 0 0.34696870625 1.4 0 
0.34696870625 1.35 0 0.34696870625 1.3 0 0.34696870625 1.25 0 
0.34696870625 1.2 0 0.34696870625 1.15 0 0.34696870625 1.1 0 
0.34696870625 1.05 0 0.34696870625 1 0 0.34696870625 0.95 0 
0.34696870625 0.9 0 0.34696870625 0.85 0 0.34696870625 0.8 0 
0.34696870625 0.75 0 0.34696870625 0.7 0 0.34696870625 0.65 0 
0.34696870625 0.6 0 0.34696870625 0.55 0 0.34696870625 0.5 0 
0.34696870625 0.45 0 0.34696870625 0.4 0 0.34696870625 0.35 0 
0.34696870625 0.3 0 0.34696870625 0.25 0 0.34696870625 0.2 0 
0.34696870625 0.15 0 0.34696870625 0.1 0 0.34696870625 0.05 0 
0.34696870625 0 0 0.3848006853 1.5 0 0.3848006853 1.45 0 
0.3848006853 1.4 0 0.3848006853 1.35 0 0.3848006853 1.3 0 
0.3848006853 1.25 0 0.3848006853 1.2 0 0.3848006853 1.15 0 
0.3848006853 1.1 0 0.3848006853 1.05 0 0.3848006853 1 0 
0.3848006853 0.95 0 0.3848006853 0.9 0 0.3848006853 0.85 0 
0.3848006853 0.8 0 0.3848006853 0.75 0 0.3848006853 0.7 0 
0.3848006853 0.65 0 0.3848006853 0.6 0 0.3848006853 0.55 0 
0.3848006853 0.5 0 0.3848006853 0.45 0 0.3848006853 0.4 0 
0.3848006853 0.35 0 0.3848006853 0.3 0 0.3848006853 0.25 0 
0.3848006853 0.2 0 0.3848006853 0.15 0 0.3848006853 0.1 0 
0.3848006853 0.05 0 0.3848006853 0 0 0.42449171754 1.5 0 
0.42449171754 1.45 0 0.42449171754 1.4 0 0.42449171754 1.35 0 
0.42449171754 1.3 0 0.42449171754 1.25 0 0.42449171754 1.2 0 
0.42449171754 1.15 0 0.42449171754 1.1 0 0.42449171754 1.05 0 
0.42449171754 1 0 0.42449171754 0.95 0 0.42449171754 0.9 0 
0.42449171754 0.85 0 0.42449171754 0.8 0 0.42449171754 0.75 0 
0.42449171754 0.7 0 0.42449171754 0.65 0 0.42449171754 0.6 0 
0.42449171754 0.55 0 0.42449171754 0.5 0 0.42449171754 0.45 0 
0.42449171754 0.4 0 0.42449171754 0.35 0 0.42449171754 0.3 0 
0.42449171754 0.25 0 0.42449171754 0.2 0 0.42449171754 0.15 0 
0.42449171754 0.1 0 0.42449171754 0.05 0 0.42449171754 0 0 
0.46613315636 1.5 0 0.46613315636 1.45 0 0.46613315636 1.4 0 
0.46613315636 1.35 0 0.46613315636 1.3 0 0.46613315636 1.25 0 
0.46613315636 1.2 0 0.46613315636 1.15 0 0.46613315636 1.1 0 
0.46613315636 1.05 0 0.46613315636 1 0 0.46613315636 0.95 0 
0.46613315636 0.9 0 0.46613315636 0.85 0 0.46613315636 0.8 0 
0.46613315636 0.75 0 0.46613315636 0.7 0 0.46613315636 0.65 0 
0.46613315636 0.6 0 0.46613315636 0.55 0 0.46613315636 0.5 0 
0.46613315636 0.45 0 0.46613315636 0.4 0 0.46613315636 0.35 0 
0.46613315636 0.3 0 0.46613315636 0.25 0 0.46613315636 0.2 0 
0.46613315636 0.15 0 0.46613315636 0.1 0 0.46613315636 0.05 0 
0.46613315636 0 0 0.5098208442 1.5 0 0.5098208442 1.45 0 
0.5098208442 1.4 0 0.5098208442 1.35 0 0.5098208442 1.3 0 
0.5098208442 1.25 0 0.5098208442 1.2 0 0.5098208442 1.15 0 
0.5098208442 1.1 0 0.5098208442 1.05 0 0.5098208442 1 0 
0.5098208442 0.95 0 0.5098208442 0.9 0 0.5098208442 0.85 0 
0.5098208442 0.8 0 0.5098208442 0.75 0 0.5098208442 0.7 0 
0.5098208442 0.65 0 0.5098208442 0.6 0 0.5098208442 0.55 0 
0.5098208442 0.5 0 0.5098208442 0.45 0 0.5098208442 0.4 0 
0.5098208442 0.35 0 0.5098208442 0.3 0 0.5098208442 0.25 0 
0.5098208442 0.2 0 0.5098208442 0.15 0 0.5098208442 0.1 0 
0.5098208442 0.05 0 0.5098208442 0 0 0.55565533319 1.5 0 
0.55565533319 1.45 0 0.55565533319 1.4 0 0.55565533319 1.35 0 
0.55565533319 1.3 0 0.55565533319 1.25 0 0.55565533319 1.2 0 
0.55565533319 1.15 0 0.55565533319 1.1 0 0.55565533319 1.05 0 
0.55565533319 1 0 0.55565533319 0.95 0 0.55565533319 0.9 0 
0.55565533319 0.85 0 0.55565533319 0.8 0 0.55565533319 0.75 0 
0.55565533319 0.7 0 0.55565533319 0.65 0 0.55565533319 0.6 0 
0.55565533319 0.55 0 0.55565533319 0.5 0 0.55565533319 0.45 0 
0.55565533319 0.4 0 0.55565533319 0.35 0 0.55565533319 0.3 0 
0.55565533319 0.25 0 0.55565533319 0.2 0 0.55565533319 0.15 0 
0.55565533319 0.1 0 0.55565533319 0.05 0 0.55565533319 0 0 
0.60374211656 1.5 0 0.60374211656 1.45 0 0.60374211656 1.4 0 
0.60374211656 1.35 0 0.60374211656 1.3 0 0.60374211656 1.25 0 
0.60374211656 1.2 0 0.60374211656 1.15 0 0.60374211656 1.1 0 
0.60374211656 1.05 0 0.60374211656 1 0 0.60374211656 0.95 0 
0.60374211656 0.9 0 0.60374211656 0.85 0 0.60374211656 0.8 0 
0.60374211656 0.75 0 0.60374211656 0.7 0 0.60374211656 0.65 0 
0.60374211656 0.6 0 0.60374211656 0.55 0 0.60374211656 0.5 0 
0.60374211656 0.45 0 0.60374211656 0.4 0 0.60374211656 0.35 0 
0.60374211656 0.3 0 0.60374211656 0.25 0 0.60374211656 0.2 0 
0.60374211656 0.15 0 0.60374211656 0.1 0 0.60374211656 0.05 0 
0.60374211656 0 0 0.65419187143 1.5 0 0.65419187143 1.45 0 
0.65419187143 1.4 0 0.65419187143 1.35 0 0.65419187143 1.3 0 
0.65419187143 1.25 0 0.65419187143 1.2 0 0.65419187143 1.15 0 
[...]
CELL_DATA 4740
FIELD FieldData 7
B_Stress_n_p_m2 1 4740 float
0.161636 0.205961 0.211306 0.227748 0.235769 0.238891 0.239923 0.239908 0.23952 
0.239079 0.238705 0.238429 0.238246 0.238137 0.238087 0.238087 0.238137 0.238246 
0.238429 0.238705 0.239079 0.23952 0.239908 0.239923 0.238891 0.235769 0.227748 
0.211306 0.205961 0.161636 0.340229 0.103351 0.173445 0.210015 0.224579 0.23461 
0.240198 0.24308 0.244459 0.245014 0.245164 0.245143 0.24507 0.245002 0.244965 
0.244965 0.245002 0.24507 0.245143 0.245164 0.245014 0.244459 0.24308 0.240198 
0.23461 0.224579 0.210015 0.173445 0.103351 0.340229 0.214014 0.14192 0.180962 
0.207078 0.219372 0.226726 0.230732 0.23275 0.233695 0.234081 0.234202 0.234211 
0.234185 0.234158 0.234143 0.234143 0.234158 0.234185 0.234211 0.234202 0.234081 
0.233695 0.23275 0.230732 0.226726 0.219372 0.207078 0.180962 0.14192 0.214014 
0.188887 0.164254 0.185527 0.204796 0.216173 0.223262 0.227455 0.229823 0.231122 
0.231813 0.232172 0.232356 0.232449 0.232495 0.232514 0.232514 0.232495 0.232449 
0.232356 0.232172 0.231813 0.231122 0.229823 0.227455 0.223262 0.216173 0.204796 
0.185527 0.164254 0.188887 0.190613 0.177042 0.189558 0.203812 0.213887 0.220845 
0.225381 0.228225 0.229973 0.231032 0.231671 0.232054 0.232282 0.23241 0.232467 
0.232467 0.23241 0.232282 0.232054 0.231671 0.231032 0.229973 0.228225 0.225381 
0.220845 0.213887 0.203812 0.189558 0.177042 0.190613 0.190854 0.18588 0.193903 
0.204165 0.212537 0.218881 0.223371 0.226421 0.228448 0.229777 0.230641 0.231198 
0.231548 0.231753 0.231848 0.231848 0.231753 0.231548 0.231198 0.230641 0.229777 
0.228448 0.226421 0.223371 0.218881 0.212537 0.204165 0.193903 0.18588 0.190854 
0.191511 0.191646 0.197474 0.205045 0.211892 0.21748 0.221717 0.224789 0.226961 
0.228469 0.229502 0.230199 0.230653 0.230926 0.231054 0.231054 0.230926 0.230653 
0.230199 0.229502 0.228469 0.226961 0.224789 0.221717 0.21748 0.211892 0.205045 
0.197474 0.191646 0.191511 0.193386 0.195451 0.200156 0.206038 0.211689 0.216561 
0.220466 0.223454 0.225672 0.227284 0.228433 0.229235 0.229772 0.230101 0.230257 
0.230257 0.230101 0.229772 0.229235 0.228433 0.227284 0.225672 0.223454 0.220466 
0.216561 0.211689 0.206038 0.200156 0.195451 0.193386 0.195654 0.198209 0.202236 
0.207021 0.211756 0.215999 0.219547 0.222381 0.224572 0.226223 0.22744 0.228312 
0.228908 0.22928 0.229458 0.229458 0.22928 0.228908 0.228312 0.22744 0.226223 
0.224572 0.222381 0.219547 0.215999 0.211756 0.207021 0.202236 0.198209 0.195654 
0.197785 0.200377 0.203926 0.207958 0.211988 0.215692 0.218892 0.221535 0.223646 
0.225286 0.226527 0.227436 0.22807 0.228469 0.228662 0.228662 0.228469 0.22807 
0.227436 0.226527 0.225286 0.223646 0.221535 0.218892 0.215692 0.211988 0.207958 
0.203926 0.200377 0.197785 0.19962 0.202153 0.20534 0.208829 0.212315 0.215568 
0.218444 0.220881 0.22288 0.224471 0.225702 0.226621 0.22727 0.227685 0.227886 
0.227886 0.227685 0.22727 0.226621 0.225702 0.224471 0.22288 0.220881 0.218444 
0.215568 0.212315 0.208829 0.20534 0.202153 0.19962 0.201151 0.203626 0.206538 
0.209625 0.212688 0.215568 0.218153 0.220387 0.222255 0.223772 0.224967 0.225873 
0.226522 0.226939 0.227143 0.227143 0.226939 0.226522 0.225873 0.224967 0.223772 
0.222255 0.220387 0.218153 0.215568 0.212688 0.209625 0.206538 0.203626 0.201151 
0.202414 0.204851 0.207554 0.21034 0.213074 0.215648 0.217979 0.22002 0.221752 
0.223181 0.224321 0.225197 0.225831 0.226241 0.226443 0.226443 0.226241 0.225831 
0.225197 0.224321 0.223181 0.221752 0.22002 0.217979 0.215648 0.213074 0.21034 
0.207554 0.204851 0.202414 0.203451 0.205865 0.208414 0.210972 0.21345 0.215775 
0.217888 0.219753 0.221352 0.222685 0.223761 0.224595 0.225203 0.2256 0.225795 
0.225795 0.2256 0.225203 0.224595 0.223761 0.222685 0.221352 0.219753 0.217888 
0.215775 0.21345 0.210972 0.208414 0.205865 0.203451 0.204304 0.206703 0.209138 
0.211523 0.213802 0.215925 0.217854 0.219562 0.221036 0.222273 0.223279 0.224064 
0.22464 0.225017 0.225204 0.225204 0.225017 0.22464 0.224064 0.223279 0.222273 
0.221036 0.219562 0.217854 0.215925 0.213802 0.211523 0.209138 0.206703 0.204304 
0.205004 0.207393 0.209743 0.211998 0.214121 0.216082 0.217857 0.219428 0.220787 
0.221932 0.222868 0.223601 0.224142 0.224497 0.224673 0.224673 0.224497 0.224142 
0.223601 0.222868 0.221932 0.220787 0.219428 0.217857 0.216082 0.214121 0.211998 
0.209743 0.207393 0.205004 0.205578 0.207961 0.210248 0.212403 0.214404 0.216235 
0.217882 0.219336 0.220593 0.221653 0.222521 0.223202 0.223706 0.224037 0.224201 
0.224201 0.224037 0.223706 0.223202 0.222521 0.221653 0.220593 0.219336 0.217882 
0.216235 0.214404 0.212403 0.210248 0.207961 0.205578 0.206049 0.208427 0.210666 
0.212744 0.21465 0.216377 0.217919 0.219274 0.220441 0.221424 0.222229 0.222861 
0.223328 0.223636 0.223789 0.223789 0.223636 0.223328 0.222861 0.222229 0.221424 
0.220441 0.219274 0.217919 0.216377 0.21465 0.212744 0.210666 0.208427 0.206049 
0.206435 0.20881 0.211012 0.21303 0.214861 0.216505 0.21796 0.219231 0.220322 
0.221237 0.221984 0.222571 0.223004 0.223289 0.223431 0.223431 0.223289 0.223004 
0.222571 0.221984 0.221237 0.220322 0.219231 0.21796 0.216505 0.214861 0.21303 
0.211012 0.20881 0.206435 0.206751 0.209123 0.211297 0.213269 0.215041 0.216616 
0.218002 0.219203 0.220227 0.221084 0.221781 0.222326 0.222728 0.222992 0.223123 
0.223123 0.222992 0.222728 0.222326 0.221781 0.221084 0.220227 0.219203 0.218002 
0.216616 0.215041 0.213269 0.211297 0.209123 0.206751 0.20701 0.209379 0.211531 
0.213467 0.215192 0.216713 0.21804 0.219183 0.220152 0.220958 0.22161 0.22212 
0.222494 0.222739 0.222861 0.222861 0.222739 0.222494 0.22212 0.22161 0.220958 
0.220152 0.219183 0.21804 0.216713 0.215192 0.213467 0.211531 0.209379 0.20701 
0.207224 0.209591 0.211725 0.213632 0.215318 0.216795 0.218074 0.219169 0.220091 
0.220853 0.221468 0.221945 0.222295 0.222523 0.222636 0.222636 0.222523 0.222295 
0.221945 0.221468 0.220853 0.220091 0.219169 0.218074 0.216795 0.215318 0.213632 
0.211725 0.209591 0.207224 0.207401 0.209766 0.211886 0.213768 0.215424 0.216864 
0.218104 0.219158 0.220041 0.220766 0.221348 0.221797 0.222125 0.222339 0.222445 
0.222445 0.222339 0.222125 0.221797 0.221348 0.220766 0.220041 0.219158 0.218104 
0.216864 0.215424 0.213768 0.211886 0.209766 0.207401 0.20755 0.209912 0.212021 
0.213883 0.215513 0.216923 0.218129 0.219149 0.219998 0.220691 0.221245 0.22167 
0.22198 0.222181 0.22228 0.22228 0.222181 0.22198 0.22167 0.221245 0.220691 
0.219998 0.219149 0.218129 0.216923 0.215513 0.213883 0.212021 0.209912 0.20755 
0.207677 0.210038 0.212136 0.213981 0.215588 0.216972 0.218151 0.219141 0.21996 
0.220626 0.221155 0.22156 0.221853 0.222043 0.222136 0.222136 0.222043 0.221853 
0.22156 0.221155 0.220626 0.21996 0.219141 0.218151 0.216972 0.215588 0.213981 
0.212136 0.210038 0.207677 0.207789 0.210147 0.212236 0.214067 0.215654 0.217015 
0.218168 0.219132 0.219926 0.220568 0.221075 0.221461 0.221739 0.22192 0.222008 
0.222008 0.22192 0.221739 0.221461 0.221075 0.220568 0.219926 0.219132 0.218168 
0.217015 0.215654 0.214067 0.212236 0.210147 0.207789 0.20789 0.210246 0.212326 
0.214143 0.215713 0.217053 0.218183 0.219124 0.219894 0.220514 0.221001 0.221371 
0.221636 0.221807 0.221891 0.221891 0.221807 0.221636 0.221371 0.221001 0.220514 
0.219894 0.219124 0.218183 0.217053 0.215713 0.214143 0.212326 0.210246 0.20789 
0.207985 0.210337 0.212409 0.214213 0.215767 0.217087 0.218196 0.219115 0.219863 
0.220463 0.220931 0.221285 0.221538 0.221701 0.221781 0.221781 0.221701 0.221538 
0.221285 0.220931 0.220463 0.219863 0.219115 0.218196 0.217087 0.215767 0.214213 
0.212409 0.210337 0.207985 0.208077 0.210426 0.21249 0.214281 0.215818 0.21712 
0.218208 0.219105 0.219833 0.220412 0.220863 0.221202 0.221443 0.221598 0.221674 
0.221674 0.221598 0.221443 0.221202 0.220863 0.220412 0.219833 0.219105 0.218208 
0.21712 0.215818 0.214281 0.21249 0.210426 0.208077 0.208169 0.210514 0.21257 
0.214348 0.215869 0.217151 0.218219 0.219094 0.219801 0.220361 0.220795 0.221119 
0.221349 0.221496 0.221567 0.221567 0.221496 0.221349 0.221119 0.220795 0.220361 
0.219801 0.219094 0.218219 0.217151 0.215869 0.214348 0.21257 0.210514 0.208169 
0.208263 0.210606 0.212652 0.214417 0.21592 0.217183 0.218229 0.219083 0.219768 
0.220308 0.220724 0.221033 0.221252 0.221391 0.221458 0.221458 0.221391 0.221252 
0.221033 0.220724 0.220308 0.219768 0.219083 0.218229 0.217183 0.21592 0.214417 
0.212652 0.210606 0.208263 0.208364 0.210701 0.212738 0.214489 0.215974 0.217215 
0.218239 0.21907 0.219733 0.220253 0.22065 0.220944 0.221151 0.221282 0.221345 
0.221345 0.221282 0.221151 0.220944 0.22065 0.220253 0.219733 0.21907 0.218239 
0.217215 0.215974 0.214489 0.212738 0.210701 0.208364 0.208471 0.210805 0.21283 
0.214565 0.216031 0.21725 0.218249 0.219056 0.219695 0.220193 0.220571 0.220849 
0.221043 0.221166 0.221225 0.221225 0.221166 0.221043 0.220849 0.220571 0.220193 
0.219695 0.219056 0.218249 0.21725 0.216031 0.214565 0.21283 0.210805 0.208471 
0.208589 0.210917 0.212931 0.214649 0.216092 0.217287 0.21826 0.21904 0.219654 
0.220128 0.220486 0.220747 0.220928 0.221042 0.221097 0.221097 0.221042 0.220928 
0.220747 0.220486 0.220128 0.219654 0.21904 0.21826 0.217287 0.216092 0.214649 
0.212931 0.210917 0.208589 0.208718 0.21104 0.213041 0.21474 0.216159 0.217326 
0.218271 0.219022 0.219608 0.220057 0.220393 0.220636 0.220804 0.220908 0.220958 
0.220958 0.220908 0.220804 0.220636 0.220393 0.220057 0.219608 0.219022 0.218271 
0.217326 0.216159 0.21474 0.213041 0.21104 0.208718 0.208862 0.211178 0.213164 
0.21484 0.216233 0.21737 0.218282 0.219001 0.219557 0.219979 0.220291 0.220515 
0.220668 0.220763 0.220808 0.220808 0.220763 0.220668 0.220515 0.220291 0.219979 
0.219557 0.219001 0.218282 0.21737 0.216233 0.21484 0.213164 0.211178 0.208862 
0.209024 0.211331 0.2133 0.214952 0.216314 0.217417 0.218293 0.218977 0.219501 
0.219893 0.220179 0.220383 0.22052 0.220604 0.220644 0.220644 0.220604 0.22052 
0.220383 0.220179 0.219893 0.219501 0.218977 0.218293 0.217417 0.216314 0.214952 
0.2133 0.211331 0.209024 0.209205 0.211503 0.213453 0.215076 0.216404 0.217468 
0.218304 0.218949 0.219436 0.219796 0.220056 0.220237 0.220358 0.220431 0.220466 
0.220466 0.220431 0.220358 0.220237 0.220056 0.219796 0.219436 0.218949 0.218304 
0.217468 0.216404 0.215076 0.213453 0.211503 0.209205 0.209411 0.211699 0.213625 
0.215216 0.216503 0.217523 0.218315 0.218916 0.219363 0.219688 0.219918 0.220076 
0.22018 0.220241 0.22027 0.22027 0.220241 0.22018 0.220076 0.219918 0.219688 
0.219363 0.218916 0.218315 0.217523 0.216503 0.215216 0.213625 0.211699 0.209411 
0.209646 0.211921 0.21382 0.215372 0.216613 0.217582 0.218323 0.218876 0.219279 
0.219566 0.219765 0.219898 0.219983 0.220034 0.220057 0.220057 0.220034 0.219983 
0.219898 0.219765 0.219566 0.219279 0.218876 0.218323 0.217582 0.216613 0.215372 
0.21382 0.211921 0.209646 0.209917 0.212176 0.214042 0.215548 0.216734 0.217645 
0.218328 0.218827 0.219182 0.219428 0.219593 0.219701 0.219767 0.219806 0.219823 
0.219823 0.219806 0.219767 0.219701 0.219593 0.219428 0.219182 0.218827 0.218328 
0.217645 0.216734 0.215548 0.214042 0.212176 0.209917 0.21023 0.212469 0.214296 
0.215747 0.216868 0.217711 0.218328 0.218766 0.219068 0.21927 0.219401 0.219482 
0.21953 0.219556 0.219567 0.219567 0.219556 0.21953 0.219482 0.219401 0.21927 
0.219068 0.218766 0.218328 0.217711 0.216868 0.215747 0.214296 0.212469 0.21023 
0.210596 0.212811 0.214588 0.215971 0.217014 0.217777 0.218317 0.218688 0.218933 
0.219089 0.219184 0.219238 0.219268 0.219283 0.219288 0.219288 0.219283 0.219268 
0.219238 0.219184 0.219089 0.218933 0.218688 0.218317 0.217777 0.217014 0.215971 
0.214588 0.212811 0.210596 0.211031 0.213213 0.214926 0.216223 0.21717 0.217838 
0.218292 0.218588 0.218772 0.21888 0.21894 0.218969 0.218981 0.218985 0.218985 
0.218985 0.218985 0.218981 0.218969 0.21894 0.21888 0.218772 0.218588 0.218292 
0.217838 0.21717 0.216223 0.214926 0.213213 0.211031 0.211553 0.213691 0.215318 
0.216504 0.217333 0.217888 0.218243 0.218458 0.218579 0.218639 0.218665 0.21867 
0.218667 0.218662 0.218658 0.218658 0.218662 0.218667 0.21867 0.218665 0.218639 
0.218579 0.218458 0.218243 0.217888 0.217333 0.216504 0.215318 0.213691 0.211553 
0.212191 0.214265 0.215771 0.216809 0.21749 0.217912 0.218157 0.218287 0.218346 
0.218363 0.218358 0.218345 0.21833 0.218317 0.218311 0.218311 0.218317 0.21833 
0.218345 0.218358 0.218363 0.218346 0.218287 0.218157 0.217912 0.21749 0.216809 
0.215771 0.214265 0.212191 0.213001 0.21497 0.216294 0.217128 0.21762 0.217888 
0.218016 0.218063 0.218065 0.218046 0.218019 0.217993 0.217971 0.217955 0.217947 
0.217947 0.217955 0.217971 0.217993 0.218019 0.218046 0.218065 0.218063 0.218016 
0.217888 0.21762 0.217128 0.216294 0.21497 0.213001 0.214091 0.215851 0.216868 
0.217408 0.217665 0.217764 0.217781 0.217759 0.217722 0.217683 0.217647 0.217618 
0.217596 0.217581 0.217574 0.217574 0.217581 0.217596 0.217618 0.217647 0.217683 
0.217722 0.217759 0.217781 0.217764 0.217665 0.217408 0.216868 0.215851 0.214091 
0.215437 0.216708 0.217268 0.217483 0.217541 0.217531 0.217497 0.217457 0.21742 
0.21739 0.217366 0.217347 0.217335 0.217327 0.217323 0.217323 0.217327 0.217335 
0.217347 0.217366 0.21739 0.21742 0.217457 0.217497 0.217531 0.217541 0.217483 
0.217268 0.216708 0.215437 1889.98 3646.05 3990.18 4163.3 4253.38 4276.49 
4273.5 4262.21 4249.97 4239.86 4232.56 4227.72 4224.76 4223.11 4222.39 
4222.39 4223.11 4224.76 4227.72 4232.56 4239.86 4249.97 4262.21 4273.5 
4276.49 4253.38 4163.3 3990.18 3646.05 1889.98 1421.29 2920.99 3401.35 
3596.46 3683.98 3708.51 3706.84 3696.6 3685.28 3675.85 3669 3664.45 
3661.65 3660.08 3659.39 3659.39 3660.08 3661.65 3664.45 3669 3675.85 
3685.28 3696.6 3706.84 3708.51 3683.98 3596.46 3401.35 2920.99 1421.29 
1305.66 2464.79 2957.61 3167.61 3256.97 3283.69 3283.66 3274.55 3264.06 
3255.19 3248.68 3244.33 3241.63 3240.12 3239.45 3239.45 3240.12 3241.63 
3244.33 3248.68 3255.19 3264.06 3274.55 3283.66 3283.69 3256.97 3167.61 
2957.61 2464.79 1305.66 1293.93 2181.51 2635.26 2843.49 2933.47 2962.64 
2964.95 2957.64 2948.43 2940.41 2934.43 2930.38 2927.84 2926.4 2925.76 
2925.76 2926.4 2927.84 2930.38 2934.43 2940.41 2948.43 2957.64 2964.95 
2962.64 2933.47 2843.49 2635.26 2181.51 1293.93 1270.05 2000.19 2397.05 
2590.79 2678.86 2710.39 2715.62 2710.73 2703.27 2696.41 2691.14 2687.5 
2685.18 2683.85 2683.25 2683.25 2683.85 2685.18 2687.5 2691.14 2696.41 
2703.27 2710.73 2715.62 2710.39 2678.86 2590.79 2397.05 2000.19 1270.05 
1191.98 1865.4 2212.21 2389.24 2474.94 2509.12 2517.75 2515.71 2510.3 
2504.78 2500.32 2497.15 2495.08 2493.87 2493.32 2493.32 2493.87 2495.08 
2497.15 2500.32 2504.78 2510.3 2515.71 2517.75 2509.12 2474.94 2389.24 
2212.21 1865.4 1191.98 1057.84 1748.65 2067.16 2234.72 2319.53 2356.38 
2368.24 2368.82 2365.27 2360.95 2357.22 2354.45 2352.59 2351.49 2350.98 
2350.98 2351.49 2352.59 2354.45 2357.22 2360.95 2365.27 2368.82 2368.24 
2356.38 2319.53 2234.72 2067.16 1748.65 1057.84 1010.36 1704.69 1985.74 
2150.71 2233.73 2270.21 2282.79 2284.11 2281.13 2277.22 2273.75 2271.14 
2269.37 2268.31 2267.82 2267.82 2268.31 2269.37 2271.14 2273.75 2277.22 
2281.13 2284.11 2282.79 2270.21 2233.73 2150.71 1985.74 1704.69 1010.36 
0.698396 0.709449 0.719369 0.728243 0.736144 0.743139 0.749287 0.754637 0.759231 
0.763107 0.766294 0.768816 0.770692 0.771934 0.772554 0.772554 0.771934 0.770692 
0.768816 0.766294 0.763107 0.759231 0.754637 0.749287 0.743139 0.736144 0.728243 
0.719369 0.709449 0.698396 0.697318 0.708363 0.718277 0.727145 0.735042 0.742036 
0.748183 0.753534 0.758131 0.762009 0.765199 0.767723 0.769601 0.770845 0.771465 
0.771465 0.770845 0.769601 0.767723 0.765199 0.762009 0.758131 0.753534 0.748183 
0.742036 0.735042 0.727145 0.718277 0.708363 0.697318 0.69689 0.70793 0.71784 
0.726705 0.734602 0.741596 0.747745 0.753099 0.757699 0.761582 0.764775 0.767303 
0.769184 0.77043 0.771051 0.771051 0.77043 0.769184 0.767303 0.764775 0.761582 
0.757699 0.753099 0.747745 0.741596 0.734602 0.726705 0.71784 0.70793 0.69689 
0.69632 0.707351 0.717254 0.726115 0.734009 0.741003 0.747153 0.752509 0.757112 
0.760998 0.764196 0.766727 0.768611 0.769859 0.770482 0.770482 0.769859 0.768611 
0.766727 0.764196 0.760998 0.757112 0.752509 0.747153 0.741003 0.734009 0.726115 
0.717254 0.707351 0.69632 0.6958 0.706822 0.716718 0.725575 0.733468 0.740462 
0.746614 0.751973 0.75658 0.760471 0.763672 0.766208 0.768095 0.769346 0.769969 
0.769969 0.769346 0.768095 0.766208 0.763672 0.760471 0.75658 0.751973 0.746614 
0.740462 0.733468 0.725575 0.716718 0.706822 0.6958 0.695282 0.706295 0.716186 
0.725039 0.73293 0.739924 0.746078 0.751441 0.756052 0.759947 0.763153 0.765693 
0.767584 0.768838 0.769463 0.769463 0.768838 0.767584 0.765693 0.763153 0.759947 
0.756052 0.751441 0.746078 0.739924 0.73293 0.725039 0.716186 0.706295 0.695282 
0.694776 0.705781 0.715666 0.724516 0.732406 0.739401 0.745558 0.750924 0.75554 
0.75944 0.762651 0.765196 0.76709 0.768347 0.768973 0.768973 0.768347 0.76709 
0.765196 0.762651 0.75944 0.75554 0.750924 0.745558 0.739401 0.732406 0.724516 
0.715666 0.705781 0.694776 0.694281 0.705278 0.715157 0.724004 0.731893 0.738889 
0.745048 0.750418 0.755039 0.758945 0.762162 0.764712 0.766611 0.767871 0.768499 
0.768499 0.767871 0.766611 0.764712 0.762162 0.758945 0.755039 0.750418 0.745048 
0.738889 0.731893 0.724004 0.715157 0.705278 0.694281 0.693796 0.704784 0.714658 
0.723502 0.731391 0.738388 0.74455 0.749925 0.754552 0.758463 0.761687 0.764242 
0.766146 0.767409 0.768039 0.768039 0.767409 0.766146 0.764242 0.761687 0.758463 
0.754552 0.749925 0.74455 0.738388 0.731391 0.723502 0.714658 0.704784 0.693796 
0.69332 0.704301 0.71417 0.723011 0.730899 0.737898 0.744064 0.749443 0.754076 
0.757994 0.761224 0.763786 0.765695 0.766962 0.767593 0.767593 0.766962 0.765695 
0.763786 0.761224 0.757994 0.754076 0.749443 0.744064 0.737898 0.730899 0.723011 
0.71417 0.704301 0.69332 0.692854 0.703828 0.713692 0.72253 0.730418 0.737419 
0.743588 0.748973 0.753612 0.757537 0.760775 0.763343 0.765258 0.766528 0.767162 
0.767162 0.766528 0.765258 0.763343 0.760775 0.757537 0.753612 0.748973 0.743588 
0.737419 0.730418 0.72253 0.713692 0.703828 0.692854 0.692398 0.703364 0.713223 
0.722059 0.729946 0.736949 0.743123 0.748513 0.753159 0.757092 0.760337 0.762913 
0.764834 0.766109 0.766745 0.766745 0.766109 0.764834 0.762913 0.760337 0.757092 
0.753159 0.748513 0.743123 0.736949 0.729946 0.722059 0.713223 0.703364 0.692398 
0.691951 0.70291 0.712764 0.721597 0.729485 0.73649 0.742667 0.748064 0.752717 
0.756659 0.759912 0.762496 0.764423 0.765703 0.766342 0.766342 0.765703 0.764423 
0.762496 0.759912 0.756659 0.752717 0.748064 0.742667 0.73649 0.729485 0.721597 
0.712764 0.70291 0.691951 0.691513 0.702464 0.712314 0.721145 0.729032 0.73604 
0.742222 0.747625 0.752286 0.756237 0.759499 0.762091 0.764025 0.765311 0.765952 
0.765952 0.765311 0.764025 0.762091 0.759499 0.756237 0.752286 0.747625 0.742222 
0.73604 0.729032 0.721145 0.712314 0.702464 0.691513 0.691083 0.702028 0.711873 
0.720702 0.728589 0.735599 0.741785 0.747195 0.751865 0.755825 0.759097 0.761698 
0.76364 0.764931 0.765576 0.765576 0.764931 0.76364 0.761698 0.759097 0.755825 
0.751865 0.747195 0.741785 0.735599 0.728589 0.720702 0.711873 0.702028 0.691083 
0.690663 0.701601 0.711441 0.720267 0.728154 0.735166 0.741358 0.746775 0.751454 
0.755424 0.758706 0.761317 0.763268 0.764565 0.765213 0.765213 0.764565 0.763268 
0.761317 0.758706 0.755424 0.751454 0.746775 0.741358 0.735166 0.728154 0.720267 
0.711441 0.701601 0.690663 0.690251 0.701182 0.711017 0.719841 0.727728 0.734742 
0.740939 0.746363 0.751052 0.755033 0.758326 0.760948 0.762908 0.764212 0.764863 
0.764863 0.764212 0.762908 0.760948 0.758326 0.755033 0.751052 0.746363 0.740939 
0.734742 0.727728 0.719841 0.711017 0.701182 0.690251 0.689848 0.700773 0.710603 
0.719423 0.72731 0.734326 0.740528 0.74596 0.750659 0.754651 0.757957 0.76059 