# vtk DataFile Version 5.1
vtk output
ASCII
DATASET UNSTRUCTURED_GRID
POINTS 616 double
-10.1 1.299999997 1.2778182068e-08 -9.899999997 1.299999997 6.2261822364e-09 -9.899999997 1.5 1.3077440144e-06 
-9.699999994 1.299999997 5.4658446658e-09 -9.699999994 1.5 1.1368626929e-06 -9.4999999911 1.299999997 5.1165987003e-09 
-9.4999999911 1.5 1.0737182947e-06 -9.2999999881 1.299999997 4.9692605586e-09 -9.2999999881 1.5 1.0511701021e-06 
-9.0999999851 1.299999997 4.9456136963e-09 -9.0999999851 1.5 1.0498367828e-06 -8.8999999821 1.299999997 5.0383821559e-09 
-8.8999999821 1.5 1.062340516e-06 -8.6999999791 1.299999997 5.1220556685e-09 -8.6999999791 1.5 1.0816945633e-06 
-8.4999999762 1.299999997 5.2684843155e-09 -8.4999999762 1.5 1.1117933809e-06 -8.2999999732 1.299999997 5.4303743724e-09 
-8.2999999732 1.5 1.1496074421e-06 -8.0999999702 1.299999997 5.6240967439e-09 -8.0999999702 1.5 1.1947211078e-06 
-7.8999999672 1.299999997 5.9533338259e-09 -7.8999999672 1.5 1.2472471553e-06 -7.6999999642 1.299999997 6.2216347629e-09 
-7.6999999642 1.5 1.3075584775e-06 -7.4999999613 1.299999997 6.5072160993e-09 -7.4999999613 1.5 1.376303544e-06 
-7.2999999583 1.299999997 6.9437735561e-09 -7.2999999583 1.5 1.4542872577e-06 -7.0999999553 1.299999997 7.2793771011e-09 
-7.0999999553 1.5 1.5310176877e-06 -6.8999999523 1.299999997 7.7741422189e-09 -6.8999999523 1.5 1.6298988612e-06 
-6.6999999493 1.299999997 8.2820950098e-09 -6.6999999493 1.5 1.7424297312e-06 -6.4999999464 1.299999997 8.8873637338e-09 
-6.4999999464 1.5 1.8710959466e-06 -6.2999999434 1.299999997 9.5785797072e-09 -6.2999999434 1.5 2.0190702799e-06 
-6.0999999404 1.299999997 1.041758857e-08 -6.0999999404 1.5 2.1905323138e-06 -5.8999999374 1.299999997 1.1353913365e-08 
-5.8999999374 1.5 2.3911131848e-06 -5.6999999344 1.299999997 1.2469863364e-08 -5.6999999344 1.5 2.6284953947e-06 
-5.4999999315 1.299999997 1.3644021024e-08 -5.4999999315 1.5 2.8747879242e-06 -5.2999999285 1.299999997 1.5277700882e-08 
-5.2999999285 1.5 3.2142240798e-06 -5.0999999255 1.299999997 1.7282909326e-08 -5.0999999255 1.5 3.6374453884e-06 
-4.8999999225 1.299999997 1.9851322364e-08 -4.8999999225 1.5 4.1802341002e-06 -4.6999999195 1.299999997 2.329807991e-08 
-4.6999999195 1.5 4.9014583965e-06 -4.4999999166 1.299999997 2.8066333257e-08 -4.4999999166 1.5 5.9025178416e-06 
-4.2999999136 1.299999997 3.499350143e-08 -4.2999999136 1.5 7.3554924711e-06 -4.0999999106 1.299999997 4.4736008675e-08 
-4.0999999106 1.5 9.4343968158e-06 -3.8999999076 1.299999997 4.4859586268e-08 -3.8999999076 1.5 1.0337053027e-05 
-3.6999999046 1.299999997 -7.5729772107e-06 -3.6999999046 1.5 -0.0001466779504 -3.4999999017 1.299999997 0.12612855434 
-3.4999999017 1.5 0.10799186677 -3.2999998987 1.299999997 0.28606125712 -3.2999998987 1.5 0.2491863817 
-3.0999998957 1.299999997 0.37464648485 -3.0999998957 1.5 0.38305571675 -2.8999998927 1.299999997 0.39244168997 
-2.8999998927 1.5 0.42139530182 -2.6999998897 1.299999997 0.36719620228 -2.6999998897 1.5 0.40130838752 
-2.4999998868 1.299999997 0.33923625946 -2.4999998868 1.5 0.37819835544 -2.2999998838 1.299999997 0.32892349362 
-2.2999998838 1.5 0.34524029493 -2.0999998808 1.299999997 0.30701631308 -2.0999998808 1.5 0.31636568904 
-1.8999998778 1.299999997 0.2799410224 -1.8999998778 1.5 0.32469910383 -1.6999998748 1.299999997 0.26640835404 
-1.6999998748 1.5 0.29974764585 -1.4999998719 1.299999997 0.23330229521 -1.4999998719 1.5 0.27182561159 
-1.2999998689 1.299999997 0.20528158545 -1.2999998689 1.5 0.24734319746 -1.0999998659 1.299999997 0.17295633256 
-1.0999998659 1.5 0.2166607976 -0.89999986291 1.299999997 0.15012282133 -0.89999986291 1.5 0.18729224801 
-0.69999985993 1.299999997 0.11436620355 -0.69999985993 1.5 0.16458268464 -0.49999985695 1.299999997 0.090280137956 
-0.49999985695 1.5 0.14333041012 -0.29999985397 1.299999997 0.079202197492 -0.29999985397 1.5 0.12865009904 
-0.099999850988 1.299999997 0.083886146545 -0.099999850988 1.5 0.13605388999 0.10000015199 1.299999997 0.097786292434 
0.10000015199 1.5 0.15684975684 0.30000015497 1.299999997 0.12854489684 0.30000015497 1.5 0.19896392524 
0.50000015795 1.299999997 0.19978386164 0.50000015795 1.5 0.27765759826 0.70000016093 1.299999997 0.276691854 
0.70000016093 1.5 0.2799937129 0.90000016391 1.299999997 0.28372615576 0.90000016391 1.5 0.28347417712 
1.1000001669 1.299999997 0.28700006008 1.1000001669 1.5 0.28701299429 1.3000001699 1.299999997 0.28700006008 
1.3000001699 1.5 0.28701177239 1.5000001729 1.299999997 0.28700006008 1.5000001729 1.5 0.28701028228 
1.7000001758 1.299999997 0.28700003028 1.7000001758 1.5 0.28700885177 1.9000001788 1.299999997 0.28700003028 
1.9000001788 1.5 0.28700762987 2.1000001818 1.299999997 0.28700003028 2.1000001818 1.5 0.28700661659 
2.3000001848 1.299999997 0.28700003028 2.3000001848 1.5 0.28700578213 2.5000001878 1.299999997 0.28700003028 
2.5000001878 1.5 0.28700518608 2.7000001907 1.299999997 0.28700003028 2.7000001907 1.5 0.28700461984 
2.9000001937 1.299999997 0.28700003028 2.9000001937 1.5 0.287004143 3.1000001967 1.299999997 0.28700003028 
3.1000001967 1.5 0.28700372577 3.3000001997 1.299999997 0.28700003028 3.3000001997 1.5 0.28700339794 
3.5000002027 1.299999997 0.28700000048 3.5000002027 1.5 0.28700312972 3.7000002056 1.299999997 0.28700000048 
3.7000002056 1.5 0.2870028913 3.9000002086 1.299999997 0.28700000048 3.9000002086 1.5 0.28700268269 
4.1000002116 1.299999997 0.28700000048 4.1000002116 1.5 0.28700253367 4.3000002146 1.299999997 0.28700000048 
4.3000002146 1.5 0.28700241446 4.5000002176 1.299999997 0.28700000048 4.5000002176 1.5 0.28700232506 
4.7000002205 1.299999997 0.28700000048 4.7000002205 1.5 0.28700229526 4.9000002235 1.299999997 0.28700000048 
4.9000002235 1.5 0.28700241446 5.08 1.299999997 0.28700017929 -9.899999997 1.099999994 5.7989391067e-11 
-10.1 1.099999994 1.9679282648e-09 -9.699999994 1.099999994 2.888556061e-11 -9.4999999911 1.099999994 -7.4942274608e-12 
-9.2999999881 1.099999994 1.6007195569e-12 -9.0999999851 1.099999994 8.8912210927e-11 -8.8999999821 1.099999994 2.5247581803e-11 
-8.6999999791 1.099999994 4.8894444049e-11 -8.4999999762 1.099999994 4.434697054e-11 -8.2999999732 1.099999994 1.7062129487e-11 
-8.0999999702 1.099999994 5.8898885769e-11 -7.8999999672 1.099999994 2.4338087101e-11 -7.6999999642 1.099999994 2.3428592399e-11 
-7.4999999613 1.099999994 4.0708991733e-11 -7.2999999583 1.099999994 3.3433034119e-11 -7.0999999553 1.099999994 4.3437475838e-11 
-6.8999999523 1.099999994 4.0708991733e-11 -6.6999999493 1.099999994 7.9817263909e-11 -6.4999999464 1.099999994 4.434697054e-11 
-6.2999999434 1.099999994 8.5728979471e-11 -6.0999999404 1.099999994 5.5715654312e-11 -5.8999999374 1.099999994 8.0726758611e-11 
-5.6999999344 1.099999994 8.1636253313e-11 -5.4999999315 1.099999994 6.7084338085e-11 -5.2999999285 1.099999994 8.8457463576e-11 
-5.0999999255 1.099999994 1.030093788e-10 -4.8999999225 1.099999994 1.1210432582e-10 -4.6999999195 1.099999994 1.2574674635e-10 
-4.4999999166 1.099999994 1.4279977201e-10 -4.2999999136 1.099999994 1.8145329683e-10 -4.0999999106 1.099999994 2.3283974748e-10 
-3.8999999076 1.099999994 1.9589152522e-10 -3.6999999046 1.099999994 -8.2457509052e-06 -3.4999999017 1.099999994 0.14279773831 
-3.2999998987 1.099999994 0.31201174855 -3.0999998957 1.099999994 0.36408799887 -2.8999998927 1.099999994 0.35792157054 
-2.6999998897 1.099999994 0.33521261811 -2.4999998868 1.099999994 0.32014036179 -2.2999998838 1.099999994 0.30518078804 
-2.0999998808 1.099999994 0.28633624315 -1.8999998778 1.099999994 0.25885534286 -1.6999998748 1.099999994 0.23259860277 
-1.4999998719 1.099999994 0.19522224367 -1.2999998689 1.099999994 0.15535268188 -1.0999998659 1.099999994 0.1097323671 
-0.89999986291 1.099999994 0.071620844305 -0.69999985993 1.099999994 0.032459154725 -0.49999985695 1.099999994 0.0040431562811 
-0.29999985397 1.099999994 0.00079407443991 -0.099999850988 1.099999994 -0.00084579060785 0.10000015199 1.099999994 0.011664403602 
0.30000015497 1.099999994 0.059835709631 0.50000015795 1.099999994 0.11321287602 0.70000016093 1.099999994 0.22431245446 
0.90000016391 1.099999994 0.28369376063 1.1000001669 1.099999994 0.28700000048 1.3000001699 1.099999994 0.28700000048 
1.5000001729 1.099999994 0.28700000048 1.7000001758 1.099999994 0.28700000048 1.9000001788 1.099999994 0.28700000048 
2.1000001818 1.099999994 0.28700000048 2.3000001848 1.099999994 0.28700000048 2.5000001878 1.099999994 0.28700000048 
2.7000001907 1.099999994 0.28700000048 2.9000001937 1.099999994 0.28700000048 3.1000001967 1.099999994 0.28700000048 
3.3000001997 1.099999994 0.28700000048 3.5000002027 1.099999994 0.28700000048 3.7000002056 1.099999994 0.28700000048 
3.9000002086 1.099999994 0.28700000048 4.1000002116 1.099999994 0.28700000048 4.3000002146 1.099999994 0.28700000048 
4.5000002176 1.099999994 0.28700000048 4.7000002205 1.099999994 0.28700000048 4.9000002235 1.099999994 0.28700000048 
5.08 1.099999994 0.28700017929 -9.899999997 0.89999999106 3.9799497031e-11 -10.1 0.89999999106 1.5259138397e-09 
-9.699999994 0.89999999106 2.7066571207e-11 -9.4999999911 0.89999999106 -4.5693004935e-11 -9.2999999881 0.89999999106 6.7084338085e-11 
-9.0999999851 0.89999999106 1.0695666575e-11 -8.8999999821 0.89999999106 3.5597969017e-11 -8.6999999791 0.89999999106 7.0576877675e-12 
-8.4999999762 0.89999999106 -6.5847327591e-12 -8.2999999732 0.89999999106 2.5563551276e-11 -8.0999999702 0.89999999106 -3.2050584409e-11 
-7.8999999672 0.89999999106 2.9795055312e-11 -7.6999999642 0.89999999106 -4.6602499637e-11 -7.4999999613 0.89999999106 4.0708991733e-11 
-7.2999999583 0.89999999106 4.434697054e-11 -7.0999999553 0.89999999106 -1.204170097e-11 -6.8999999523 0.89999999106 1.8881118891e-11 
-6.6999999493 0.89999999106 -3.4015013028e-12 -6.4999999464 0.89999999106 1.2514655978e-11 -6.2999999434 0.89999999106 9.331424522e-12 
-6.0999999404 0.89999999106 1.8881118891e-11 -5.8999999374 0.89999999106 2.2064350347e-11 -5.6999999344 0.89999999106 -5.6752380573e-12 
[...]
CELL_DATA 532
FIELD FieldData 4
Water_Depth_m 1 532 float
0.640001 0.64 0.64 0.64 0.639999 0.639998 0.639998 0.639997 0.639996 
0.639995 0.639994 0.639994 0.639993 0.639992 0.639992 0.639991 0.639991 0.639992 
0.639993 0.639995 0.639999 0.640005 0.640015 0.64003 0.640055 0.640093 0.640151 
0.64024 0.640372 0.640562 0.640823 0.641259 0.640907 0.538357 0.391537 0.258722 
0.262123 0.290389 0.305173 0.348473 0.411491 0.368987 0.399682 0.428282 0.459683 
0.485481 0.516885 0.544266 0.554326 0.555139 0.553589 0.540521 0.508469 0.443715 
0.366198 0.359139 0.355628 0.355819 0.355963 0.356072 0.356154 0.356218 0.35627 
0.356314 0.356352 0.356387 0.356419 0.356449 0.356479 0.356507 0.356535 0.356563 
0.35659 0.356609 0.356633 0.34913 0.64 0.64 0.64 0.64 0.639999 
0.639998 0.639998 0.639997 0.639996 0.639995 0.639994 0.639993 0.639993 0.639992 
0.639991 0.639991 0.639991 0.639991 0.639992 0.639993 0.639996 0.640001 0.640009 
0.640021 0.640041 0.640072 0.640121 0.640195 0.640309 0.640481 0.640734 0.641076 
0.64052 0.520497 0.355989 0.274845 0.296413 0.31444 0.331249 0.350614 0.378354 
0.403662 0.44067 0.478367 0.524118 0.555263 0.604643 0.63487 0.641296 0.64296 
0.642516 0.622937 0.580876 0.53697 0.423919 0.358944 0.355663 0.355856 0.355993 
0.356093 0.356169 0.356228 0.356277 0.356318 0.356355 0.356388 0.35642 0.35645 
0.356479 0.356507 0.356535 0.356563 0.35659 0.356609 0.356633 0.349129 0.64 
0.64 0.64 0.64 0.639999 0.639998 0.639997 0.639996 0.639996 0.639995 
0.639994 0.639993 0.639992 0.639991 0.639991 0.63999 0.639989 0.639989 0.639989 
0.63999 0.639992 0.639995 0.639999 0.640007 0.640019 0.640039 0.640071 0.640121 
0.640201 0.640328 0.640535 0.640843 0.640364 0.504659 0.329071 0.277253 0.301455 
0.320708 0.333012 0.351598 0.38875 0.416002 0.454983 0.505094 0.553645 0.592545 
0.634194 0.640203 0.640948 0.64197 0.643339 0.644736 0.612021 0.581392 0.451998 
0.359034 0.355773 0.355945 0.35606 0.356141 0.356202 0.356251 0.356292 0.356328 
0.356362 0.356393 0.356423 0.356452 0.35648 0.356508 0.356536 0.356563 0.35659 
0.356609 0.356633 0.349129 0.64 0.64 0.639999 0.639999 0.639998 0.639997 
0.639996 0.639995 0.639994 0.639993 0.639992 0.639991 0.63999 0.639989 0.639988 
0.639988 0.639987 0.639986 0.639986 0.639986 0.639986 0.639987 0.639989 0.639992 
0.639997 0.640006 0.640021 0.640046 0.640086 0.640154 0.640271 0.640458 0.640181 
0.511398 0.343628 0.277543 0.300588 0.321039 0.331109 0.350158 0.382891 0.415874 
0.455326 0.505013 0.553993 0.590174 0.619776 0.639581 0.641316 0.640259 0.644361 
0.645096 0.636134 0.583244 0.450857 0.358673 0.355979 0.356087 0.356157 0.356206 
0.356246 0.35628 0.356312 0.356342 0.35637 0.356399 0.356427 0.356454 0.356482 
0.356509 0.356536 0.356564 0.356591 0.356609 0.356633 0.349129 0.64 0.639999 
0.639998 0.639997 0.639996 0.639995 0.639994 0.639993 0.639992 0.639991 0.63999 
0.639989 0.639988 0.639987 0.639986 0.639985 0.639984 0.639984 0.639983 0.639982 
0.639982 0.639981 0.639981 0.639982 0.639983 0.639985 0.639988 0.639995 0.640005 
0.640024 0.640057 0.640099 0.640059 0.541658 0.402693 0.295622 0.277332 0.29776 
0.301098 0.320591 0.351539 0.387277 0.429255 0.471848 0.518848 0.543793 0.560561 
0.588655 0.604805 0.5941 0.637931 0.646504 0.637464 0.564757 0.447944 0.359168 
0.356251 0.356262 0.35627 0.356281 0.356295 0.356313 0.356333 0.356356 0.35638 
0.356405 0.356431 0.356457 0.356484 0.35651 0.356537 0.356564 0.356591 0.35661 
0.356633 0.349129 0.64 0.639999 0.639998 0.639997 0.639996 0.639995 0.639993 
0.639993 0.639992 0.639991 0.639989 0.639988 0.639987 0.639987 0.639986 0.639985 
0.639984 0.639983 0.639982 0.639981 0.63998 0.639979 0.639978 0.639978 0.639977 
0.639976 0.639974 0.639972 0.639968 0.639962 0.63995 0.639918 0.639962 0.585657 
0.474421 0.366207 0.281612 0.246076 0.256578 0.263103 0.280491 0.296662 0.333256 
0.362762 0.394853 0.408847 0.42292 0.466686 0.469924 0.465251 0.578596 0.623181 
0.605233 0.511389 0.428004 0.360045 0.356523 0.356433 0.356379 0.35635 0.35634 
0.356342 0.356352 0.356368 0.356388 0.35641 0.356434 0.356459 0.356485 0.356512 
0.356538 0.356565 0.356592 0.35661 0.356633 0.349129 0.64 0.639999 0.639998 
0.639997 0.639996 0.639995 0.639994 0.639993 0.639992 0.639991 0.63999 0.639989 
0.639988 0.639987 0.639987 0.639986 0.639985 0.639984 0.639983 0.639982 0.639981 
0.63998 0.639979 0.639978 0.639977 0.639975 0.639972 0.639967 0.639959 0.639946 
0.63992 0.639874 0.645576 0.64504 0.598152 0.521145 0.454702 0.410674 0.364267 
0.346462 0.353625 0.356516 0.353156 0.355379 0.355612 0.355779 0.353178 0.360519 
0.366116 0.37303 0.500932 0.533683 0.519607 0.434857 0.389653 0.360721 0.356792 
0.356601 0.356484 0.356417 0.356382 0.356369 0.35637 0.35638 0.356396 0.356415 
0.356438 0.356462 0.356487 0.356513 0.356539 0.356566 0.356593 0.356609 0.356632 
0.349131 
Water_Elev_m 1 532 float
0.64 0.64 0.64 0.639999 0.639999 0.639998 0.639997 0.639997 0.639996 
0.639995 0.639994 0.639993 0.639992 0.639992 0.639991 0.639991 0.639991 0.639991 
0.639992 0.639995 0.639998 0.640004 0.640014 0.64003 0.640054 0.640092 0.64015 
0.640238 0.64037 0.64056 0.64082 0.641135 0.640318 0.637698 0.632722 0.631949 
0.6347 0.636299 0.637342 0.638575 0.638276 0.638988 0.639506 0.640005 0.640419 
0.640743 0.64098 0.641323 0.641633 0.641941 0.642412 0.642843 0.642781 0.642239 
0.642234 0.642384 0.642625 0.642816 0.642961 0.643069 0.643152 0.643217 0.643269 
0.643313 0.643351 0.643386 0.643418 0.643449 0.643478 0.643507 0.643535 0.643562 
0.64359 0.643609 0.643632 0.636129 0.64 0.64 0.64 0.64 0.639999 
0.639998 0.639998 0.639997 0.639996 0.639995 0.639994 0.639993 0.639993 0.639992 
0.639991 0.639991 0.639991 0.639991 0.639992 0.639993 0.639996 0.640001 0.640009 
0.640021 0.640041 0.640072 0.64012 0.640195 0.640309 0.640481 0.640734 0.64107 
0.640188 0.637167 0.633462 0.633169 0.635228 0.636532 0.637208 0.638051 0.638593 
0.638985 0.639546 0.640011 0.640398 0.640549 0.640897 0.641086 0.641279 0.641543 
0.642007 0.642872 0.643154 0.642435 0.642093 0.642386 0.642663 0.642856 0.642993 
0.643094 0.643169 0.643228 0.643277 0.643318 0.643355 0.643388 0.64342 0.64345 
0.643479 0.643507 0.643535 0.643563 0.64359 0.643609 0.643633 0.636129 0.64 
0.64 0.64 0.64 0.639999 0.639998 0.639997 0.639996 0.639996 0.639995 
0.639994 0.639993 0.639992 0.639991 0.639991 0.63999 0.639989 0.639989 0.639989 
0.63999 0.639992 0.639995 0.639999 0.640007 0.640019 0.640039 0.640071 0.640121 
0.640201 0.640328 0.640535 0.640837 0.640014 0.637134 0.634522 0.634454 0.635854 
0.636783 0.637209 0.637874 0.638646 0.639053 0.639581 0.64002 0.640327 0.640373 
0.640544 0.640557 0.640548 0.640674 0.641162 0.642744 0.64357 0.642942 0.642062 
0.642488 0.642773 0.642946 0.64306 0.643141 0.643202 0.643251 0.643292 0.643328 
0.643362 0.643393 0.643423 0.643452 0.64348 0.643508 0.643536 0.643563 0.64359 
0.643609 0.643633 0.636129 0.64 0.64 0.639999 0.639998 0.639998 0.639997 
0.639996 0.639995 0.639994 0.639993 0.639992 0.639991 0.63999 0.639989 0.639988 
0.639988 0.639987 0.639986 0.639986 0.639986 0.639986 0.639987 0.639989 0.639992 
0.639997 0.640006 0.640021 0.640046 0.640086 0.640154 0.640271 0.640451 0.639834 
0.637876 0.635873 0.63537 0.636381 0.637115 0.637256 0.637894 0.638646 0.639156 
0.639601 0.639943 0.640102 0.640033 0.640001 0.639952 0.639769 0.639548 0.639233 
0.642883 0.644033 0.643473 0.642498 0.64279 0.642979 0.643087 0.643157 0.643206 
0.643246 0.64328 0.643312 0.643342 0.64337 0.643399 0.643427 0.643454 0.643482 
0.643509 0.643536 0.643564 0.643591 0.643609 0.643633 0.636129 0.64 0.639999 
0.639998 0.639997 0.639996 0.639995 0.639994 0.639993 0.639992 0.639991 0.63999 
0.639989 0.639988 0.639987 0.639986 0.639985 0.639984 0.639984 0.639983 0.639982 
0.639982 0.639981 0.639981 0.639982 0.639983 0.639985 0.639988 0.639995 0.640005 
0.640024 0.640057 0.640092 0.639731 0.638775 0.637385 0.636254 0.63671 0.637258 
0.637452 0.637959 0.638688 0.639122 0.639547 0.639763 0.639781 0.639616 0.639498 
0.639451 0.639434 0.63942 0.640777 0.645524 0.645057 0.644203 0.643205 0.643223 
0.643251 0.643262 0.64327 0.643281 0.643295 0.643313 0.643333 0.643356 0.64338 
0.643405 0.643431 0.643457 0.643484 0.64351 0.643537 0.643564 0.643591 0.64361 
0.643633 0.636129 0.64 0.639999 0.639998 0.639997 0.639996 0.639995 0.639993 
0.639993 0.639992 0.639991 0.639989 0.639988 0.639987 0.639987 0.639986 0.639985 
0.639984 0.639983 0.639982 0.639981 0.63998 0.639979 0.639978 0.639978 0.639977 
0.639976 0.639974 0.639972 0.639968 0.639962 0.63995 0.639913 0.639727 0.639287 
0.638443 0.637433 0.637092 0.637177 0.637734 0.638073 0.638565 0.638997 0.639426 
0.639578 0.639545 0.639478 0.639455 0.639452 0.639439 0.639428 0.641437 0.646169 
0.645569 0.644753 0.64389 0.643657 0.643523 0.643433 0.643379 0.64335 0.64334 
0.643342 0.643352 0.643368 0.643388 0.64341 0.643434 0.643459 0.643485 0.643512 
0.643538 0.643565 0.643592 0.64361 0.643633 0.636129 0.64 0.639999 0.639998 
0.639997 0.639996 0.639995 0.639994 0.639993 0.639992 0.639991 0.63999 0.639989 
0.639988 0.639987 0.639986 0.639985 0.639984 0.639983 0.639982 0.639981 0.63998 
0.639979 0.639978 0.639977 0.639975 0.639973 0.63997 0.639964 0.639956 0.63994 
0.639912 0.639855 0.639727 0.639441 0.638917 0.638251 0.637837 0.637662 0.637811 
0.638151 0.638535 0.638923 0.639264 0.639443 0.639472 0.639464 0.639459 0.639455 
0.639448 0.63944 0.642464 0.646593 0.646044 0.645333 0.644608 0.644091 0.643788 
0.643597 0.643481 0.643415 0.643381 0.643368 0.643369 0.64338 0.643395 0.643415 
0.643438 0.643462 0.643487 0.643513 0.643539 0.643566 0.643593 0.643609 0.643632 
0.636129 
Velocity_cell_m_p_s 3 532 double
-0.26717725396 -0.0001914971217 -0 -0.26755937934 -0.00019068656547 -0 -0.26794365048 -0.00019355129916 -0 
-0.26833444834 -0.00019712108769 -0 -0.26873204112 -0.00020030286396 -0 -0.26913541555 -0.00020281801699 -0 
-0.26954323053 -0.00020468728326 -0 -0.26995426416 -0.00020601224969 -0 -0.27036750317 -0.00020689048688 -0 
-0.27078214288 -0.00020739101456 -0 -0.27119743824 -0.00020753752324 -0 -0.2716126442 -0.00020731127006 -0 
-0.27202692628 -0.00020663595933 -0 -0.27243927121 -0.00020536617376 -0 -0.27284815907 -0.00020326126833 -0 
-0.27325156331 -0.00019994228205 -0 -0.27364635468 -0.00019483563665 -0 -0.2740278542 -0.00018701127556 -0 
-0.27438932657 -0.00017512316117 -0 -0.27472028136 -0.0001570986351 -0 -0.27500504255 -0.00012977908773 -0 
-0.27521970868 -8.8257773314e-05 -0 -0.27532795072 -2.5360648578e-05 -0 -0.27527090907 7.3880415584e-05 -0 
-0.27495524287 0.00022851626272 -0 -0.27423885465 0.00046738013043 -0 -0.27290976048 0.00083051988622 -0 
-0.27065837383 0.0013745228061 -0 -0.26704636216 0.00217066193 -0 -0.26149711013 0.0032869905699 -0 
-0.25337150693 0.0047253067605 -0 -0.24236683547 0.0062118852511 -0 -0.25268873572 0.0066772531718 -0 
-0.31642258167 0.006671232637 -0 -0.43090578914 0.018299106508 -0 -0.51672005653 0.014417715371 -0 
-0.50843334198 0.00087415461894 -0 -0.46534308791 -0.0049981274642 -0 -0.43906795979 -0.0087021598592 -0 
-0.4144449234 -0.011284354143 -0 -0.40430426598 -0.0010905852541 -0 -0.40088066459 -0.0060721910559 -0 
-0.38712772727 -0.00588765461 -0 -0.37540555 -0.0066864732653 -0 -0.36452773213 -0.0068115470931 -0 
-0.35553926229 -0.0076425476 -0 -0.34864631295 -0.0043782843277 -0 -0.34125372767 -0.0034170486033 -0 
-0.33260971308 -0.0002190474188 -0 -0.32420220971 0.0050758696161 -0 -0.31304255128 0.010438461788 -0 
-0.29964786768 0.016959156841 -0 -0.29487851262 0.015937570482 -0 -0.30636838078 0.0072301565669 -0 
-0.31669861078 0.0013868724927 -0 -0.3154245317 0.0033349990845 -0 -0.3103223145 0.0031862074975 -0 
-0.30448004603 0.0025112316944 -0 -0.30002853274 0.0018327141879 -0 -0.29682815075 0.0012873359956 -0 
-0.29459440708 0.00088511663489 -0 -0.29306012392 0.00060079229297 -0 -0.29201519489 0.00040450209053 -0 
-0.29130601883 0.00027088928618 -0 -0.2908244431 0.00018073778483 -0 -0.29049617052 0.00012024514581 -0 
-0.29027056694 7.977385394e-05 -0 -0.29011362791 5.2736595535e-05 -0 -0.29000261426 3.4644657717e-05 -0 
-0.28992235661 2.2488455215e-05 -0 -0.28986290097 1.4257842849e-05 -0 -0.28981757164 8.6422624008e-06 -0 
-0.28978517652 4.8243396122e-06 -0 -0.2897606194 2.3417021566e-06 -0 -0.28974783421 8.909963185e-07 -0 
-0.41044712067 5.5697347534e-07 -0 -0.26799991727 -0.00057863252005 -0 -0.26839804649 -0.00058391789207 -0 
-0.26880961657 -0.00059608183801 -0 -0.26923272014 -0.00060828117421 -0 -0.2696647644 -0.00061840354465 -0 
-0.27010336518 -0.00062616949435 -0 -0.27054670453 -0.00063188315835 -0 -0.27099350095 -0.00063594675157 -0 
-0.27144268155 -0.00063869159203 -0 -0.27189350128 -0.00064033333911 -0 -0.27234530449 -0.0006409533089 -0 
-0.27279740572 -0.00064049940556 -0 -0.27324911952 -0.00063875771593 -0 -0.27369952202 -0.00063531432534 -0 
-0.27414736152 -0.00062948174309 -0 -0.27459084988 -0.00062017753953 -0 -0.27502730489 -0.00060575484531 -0 
-0.27545279264 -0.00058360554976 -0 -0.27586144209 -0.00054984795861 -0 -0.27624446154 -0.00049860053696 -0 
-0.27658849955 -0.0004208937462 -0 -0.27687349916 -0.0003029408399 -0 -0.27706882358 -0.0001239872654 -0 
-0.27713045478 0.00015248345153 -0 -0.27699252963 0.00057924544672 -0 -0.27654972672 0.0012381785782 -0 
-0.275636971 0.0022439521272 -0 -0.27399927378 0.0037636009511 -0 -0.2712444663 0.0060214577243 -0 
-0.2667760849 0.0092745311558 -0 -0.2597066164 0.013701415621 -0 -0.24886269867 0.018950916827 -0 
-0.25998792052 0.023546742275 -0 -0.33227533102 0.025402488187 -0 -0.43709850311 0.040611378849 -0 
-0.49812200665 0.027931438759 -0 -0.48892706633 -6.3715648139e-05 -0 -0.45503643155 -0.013741497882 -0 
-0.43474087119 -0.020885085687 -0 -0.41927814484 -0.024746442214 -0 -0.40420782566 -0.012017088942 -0 
-0.39386951923 -0.017926132306 -0 -0.38289952278 -0.018992617726 -0 -0.37048640847 -0.020572056994 -0 
-0.3597741127 -0.021339707077 -0 -0.35309416056 -0.021759519354 -0 -0.34674185514 -0.017086915672 -0 
-0.33970963955 -0.012067145668 -0 -0.33486586809 -0.0019181277603 -0 -0.32877939939 0.014153982513 -0 
-0.31844949722 0.031931843609 -0 -0.29875257611 0.050351779908 -0 -0.28242695332 0.048237163574 -0 
-0.29391184449 0.02902665548 -0 -0.31498089433 0.010403845459 -0 -0.31729650497 0.012089964002 -0 
-0.30955570936 0.010089790449 -0 -0.30316519737 0.0075513198972 -0 -0.29882457852 0.0053755245171 -0 
-0.29588979483 0.003725273069 -0 -0.29391205311 0.0025411969982 -0 -0.29258161783 0.0017165307654 -0 
-0.29168665409 0.0011521257693 -0 -0.29108342528 0.00076999666635 -0 -0.29067504406 0.00051305064699 -0 
-0.29039654136 0.00034101959318 -0 -0.29020449519 0.00022610658198 -0 -0.29007002711 0.00014939704852 -0 
-0.28997394443 9.8091906693e-05 -0 -0.28990361094 6.3602084992e-05 -0 -0.28985071182 4.0204016841e-05 -0 
-0.28980985284 2.4162265618e-05 -0 -0.28978058696 1.3166976714e-05 -0 -0.28975847363 5.9656472331e-06 -0 
-0.28974753618 1.9109481855e-06 -0 -0.41044807434 1.0580292837e-06 -0 -0.24549415708 -0.00091732060537 -0 
-0.24580091238 -0.00095021579182 -0 -0.24613922834 -0.00097959802952 -0 -0.24649427831 -0.0010027067037 -0 
-0.24685868621 -0.0010199933313 -0 -0.24722869694 -0.0010326495394 -0 -0.24760237336 -0.0010418164311 -0 
-0.24797862768 -0.0010483760852 -0 -0.24835680425 -0.001052935957 -0 -0.24873647094 -0.0010558569338 -0 
-0.24911724031 -0.0010572798783 -0 -0.24949879944 -0.0010571340099 -0 -0.24988076091 -0.0010551112937 -0 
-0.25026267767 -0.0010506103281 -0 -0.25064384937 -0.00104262901 -0 -0.25102344155 -0.0010295908432 -0 
-0.2513999939 -0.0010090800934 -0 -0.25177150965 -0.00097737251781 -0 -0.25213488936 -0.00092881364981 -0 
-0.2524856329 -0.00085486838361 -0 -0.25281703472 -0.00074262771523 -0 -0.25311902165 -0.00057247723453 -0 
-0.25337716937 -0.00031470623799 -0 -0.25357168913 7.6242875366e-05 -0 -0.25368025899 0.00066749518737 -0 
-0.25367066264 0.0015749769518 -0 -0.25348001719 0.0029680973385 -0 -0.25298887491 0.0051027736627 -0 
-0.25197264552 0.0083533599973 -0 -0.24999243021 0.013240467757 -0 -0.24616467953 0.020421277732 -0 
-0.23871284723 0.030410682783 -0 -0.25265938044 0.043734975159 -0 -0.32958897948 0.050391599536 -0 
-0.42623865604 0.044595129788 -0 -0.4705979228 0.018930783495 -0 -0.46238210797 -0.0064812540077 -0 
-0.43819496036 -0.020349668339 -0 -0.42382231355 -0.029003050178 -0 -0.41240599751 -0.031314328313 -0 
-0.39585253596 -0.029940094799 -0 -0.38140711188 -0.031107096002 -0 -0.36914265156 -0.034901928157 -0 
-0.35558977723 -0.037563532591 -0 -0.344170928 -0.039268206805 -0 -0.33809402585 -0.03748934716 -0 
-0.33414259553 -0.03300030157 -0 -0.33113920689 -0.021220963448 -0 -0.33146125078 -0.0049843518063 -0 
-0.33079642057 0.018917521462 -0 -0.32303857803 0.049480952322 -0 -0.29623684287 0.094510041177 -0 
-0.26469776034 0.081638231874 -0 -0.26944857836 0.057501465082 -0 -0.30329155922 0.032500378788 -0 
-0.31537166238 0.024411497638 -0 -0.3059040904 0.01755044423 -0 -0.2998457551 0.012264954858 -0 
-0.29624161124 0.0084195267409 -0 -0.2940095365 0.0057134591043 -0 -0.29259046912 0.0038475370966 -0 
-0.29167154431 0.0025776908733 -0 -0.29106777906 0.0017208615318 -0 -0.29066592455 0.0011459863745 -0 
-0.29039475322 0.00076173024718 -0 -0.29020884633 0.00050548033323 -0 -0.2900788784 0.00033477309626 -0 
-0.28998577595 0.00022099699709 -0 -0.2899171412 0.00014495072537 -0 -0.28986492753 9.3774106062e-05 -0 
-0.28982397914 5.8899975556e-05 -0 -0.28979113698 3.4715318179e-05 -0 -0.28976762295 1.7792768631e-05 -0 
-0.28975009918 6.4417367867e-06 -0 -0.28974321485 2.471295204e-07 -0 -0.41044685245 -3.9421547626e-07 -0 
-0.19625711441 -0.0010804582853 -0 -0.19631394744 -0.0011506655719 -0 -0.19639283419 -0.0011962519493 -0 
-0.19647830725 -0.0012262734817 -0 -0.19656445086 -0.0012465218315 -0 -0.19664931297 -0.001260452671 -0 
-0.19673235714 -0.0012701512314 -0 -0.19681355357 -0.0012768922606 -0 -0.19689303637 -0.0012814452639 -0 
-0.19697089493 -0.0012842358556 -0 -0.19704729319 -0.0012854248052 -0 -0.19712232053 -0.0012849349296 -0 
-0.19719611108 -0.0012824338628 -0 -0.19726879895 -0.0012772745686 -0 -0.19734057784 -0.0012683826499 -0 
-0.19741173089 -0.001254070201 -0 -0.19748274982 -0.0012317457004 -0 -0.19755427539 -0.0011974638328 -0 
-0.19762736559 -0.0011452320032 -0 -0.19770370424 -0.0010660021799 -0 -0.19778591394 -0.00094615481794 -0 
-0.19787822664 -0.00076519179856 -0 -0.19798733294 -0.00049243977992 -0 -0.19812430441 -8.2722581283e-05 -0 
-0.19830742478 0.00052619981579 -0 -0.19857122004 0.0014482549159 -0 -0.19896285236 0.002871877281 -0 
-0.19953075051 0.0050873537548 -0 -0.20030854642 0.0085516115651 -0 -0.20124751329 0.013994015753 -0 
-0.20201098919 0.022598464042 -0 -0.20134717226 0.036285921931 -0 -0.2209700346 0.058268792927 -0 
-0.29344284534 0.069425024092 -0 -0.3827804625 0.046238671988 -0 -0.42978221178 0.0054214084521 -0 
-0.42851212621 -0.018085880205 -0 -0.40871369839 -0.029712701216 -0 -0.3979010582 -0.036976408213 -0 
-0.38752779365 -0.041907887906 -0 -0.36801588535 -0.045086037368 -0 -0.34800842404 -0.04783776775 -0 
-0.32981899381 -0.051947738975 -0 -0.31161350012 -0.055723927915 -0 -0.29518321157 -0.056804519147 -0 
-0.28375905752 -0.052599646151 -0 -0.27502113581 -0.044463831931 -0 -0.26656523347 -0.028779108077 -0 
-0.26478821039 -0.0086207250133 -0 -0.27370005846 0.012750847265 -0 -0.30358913541 0.030464285985 -0 
-0.27706256509 0.17273749411 -0 -0.22311338782 0.11322979629 -0 -0.23838877678 0.081268042326 -0 
-0.28200620413 0.055592611432 -0 -0.30273595452 0.035532355309 -0 -0.29741004109 0.023444671184 -0 
-0.29405230284 0.015569352545 -0 -0.29228016734 0.010351337492 -0 -0.29131451249 0.0068797296844 -0 
-0.29076823592 0.0045692254789 -0 -0.29044565558 0.0030328580178 -0 -0.29024598002 0.002011991106 -0 
-0.29011619091 0.0013340840815 -0 -0.29002726078 0.00088412879268 -0 -0.28996303678 0.00058550992981 -0 
-0.28991398215 0.00038722835598 -0 -0.28987452388 0.0002553431259 -0 -0.28984129429 0.00016724818852 -0 