# vtk DataFile Version 5.1
vtk output
ASCII
DATASET UNSTRUCTURED_GRID
POINTS 9536 double
-10.1 1.4499999993 -6.5110748437e-07 -10.049999999 1.4499999993 -4.742580586e-07 -10.049999999 1.5 1.7679119537e-06 
-9.9999999985 1.4499999993 -4.035521215e-07 -9.9999999985 1.5 1.5303246528e-06 -9.9499999978 1.4499999993 -3.6664664549e-07 
-9.9499999978 1.5 1.3956757812e-06 -9.899999997 1.4499999993 -3.4299978324e-07 -9.899999997 1.5 1.3077440144e-06 
-9.8499999963 1.4499999993 -3.2643606573e-07 -9.8499999963 1.5 1.2454199805e-06 -9.7999999955 1.4499999993 -3.1417971513e-07 
-9.7999999955 1.5 1.1994832221e-06 -9.7499999948 1.4499999993 -3.0487740332e-07 -9.7499999948 1.5 1.1643348898e-06 
-9.699999994 1.4499999993 -2.9767784326e-07 -9.699999994 1.5 1.1368626929e-06 -9.6499999933 1.4499999993 -2.9196075957e-07 
-9.6499999933 1.5 1.1152694697e-06 -9.5999999925 1.4499999993 -2.8744966585e-07 -9.5999999925 1.5 1.0980974139e-06 
-9.5499999918 1.4499999993 -2.8384442885e-07 -9.5499999918 1.5 1.084492169e-06 -9.4999999911 1.4499999993 -2.8108138395e-07 
-9.4999999911 1.5 1.0737182947e-06 -9.4499999903 1.4499999993 -2.7887858778e-07 -9.4499999903 1.5 1.065432798e-06 
-9.3999999896 1.4499999993 -2.7716146178e-07 -9.3999999896 1.5 1.0590517832e-06 -9.3499999888 1.4499999993 -2.7598093766e-07 
-9.3499999888 1.5 1.0543515145e-06 -9.2999999881 1.4499999993 -2.7515329748e-07 -9.2999999881 1.5 1.0511701021e-06 
-9.2499999873 1.4499999993 -2.7466580832e-07 -9.2499999873 1.5 1.0493238278e-06 -9.1999999866 1.4499999993 -2.7437295103e-07 
-9.1999999866 1.5 1.0485216535e-06 -9.1499999858 1.4499999993 -2.7442388273e-07 -9.1499999858 1.5 1.048774493e-06 
-9.0999999851 1.4499999993 -2.7480405151e-07 -9.0999999851 1.5 1.0498367828e-06 -9.0499999844 1.4499999993 -2.7528062674e-07 
-9.0499999844 1.5 1.0519904663e-06 -8.9999999836 1.4499999993 -2.7602095543e-07 -8.9999999836 1.5 1.0547626061e-06 
-8.9499999829 1.4499999993 -2.7695955396e-07 -8.9499999829 1.5 1.0582023151e-06 -8.8999999821 1.4499999993 -2.7799637792e-07 
-8.8999999821 1.5 1.062340516e-06 -8.8499999814 1.4499999993 -2.7923329071e-07 -8.8499999814 1.5 1.0671772088e-06 
-8.7999999806 1.4499999993 -2.8065028346e-07 -8.7999999806 1.5 1.0724395452e-06 -8.7499999799 1.4499999993 -2.8220915738e-07 
-8.7499999799 1.5 1.078471314e-06 -8.6999999791 1.4499999993 -2.8303134059e-07 -8.6999999791 1.5 1.0816945633e-06 
-8.6499999784 1.4499999993 -2.8484123504e-07 -8.6499999784 1.5 1.0884848507e-06 -8.5999999776 1.4499999993 -2.8673844099e-07 
-8.5999999776 1.5 1.0957735412e-06 -8.5499999769 1.4499999993 -2.8880026548e-07 -8.5499999769 1.5 1.1035178886e-06 
-8.4999999762 1.4499999993 -2.9096577236e-07 -8.4999999762 1.5 1.1117933809e-06 -8.4499999754 1.4499999993 -2.9324132811e-07 
-8.4499999754 1.5 1.1205809187e-06 -8.3999999747 1.4499999993 -2.9567786441e-07 -8.3999999747 1.5 1.1297249785e-06 
-8.3499999739 1.4499999993 -2.9820262171e-07 -8.3499999739 1.5 1.1394256489e-06 -8.2999999732 1.4499999993 -3.0080650504e-07 
-8.2999999732 1.5 1.1496074421e-06 -8.2499999724 1.4499999993 -3.0361775316e-07 -8.2499999724 1.5 1.1601848655e-06 
-8.1999999717 1.4499999993 -3.0648629945e-07 -8.1999999717 1.5 1.1712370451e-06 -8.1499999709 1.4499999993 -3.0947944651e-07 
-8.1499999709 1.5 1.1827439721e-06 -8.0999999702 1.4499999993 -3.1259810385e-07 -8.0999999702 1.5 1.1947211078e-06 
-8.0499999695 1.4499999993 -3.1591321203e-07 -8.0499999695 1.5 1.2071129731e-06 -7.9999999687 1.4499999993 -3.19266519e-07 
-7.9999999687 1.5 1.2200305264e-06 -7.949999968 1.4499999993 -3.2275534068e-07 -7.949999968 1.5 1.2334264738e-06 
-7.8999999672 1.4499999993 -3.2638240555e-07 -7.8999999672 1.5 1.2472471553e-06 -7.8499999665 1.4499999993 -3.3012861422e-07 
-7.8499999665 1.5 1.2616045524e-06 -7.7999999657 1.4499999993 -3.3401397559e-07 -7.7999999657 1.5 1.2764364783e-06 
-7.749999965 1.4499999993 -3.3799665289e-07 -7.749999965 1.5 1.2917814729e-06 -7.6999999642 1.4499999993 -3.4214758671e-07 
-7.6999999642 1.5 1.3075584775e-06 -7.6499999635 1.4499999993 -3.4645495361e-07 -7.6499999635 1.5 1.3239803138e-06 
-7.5999999627 1.4499999993 -3.5084690353e-07 -7.5999999627 1.5 1.3407868664e-06 -7.549999962 1.4499999993 -3.5546349864e-07 
-7.549999962 1.5 1.3582655356e-06 -7.4999999613 1.4499999993 -3.6018104765e-07 -7.4999999613 1.5 1.376303544e-06 
-7.4499999605 1.4499999993 -3.6505957723e-07 -7.4499999605 1.5 1.3948972537e-06 -7.3999999598 1.4499999993 -3.7002450881e-07 
-7.3999999598 1.5 1.4140202893e-06 -7.349999959 1.4499999993 -3.7520044316e-07 -7.349999959 1.5 1.4338718302e-06 
-7.2999999583 1.4499999993 -3.8055918594e-07 -7.2999999583 1.5 1.4542872577e-06 -7.2499999575 1.4499999993 -3.8607890929e-07 
-7.2499999575 1.5 1.475349336e-06 -7.1999999568 1.4499999993 -3.9182418732e-07 -7.1999999568 1.5 1.4971562905e-06 
-7.149999956 1.4499999993 -3.9767678572e-07 -7.149999956 1.5 1.5195507785e-06 -7.0999999553 1.4499999993 -4.0066356632e-07 
-7.0999999553 1.5 1.5310176877e-06 -7.0499999546 1.4499999993 -4.0681811697e-07 -7.0499999546 1.5 1.5546127088e-06 
-6.9999999538 1.4499999993 -4.1320640776e-07 -6.9999999538 1.5 1.578864385e-06 -6.9499999531 1.4499999993 -4.1973021325e-07 
-6.9499999531 1.5 1.6039928141e-06 -6.8999999523 1.4499999993 -4.2655142352e-07 -6.8999999523 1.5 1.6298988612e-06 
-6.8499999516 1.4499999993 -4.3358090807e-07 -6.8499999516 1.5 1.6566116301e-06 -6.7999999508 1.4499999993 -4.4074954531e-07 
-6.7999999508 1.5 1.6843084722e-06 -6.7499999501 1.4499999993 -4.4825105761e-07 -6.7499999501 1.5 1.7128643321e-06 
-6.6999999493 1.4499999993 -4.5597448661e-07 -6.6999999493 1.5 1.7424297312e-06 -6.6499999486 1.4499999993 -4.6396485232e-07 
-6.6499999486 1.5 1.7729564661e-06 -6.5999999478 1.4499999993 -4.7226171773e-07 -6.5999999478 1.5 1.8045377601e-06 
-6.5499999471 1.4499999993 -4.8081324167e-07 -6.5499999471 1.5 1.837251375e-06 -6.4999999464 1.4499999993 -4.8966717259e-07 
-6.4999999464 1.5 1.8710959466e-06 -6.4499999456 1.4499999993 -4.9884579312e-07 -6.4499999456 1.5 1.906130592e-06 
-6.3999999449 1.4499999993 -5.0834864851e-07 -6.3999999449 1.5 1.9424294351e-06 -6.3499999441 1.4499999993 -5.1820029512e-07 
-6.3499999441 1.5 1.9800402242e-06 -6.2999999434 1.4499999993 -5.2840118769e-07 -6.2999999434 1.5 2.0190702799e-06 
-6.2499999426 1.4499999993 -5.3899043451e-07 -6.2499999426 1.5 2.0595432488e-06 -6.1999999419 1.4499999993 -5.5000532484e-07 
-6.1999999419 1.5 2.1015418952e-06 -6.1499999411 1.4499999993 -5.6141448113e-07 -6.1499999411 1.5 2.1452076453e-06 
-6.0999999404 1.4499999993 -5.7329748415e-07 -6.0999999404 1.5 2.1905323138e-06 -6.0499999397 1.4499999993 -5.8564523897e-07 
-6.0499999397 1.5 2.2376837023e-06 -5.9999999389 1.4499999993 -5.9848593992e-07 -5.9999999389 1.5 2.2867909593e-06 
-5.9499999382 1.4499999993 -6.1184687183e-07 -5.9499999382 1.5 2.3378609058e-06 -5.8999999374 1.4499999993 -6.2579488258e-07 
-5.8999999374 1.5 2.3911131848e-06 -5.8499999367 1.4499999993 -6.4033088165e-07 -5.8499999367 1.5 2.4466351078e-06 
-5.7999999359 1.4499999993 -6.5552035267e-07 -5.7999999359 1.5 2.5046058454e-06 -5.7499999352 1.4499999993 -6.7138785198e-07 
-5.7499999352 1.5 2.5651422675e-06 -5.6999999344 1.4499999993 -6.8796202868e-07 -5.6999999344 1.5 2.6284953947e-06 
-5.6499999337 1.4499999993 -7.052865385e-07 -5.6499999337 1.5 2.6947529932e-06 -5.5999999329 1.4499999993 -7.2349553193e-07 
-5.5999999329 1.5 2.7641897304e-06 -5.5499999322 1.4499999993 -7.3291926128e-07 -5.5499999322 1.5 2.8001702503e-06 
-5.4999999315 1.4499999993 -7.5245293374e-07 -5.4999999315 1.5 2.8747879242e-06 -5.4499999307 1.4499999993 -7.7296976997e-07 
-5.4499999307 1.5 2.9531895507e-06 -5.39999993 1.4499999993 -7.9458595792e-07 -5.39999993 1.5 3.0356638945e-06 
-5.3499999292 1.4499999993 -8.173299193e-07 -5.3499999292 1.5 3.1225681596e-06 -5.2999999285 1.4499999993 -8.413278465e-07 
-5.2999999285 1.5 3.2142240798e-06 -5.2499999277 1.4499999993 -8.6668546828e-07 -5.2499999277 1.5 3.3110475215e-06 
-5.199999927 1.4499999993 -8.9354170996e-07 -5.199999927 1.5 3.4135091482e-06 -5.1499999262 1.4499999993 -9.2199002211e-07 
-5.1499999262 1.5 3.5221303278e-06 -5.0999999255 1.4499999993 -9.5219229479e-07 -5.0999999255 1.5 3.6374453884e-06 
-5.0499999247 1.4499999993 -9.8431746665e-07 -5.0499999247 1.5 3.7601485019e-06 -4.999999924 1.4499999993 -1.0185947303e-06 
-4.999999924 1.5 3.8909161049e-06 -4.9499999233 1.4499999993 -1.0551846117e-06 -4.9499999233 1.5 4.0306472329e-06 
-4.8999999225 1.4499999993 -1.0943685993e-06 -4.8999999225 1.5 4.1802341002e-06 -4.8499999218 1.4499999993 -1.1364654711e-06 
-4.8499999218 1.5 4.3407562771e-06 -4.799999921 1.4499999993 -1.1817196537e-06 -4.799999921 1.5 4.5135006985e-06 
-4.7499999203 1.4499999993 -1.2305599739e-06 -4.7499999203 1.5 4.6998593461e-06 -4.6999999195 1.4499999993 -1.283410711e-06 
-4.6999999195 1.5 4.9014583965e-06 -4.6499999188 1.4499999993 -1.3407670849e-06 -4.6499999188 1.5 5.1202009672e-06 
-4.599999918 1.4499999993 -1.4031663795e-06 -4.599999918 1.5 5.3582434703e-06 -4.5499999173 1.4499999993 -1.4712975371e-06 
-4.5499999173 1.5 5.6180747379e-06 -4.4999999166 1.4499999993 -1.5458783764e-06 -4.4999999166 1.5 5.9025178416e-06 
-4.4499999158 1.4499999993 -1.627789743e-06 -4.4499999158 1.5 6.2148028519e-06 -4.3999999151 1.4499999993 -1.7179445422e-06 
-4.3999999151 1.5 6.5585095399e-06 -4.3499999143 1.4499999993 -1.8173378749e-06 -4.3499999143 1.5 6.9374714258e-06 
-4.2999999136 1.4499999993 -1.9269762106e-06 -4.2999999136 1.5 7.3554924711e-06 -4.2499999128 1.4499999993 -2.0476709324e-06 
-4.2499999128 1.5 7.8158309407e-06 -4.1999999121 1.4499999993 -2.1797031877e-06 -4.1999999121 1.5 8.3197892309e-06 
-4.1499999113 1.4499999993 -2.3220243293e-06 -4.1499999113 1.5 8.8640254035e-06 -4.0999999106 1.4499999993 -2.4705921078e-06 
-4.0999999106 1.5 9.4343968158e-06 -4.0499999098 1.4499999993 -2.6144921321e-06 -4.0499999098 1.5 9.9926628536e-06 
-3.9999999091 1.4499999993 -2.7268406484e-06 -3.9999999091 1.5 1.0444807231e-05 -3.9499999084 1.4499999993 -2.7532391869e-06 
[...]
CELL_DATA 9090
FIELD FieldData 4
Water_Depth_m 1 9090 float
0.64 0.640001 0.640001 0.64 0.64 0.639998 0.639996 0.639993 0.639988 
0.639981 0.639972 0.63996 0.639945 0.639927 0.639905 0.639878 0.639848 0.639812 
0.639771 0.639725 0.639675 0.639619 0.639561 0.639499 0.639436 0.639372 0.63931 
0.639251 0.639196 0.639146 0.639103 0.639068 0.639042 0.639024 0.639016 0.639017 
0.639027 0.639046 0.639074 0.639111 0.639156 0.639208 0.639268 0.639333 0.639405 
0.639481 0.63956 0.639643 0.639727 0.639812 0.639898 0.639982 0.640065 0.640145 
0.640222 0.640294 0.640363 0.640426 0.640484 0.640537 0.640585 0.640627 0.640663 
0.640695 0.640722 0.640744 0.640761 0.640774 0.640783 0.640788 0.64079 0.640788 
0.640784 0.640776 0.640765 0.640752 0.640736 0.640719 0.640698 0.640676 0.640653 
0.640628 0.640602 0.640575 0.640548 0.64052 0.640493 0.640466 0.640441 0.640417 
0.640394 0.640374 0.640356 0.640341 0.640329 0.64032 0.640315 0.640313 0.640315 
0.64032 0.64033 0.640342 0.640359 0.640379 0.640403 0.640431 0.640462 0.640498 
0.640538 0.640582 0.640631 0.640684 0.640743 0.640807 0.640876 0.640952 0.641033 
0.64112 0.641214 0.641313 0.641417 0.641527 0.641639 0.641754 0.641868 0.641979 
0.6421 0.642276 0.642692 0.642058 0.624131 0.586507 0.540583 0.494588 0.455989 
0.423936 0.394467 0.363969 0.328696 0.291688 0.258109 0.231978 0.217064 0.213717 
0.218912 0.225938 0.23292 0.239197 0.246892 0.252084 0.255772 0.26109 0.266961 
0.274488 0.283534 0.293643 0.305793 0.315901 0.326032 0.33809 0.34398 0.343631 
0.337574 0.325529 0.322249 0.330683 0.337389 0.342329 0.348073 0.354485 0.361568 
0.368311 0.374551 0.381192 0.388047 0.395651 0.40314 0.410517 0.417396 0.425011 
0.434226 0.443689 0.450644 0.456977 0.463203 0.469715 0.476653 0.484074 0.489503 
0.494531 0.498579 0.504808 0.514143 0.517086 0.518393 0.520713 0.521079 0.518239 
0.5187 0.513296 0.505715 0.489853 0.478897 0.4655 0.452885 0.440275 0.428411 
0.409244 0.386125 0.36921 0.365907 0.366753 0.366721 0.365282 0.365173 0.365181 
0.361748 0.358045 0.358085 0.35813 0.358175 0.35822 0.358264 0.358307 0.358347 
0.358386 0.358423 0.358458 0.358492 0.358523 0.358553 0.358581 0.358608 0.358634 
0.358658 0.358681 0.358703 0.358724 0.358743 0.358763 0.358781 0.358798 0.358815 
0.358832 0.358847 0.358863 0.358877 0.358892 0.358906 0.358919 0.358933 0.358945 
0.358958 0.35897 0.358983 0.358994 0.359006 0.359017 0.359029 0.35904 0.359051 
0.359061 0.359072 0.359082 0.359092 0.359103 0.359113 0.359122 0.359132 0.359142 
0.359151 0.359161 0.35917 0.359179 0.359188 0.359197 0.359206 0.359215 0.359224 
0.359232 0.359241 0.359249 0.359258 0.359266 0.359274 0.359282 0.35929 0.359298 
0.359306 0.359314 0.359321 0.359329 0.359336 0.359343 0.359333 0.359309 0.357922 
0.355456 0.352278 0.640001 0.640001 0.640001 0.640001 0.640001 0.639999 0.639997 
0.639994 0.639989 0.639982 0.639973 0.639961 0.639946 0.639928 0.639906 0.639879 
0.639848 0.639812 0.63977 0.639724 0.639672 0.639617 0.639557 0.639494 0.63943 
0.639366 0.639303 0.639243 0.639187 0.639137 0.639095 0.639059 0.639033 0.639015 
0.639007 0.639008 0.639018 0.639037 0.639065 0.639102 0.639147 0.6392 0.639259 
0.639325 0.639397 0.639473 0.639553 0.639636 0.639721 0.639807 0.639893 0.639979 
0.640062 0.640143 0.64022 0.640294 0.640363 0.640427 0.640485 0.640539 0.640587 
0.640629 0.640666 0.640698 0.640725 0.640747 0.640765 0.640778 0.640787 0.640792 
0.640794 0.640792 0.640787 0.640779 0.640768 0.640755 0.640739 0.64072 0.6407 
0.640678 0.640654 0.640629 0.640602 0.640575 0.640547 0.640519 0.640492 0.640465 
0.640439 0.640414 0.640391 0.640371 0.640353 0.640338 0.640326 0.640317 0.640311 
0.64031 0.640312 0.640317 0.640326 0.640339 0.640356 0.640376 0.6404 0.640428 
0.640459 0.640494 0.640534 0.640578 0.640626 0.640679 0.640738 0.640801 0.640871 
0.640946 0.641027 0.641114 0.641207 0.641307 0.641412 0.641521 0.641635 0.641752 
0.641869 0.641983 0.642091 0.642165 0.642313 0.641834 0.624116 0.584947 0.535237 
0.485541 0.44571 0.413959 0.385444 0.355698 0.32161 0.285418 0.252544 0.228712 
0.214864 0.220983 0.231811 0.238659 0.242471 0.246676 0.250726 0.256655 0.263649 
0.269771 0.275222 0.281125 0.287326 0.292678 0.303173 0.314437 0.327628 0.350061 
0.387562 0.413539 0.392802 0.343258 0.334495 0.344618 0.351135 0.355314 0.357503 
0.360913 0.365925 0.372303 0.380939 0.38914 0.39679 0.404932 0.411167 0.418535 
0.422759 0.4286 0.435612 0.443571 0.45301 0.461273 0.464011 0.468334 0.470295 
0.475016 0.482579 0.490625 0.494324 0.497762 0.504808 0.511186 0.51188 0.51091 
0.513913 0.51554 0.515709 0.508509 0.508634 0.481752 0.47421 0.465329 0.459586 
0.45108 0.44275 0.429848 0.409943 0.387094 0.369168 0.368329 0.368263 0.366231 
0.365214 0.36522 0.361668 0.358043 0.358088 0.358132 0.358178 0.358223 0.358267 
0.35831 0.358351 0.358389 0.358426 0.358461 0.358495 0.358526 0.358556 0.358584 
0.358611 0.358636 0.35866 0.358683 0.358705 0.358725 0.358745 0.358764 0.358782 
0.3588 0.358817 0.358833 0.358849 0.358864 0.358879 0.358893 0.358907 0.35892 
0.358933 0.358946 0.358959 0.358971 0.358983 0.358995 0.359007 0.359018 0.359029 
0.35904 0.359051 0.359062 0.359072 0.359083 0.359093 0.359103 0.359113 0.359123 
0.359133 0.359142 0.359152 0.359161 0.359171 0.35918 0.359189 0.359198 0.359207 
0.359215 0.359224 0.359233 0.359241 0.35925 0.359258 0.359266 0.359274 0.359283 
0.359291 0.359298 0.359306 0.359314 0.359322 0.359329 0.359336 0.359343 0.359333 
0.359309 0.357922 0.355457 0.352278 0.64 0.640001 0.640001 0.640002 0.640002 
0.640001 0.639999 0.639996 0.639991 0.639984 0.639975 0.639963 0.639948 0.639929 
0.639907 0.63988 0.639848 0.63981 0.639768 0.63972 0.639667 0.63961 0.639548 
0.639483 0.639417 0.639351 0.639287 0.639226 0.639169 0.639118 0.639075 0.63904 
0.639013 0.638995 0.638987 0.638988 0.638998 0.639018 0.639046 0.639083 0.639129 
0.639182 0.639242 0.639308 0.63938 0.639457 0.639539 0.639623 0.639709 0.639796 
0.639884 0.639971 0.640055 0.640138 0.640217 0.640292 0.640362 0.640428 0.640488 
0.640542 0.640591 0.640634 0.640672 0.640704 0.640732 0.640754 0.640772 0.640785 
0.640794 0.640799 0.6408 0.640798 0.640793 0.640784 0.640773 0.640759 0.640742 
0.640723 0.640702 0.640679 0.640655 0.640629 0.640601 0.640573 0.640544 0.640516 
0.640487 0.64046 0.640433 0.640408 0.640384 0.640363 0.640345 0.64033 0.640317 
0.640308 0.640303 0.640301 0.640303 0.640308 0.640318 0.640331 0.640347 0.640367 
0.640391 0.640419 0.64045 0.640485 0.640524 0.640567 0.640614 0.640667 0.640724 
0.640787 0.640855 0.640929 0.64101 0.641096 0.641189 0.641288 0.641394 0.641505 
0.641621 0.641741 0.641863 0.641986 0.642106 0.642197 0.642445 0.641854 0.623382 
0.582393 0.530026 0.47849 0.436353 0.404069 0.376282 0.347983 0.315515 0.280513 
0.248949 0.225224 0.220306 0.228801 0.239296 0.246382 0.250584 0.254885 0.259702 
0.265973 0.273433 0.280775 0.287575 0.292316 0.295094 0.297668 0.301367 0.310377 
0.326943 0.348542 0.379863 0.397897 0.382636 0.344213 0.348752 0.356761 0.363546 
0.367689 0.367851 0.371221 0.377884 0.386328 0.395766 0.404669 0.411839 0.418756 
0.424201 0.42973 0.437147 0.444267 0.45166 0.460298 0.467902 0.474238 0.475504 
0.477046 0.484907 0.493947 0.500485 0.506447 0.514434 0.522784 0.526474 0.528312 
0.528589 0.531983 0.535587 0.53597 0.533217 0.533853 0.531636 0.508065 0.499544 
0.487563 0.476805 0.467185 0.45694 0.446284 0.431208 0.413827 0.38754 0.3694 
0.368568 0.367424 0.365733 0.365721 0.361625 0.358036 0.358079 0.358127 0.358175 
0.358222 0.358267 0.35831 0.358351 0.35839 0.358427 0.358462 0.358495 0.358526 
0.358556 0.358584 0.358611 0.358636 0.35866 0.358683 0.358704 0.358725 0.358745 
0.358764 0.358782 0.358799 0.358816 0.358832 0.358848 0.358863 0.358878 0.358892 
0.358906 0.358919 0.358933 0.358945 0.358958 0.35897 0.358982 0.358994 0.359006 
0.359017 0.359028 0.359039 0.35905 0.359061 0.359072 0.359082 0.359092 0.359102 
0.359112 0.359122 0.359132 0.359142 0.359151 0.35916 0.35917 0.359179 0.359188 
0.359197 0.359206 0.359215 0.359224 0.359232 0.359241 0.359249 0.359257 0.359266 
0.359274 0.359282 0.35929 0.359298 0.359306 0.359313 0.359321 0.359329 0.359336 
0.359343 0.359332 0.359309 0.357922 0.355456 0.352277 0.64 0.640001 0.640002 
0.640003 0.640004 0.640003 0.640002 0.639999 0.639995 0.639988 0.639979 0.639967 
0.639952 0.639933 0.639909 0.639881 0.639848 0.639809 0.639764 0.639714 0.639659 
0.639598 0.639534 0.639466 0.639397 0.639328 0.639261 0.639198 0.63914 0.639088 
0.639044 0.639008 0.638982 0.638965 0.638957 0.638958 0.638969 0.638988 0.639017 
0.639055 0.639101 0.639154 0.639215 0.639283 0.639356 0.639434 0.639517 0.639602 
0.639691 0.63978 0.63987 0.639959 0.640046 0.640131 0.640213 0.64029 0.640363 
0.64043 0.640492 0.640549 0.640599 0.640644 0.640682 0.640716 0.640743 0.640766 
0.640784 0.640797 0.640806 0.640811 0.640812 0.640809 0.640803 0.640794 0.640782 
0.640767 0.640749 0.640729 0.640707 0.640683 0.640657 0.640629 0.640601 0.640571 
0.640541 0.640512 0.640482 0.640453 0.640425 0.640399 0.640375 0.640353 0.640334 
0.640318 0.640305 0.640296 0.640291 0.640289 0.640291 0.640297 0.640306 0.640319 
0.640336 0.640356 0.640379 0.640406 0.640437 0.640471 0.64051 0.640552 0.640598 
0.64065 0.640706 0.640767 0.640834 0.640907 0.640986 0.641071 0.641164 0.641263 
0.641369 0.641482 0.641602 0.641726 0.641856 0.641988 0.64212 0.642209 0.642464 
0.641872 0.622693 0.580132 0.525387 0.470107 0.427474 0.394732 0.367238 0.341046 
0.310921 0.280483 0.258608 0.243256 0.234987 0.237199 0.242645 0.250084 0.257622 
0.263875 0.270062 0.276881 0.284398 0.292015 0.298614 0.302809 0.304834 0.306696 
0.310472 0.317005 0.324978 0.335503 0.337269 0.338636 0.346733 0.355346 0.361918 
0.36698 0.368711 0.370469 0.376179 0.382909 0.39173 0.401311 0.409868 0.417695 
0.423713 0.429883 0.437642 0.445575 0.453143 0.461282 0.46785 0.47388 0.481174 
0.487058 0.489559 0.494068 0.506427 0.518736 0.525245 0.529383 0.538393 0.546296 
0.547435 0.550453 0.553098 0.556623 0.557315 0.556154 0.555475 0.550862 0.547603 
0.535505 0.531916 0.52377 0.511546 0.493652 0.477159 0.462356 0.446887 0.431393 
0.408833 0.380897 0.368999 0.368136 0.366254 0.366071 0.361552 0.35803 0.358077 
0.358128 0.358177 0.358225 0.358271 0.358314 0.358356 0.358395 0.358432 0.358467 
0.3585 0.358531 0.35856 0.358588 0.358615 0.358639 0.358663 0.358686 0.358707 
0.358728 0.358747 0.358766 0.358784 0.358801 0.358818 0.358834 0.358849 0.358864 
0.358879 0.358893 0.358907 0.35892 0.358933 0.358946 0.358959 0.358971 0.358983 
0.358995 0.359006 0.359018 0.359029 0.35904 0.359051 0.359061 0.359072 0.359082 
0.359092 0.359103 0.359113 0.359122 0.359132 0.359142 0.359151 0.359161 0.35917 
0.359179 0.359188 0.359197 0.359206 0.359215 0.359224 0.359232 0.359241 0.359249 
0.359258 0.359266 0.359274 0.359282 0.35929 0.359298 0.359306 0.359313 0.359321 
0.359329 0.359336 0.359343 0.359332 0.359309 0.357922 0.355456 0.352277 0.640001 
0.640003 0.640005 0.640006 0.640008 0.640008 0.640007 0.640005 0.64 0.639994 
0.639985 0.639973 0.639957 0.639937 0.639913 0.639883 0.639848 0.639807 0.639759 
0.639706 0.639647 0.639582 0.639513 0.639442 0.639368 0.639296 0.639225 0.639159 
0.639099 0.639046 0.639001 0.638966 0.638939 0.638923 0.638916 0.638918 0.63893 
0.63895 0.638979 0.639018 0.639064 0.639119 0.63918 0.639249 0.639323 0.639403 
0.639488 0.639576 0.639666 0.639759 0.639852 0.639944 0.640035 0.640123 0.640208 
0.640288 0.640364 0.640435 0.640499 0.640558 0.64061 0.640657 0.640697 0.640731 
0.64076 0.640783 0.640802 0.640815 0.640824 0.640828 0.640828 0.640825 0.640818 
0.640807 0.640794 0.640778 0.640759 0.640737 0.640714 0.640688 0.64066 0.640631 
0.6406 0.640569 0.640537 0.640505 0.640474 0.640443 0.640414 0.640386 0.64036 
0.640338 0.640318 0.640301 0.640288 0.640279 0.640273 0.640271 0.640274 0.64028 
0.640289 0.640303 0.64032 0.64034 0.640363 0.64039 0.64042 0.640453 0.64049 
0.640531 0.640576 0.640626 0.64068 0.640739 0.640804 0.640875 0.640953 0.641037 
0.641128 0.641227 0.641334 0.641448 0.641571 0.641702 0.64184 0.641984 0.642131 
0.642235 0.642502 0.641887 0.622209 0.578605 0.522908 0.467887 0.421709 0.386377 
0.357669 0.331704 0.305942 0.283634 0.26875 0.258782 0.251663 0.248164 0.252363 
0.25884 0.266375 0.27358 0.280227 0.28726 0.294746 0.302117 0.308664 0.312654 
0.314391 0.316216 0.319307 0.324283 0.330599 0.337025 0.344053 0.351156 0.358104 
0.365141 0.371516 0.375659 0.37695 0.380408 0.386636 0.394778 0.404016 0.413079 
0.421119 0.428313 0.435081 0.442188 0.450878 0.459733 0.467256 0.475337 0.484913 
0.492661 0.495849 0.498588 0.508018 0.519485 0.530858 0.543885 0.552432 0.560458 
0.564978 0.567147 0.570418 0.578407 0.579409 0.580392 0.581729 0.582755 0.582926 
0.569753 0.565294 0.555933 0.554613 0.550006 0.540116 0.523214 0.501873 0.482436 
0.464289 0.446493 0.426243 0.401524 0.377714 0.367857 0.366572 0.366165 0.361479 
0.358023 0.358074 0.358128 0.35818 0.35823 0.358276 0.358321 0.358362 0.358402 
0.358438 0.358473 0.358506 0.358537 0.358566 0.358593 0.358619 0.358644 0.358667 
0.358689 0.35871 0.358731 0.35875 0.358768 0.358786 0.358803 0.35882 0.358836 
0.358851 0.358866 0.35888 0.358894 0.358908 0.358921 0.358934 0.358947 0.358959 
0.358972 0.358983 0.358995 0.359007 0.359018 0.359029 0.35904 0.359051 0.359062 
0.359072 0.359082 0.359093 0.359103 0.359113 0.359122 0.359132 0.359142 0.359151 
0.359161 0.35917 0.359179 0.359188 0.359197 0.359206 0.359215 0.359224 0.359232 
0.359241 0.359249 0.359257 0.359266 0.359274 0.359282 0.35929 0.359298 0.359306 
0.359313 0.359321 0.359329 0.359336 0.359343 0.359332 0.359309 0.357922 0.355456 
0.352277 0.640001 0.640005 0.640008 0.640011 0.640013 0.640014 0.640014 0.640013 
0.640009 0.640003 0.639994 0.639981 0.639965 0.639944 0.639918 0.639886 0.639848 
0.639804 0.639753 0.639696 0.639631 0.639562 0.639487 0.63941 0.639331 0.639253 
0.639179 0.639109 0.639047 0.638992 0.638948 0.638912 0.638887 0.638872 0.638867 
0.638871 0.638883 0.638904 0.638935 0.638974 0.639021 0.639076 0.639139 0.639208 
0.639284 0.639366 0.639453 0.639543 0.639637 0.639733 0.639829 0.639926 0.640021 
0.640113 0.640202 0.640287 0.640367 0.640441 0.640509 0.640571 0.640626 0.640674 
0.640716 0.640752 0.640782 0.640806 0.640825 0.640838 0.640847 0.640851 0.64085 
0.640846 0.640838 0.640826 0.640811 0.640793 0.640772 0.640749 0.640723 0.640695 
0.640665 0.640633 0.6406 0.640566 0.640532 0.640497 0.640463 0.64043 0.640399 
0.640369 0.640342 0.640317 0.640296 0.640279 0.640265 0.640256 0.64025 0.640249 
0.640251 0.640258 0.640268 0.640282 0.640299 0.640319 0.640343 0.640369 0.640398 
0.640431 0.640466 0.640506 0.640549 0.640596 0.640648 0.640705 0.640767 0.640835 
0.64091 0.640992 0.641081 0.641179 0.641286 0.641402 0.641528 0.641665 0.641811 
0.641969 0.642131 0.642247 0.642526 0.641893 0.62174 0.577133 0.520166 0.462399 
0.415545 0.378821 0.349509 0.324154 0.30279 0.285558 0.274309 0.26814 0.262508 
0.259304 0.262937 0.269171 0.276549 0.283786 0.290904 0.29737 0.303372 0.309497 
0.315742 0.319667 0.321609 0.324434 0.328278 0.332849 0.338019 0.344137 0.351612 
0.359463 0.366748 0.37242 0.375078 0.378356 0.384771 0.391202 0.398293 0.406223 
0.41547 0.424195 0.431457 0.43867 0.447246 0.45585 0.464006 0.472289 0.481496 
0.490327 0.50079 0.50998 0.513168 0.518754 0.530207 0.543098 0.552814 0.56045 
0.575637 0.587843 0.591609 0.593156 0.599085 0.603657 0.605367 0.609752 0.613385 
0.613679 0.613086 0.593232 0.589027 0.569831 0.568612 0.566206 0.558871 0.547861 
0.529291 0.508216 0.487019 0.464472 0.441149 0.420831 0.393102 0.370407 0.366984 
0.366638 0.361432 0.358017 0.358074 0.358131 0.358186 0.358237 0.358285 0.358329 
0.358371 0.35841 0.358447 0.358481 0.358514 0.358544 0.358573 0.3586 0.358625 
0.358649 0.358672 0.358694 0.358715 0.358735 0.358754 0.358772 0.358789 0.358806 
0.358822 0.358838 0.358853 0.358868 0.358882 0.358896 0.358909 0.358922 0.358935 
0.358948 0.35896 0.358972 0.358984 0.358996 0.359007 0.359019 0.35903 0.359041 
0.359051 0.359062 0.359072 0.359083 0.359093 0.359103 0.359113 0.359123 0.359132 
0.359142 0.359151 0.359161 0.35917 0.359179 0.359188 0.359197 0.359206 0.359215 
0.359224 0.359232 0.359241 0.359249 0.359258 0.359266 0.359274 0.359282 0.35929 
0.359298 0.359306 0.359313 0.359321 0.359329 0.359336 0.359343 0.359332 0.359309 
0.357922 0.355456 0.352277 0.640002 0.640008 0.640013 0.640017 0.640021 0.640023 
0.640024 0.640023 0.64002 0.640014 0.640005 0.639993 0.639975 0.639953 0.639925 
0.639891 0.63985 0.639802 0.639746 0.639683 0.639613 0.639537 0.639455 0.639371 
0.639286 0.639202 0.639123 0.63905 0.638986 0.638931 0.638886 0.638853 0.638829 
0.638816 0.638813 0.638819 0.638833 0.638856 0.638888 0.638928 0.638976 0.639031 
0.639095 0.639165 0.639243 0.639326 0.639415 0.639509 0.639606 0.639705 0.639806 
0.639906 0.640006 0.640103 0.640197 0.640287 0.640371 0.640449 0.640521 0.640586 
0.640645 0.640696 0.64074 0.640778 0.640809 0.640834 0.640853 0.640867 0.640875 
0.640878 0.640877 0.640872 0.640862 0.640849 0.640832 0.640812 0.640789 0.640763 
0.640734 0.640703 0.64067 0.640636 0.6406 0.640563 0.640525 0.640487 0.64045 
0.640414 0.64038 0.640348 0.640318 0.640292 0.64027 0.640251 0.640237 0.640227 
0.640222 0.640221 0.640225 0.640232 0.640243 0.640257 0.640275 0.640295 0.640318 
0.640344 0.640373 0.640404 0.640438 0.640475 0.640516 0.640561 0.640609 0.640663 
0.640721 0.640786 0.640857 0.640936 0.641022 0.641118 0.641224 0.64134 0.641469 
0.64161 0.641765 0.641935 0.642112 0.642242 0.642537 0.641885 0.621046 0.574982 
0.516603 0.459343 0.409307 0.371445 0.343369 0.321824 0.302153 0.285848 0.275107 
0.269265 0.26488 0.268443 0.274841 0.280626 0.286077 0.292498 0.299288 0.304871 
0.309269 0.313423 0.317028 0.320964 0.325437 0.330062 0.335474 0.340141 0.344034 
0.349306 0.355866 0.363554 0.37145 0.377057 0.380613 0.385463 0.392867 0.401249 
0.40895 0.417512 0.425296 0.433661 0.442489 0.450828 0.459748 0.468789 0.478234 
0.488317 0.498733 0.507309 0.513848 0.519627 0.528003 0.538982 0.552116 0.565967 
0.576634 0.587447 0.59802 0.6079 0.613982 0.619535 0.627045 0.631229 0.633902 
0.640399 0.642505 0.642688 0.637625 0.620698 0.613191 0.580711 0.576782 0.575603 
0.573907 0.568962 0.557132 0.539526 0.514247 0.487039 0.458418 0.434441 0.409394 
0.380168 0.367084 0.366656 0.361396 0.358014 0.358076 0.358137 0.358194 0.358246 
0.358295 0.35834 0.358382 0.358421 0.358458 0.358492 0.358523 0.358553 0.358581 
0.358608 0.358633 0.358656 0.358678 0.3587 0.35872 0.358739 0.358758 0.358776 
0.358793 0.358809 0.358825 0.35884 0.358855 0.35887 0.358884 0.358897 0.358911 
0.358924 0.358937 0.358949 0.358961 0.358973 0.358985 0.358997 0.359008 0.359019 
0.35903 0.359041 0.359052 0.359062 0.359073 0.359083 0.359093 0.359103 0.359113 
0.359123 0.359133 0.359142 0.359152 0.359161 0.35917 0.359179 0.359188 0.359197 
0.359206 0.359215 0.359224 0.359232 0.359241 0.359249 0.359258 0.359266 0.359274 
0.359282 0.35929 0.359298 0.359306 0.359313 0.359321 0.359329 0.359336 0.359343 
0.359332 0.359309 0.357922 0.355456 0.352277 0.640004 0.640012 0.640019 0.640025 
0.640031 0.640035 0.640037 0.640037 0.640035 0.64003 0.640021 0.640007 0.639989 
0.639966 0.639936 0.639899 0.639854 0.639801 0.63974 0.63967 0.639593 0.639509 
0.63942 0.639328 0.639235 0.639146 0.639062 0.638987 0.638921 0.638867 0.638824 
0.638792 0.638772 0.638762 0.638761 0.638769 0.638785 0.638809 0.638842 0.638882 
0.63893 0.638987 0.639051 0.639122 0.639201 0.639286 0.639378 0.639474 0.639575 
0.639678 0.639783 0.639888 0.639993 0.640095 0.640194 0.640288 0.640377 0.64046 
0.640537 0.640606 0.640667 0.640722 0.640768 0.640808 0.64084 0.640866 0.640886 
0.6409 0.640908 0.640911 0.640909 0.640902 0.640891 0.640875 0.640856 0.640834 
0.640808 0.64078 0.640748 0.640714 0.640677 0.640639 0.640599 0.640558 0.640517 
0.640475 0.640435 0.640395 0.640357 0.640322 0.64029 0.640262 0.640238 0.640218 
0.640204 0.640194 0.640189 0.640188 0.640193 0.640201 0.640213 0.640229 0.640247 
0.640268 0.640291 0.640316 0.640344 0.640374 0.640406 0.640441 0.640479 0.64052 