# vtk DataFile Version 5.1
vtk output
ASCII
DATASET UNSTRUCTURED_GRID
POINTS 9359 double
-10.1 1.4499999993 0 -10.049999999 1.4499999993 0 -10.049999999 1.5 0 
-9.9999999985 1.4499999993 0 -9.9999999985 1.5 0 -9.9499999978 1.4499999993 0 
-9.9499999978 1.5 0 -9.899999997 1.4499999993 0 -9.899999997 1.5 0 
-9.8499999963 1.4499999993 0 -9.8499999963 1.5 0 -9.7999999955 1.4499999993 0 
-9.7999999955 1.5 0 -9.7499999948 1.4499999993 0 -9.7499999948 1.5 0 
-9.699999994 1.4499999993 0 -9.699999994 1.5 0 -9.6499999933 1.4499999993 0 
-9.6499999933 1.5 0 -9.5999999925 1.4499999993 0 -9.5999999925 1.5 0 
-9.5499999918 1.4499999993 0 -9.5499999918 1.5 0 -9.4999999911 1.4499999993 0 
-9.4999999911 1.5 0 -9.4499999903 1.4499999993 0 -9.4499999903 1.5 0 
-9.3999999896 1.4499999993 0 -9.3999999896 1.5 0 -9.3499999888 1.4499999993 0 
-9.3499999888 1.5 0 -9.2999999881 1.4499999993 0 -9.2999999881 1.5 0 
-9.2499999873 1.4499999993 0 -9.2499999873 1.5 0 -9.1999999866 1.4499999993 0 
-9.1999999866 1.5 0 -9.1499999858 1.4499999993 0 -9.1499999858 1.5 0 
-9.0999999851 1.4499999993 0 -9.0999999851 1.5 0 -9.0499999844 1.4499999993 0 
-9.0499999844 1.5 0 -8.9999999836 1.4499999993 0 -8.9999999836 1.5 0 
-8.9499999829 1.4499999993 0 -8.9499999829 1.5 0 -8.8999999821 1.4499999993 0 
-8.8999999821 1.5 0 -8.8499999814 1.4499999993 0 -8.8499999814 1.5 0 
-8.7999999806 1.4499999993 0 -8.7999999806 1.5 0 -8.7499999799 1.4499999993 0 
-8.7499999799 1.5 0 -8.6999999791 1.4499999993 0 -8.6999999791 1.5 0 
-8.6499999784 1.4499999993 0 -8.6499999784 1.5 0 -8.5999999776 1.4499999993 0 
-8.5999999776 1.5 0 -8.5499999769 1.4499999993 0 -8.5499999769 1.5 0 
-8.4999999762 1.4499999993 0 -8.4999999762 1.5 0 -8.4499999754 1.4499999993 0 
-8.4499999754 1.5 0 -8.3999999747 1.4499999993 0 -8.3999999747 1.5 0 
-8.3499999739 1.4499999993 0 -8.3499999739 1.5 0 -8.2999999732 1.4499999993 0 
-8.2999999732 1.5 0 -8.2499999724 1.4499999993 0 -8.2499999724 1.5 0 
-8.1999999717 1.4499999993 0 -8.1999999717 1.5 0 -8.1499999709 1.4499999993 0 
-8.1499999709 1.5 0 -8.0999999702 1.4499999993 0 -8.0999999702 1.5 0 
-8.0499999695 1.4499999993 0 -8.0499999695 1.5 0 -7.9999999687 1.4499999993 0 
-7.9999999687 1.5 0 -7.949999968 1.4499999993 0 -7.949999968 1.5 0 
-7.8999999672 1.4499999993 0 -7.8999999672 1.5 0 -7.8499999665 1.4499999993 0 
-7.8499999665 1.5 0 -7.7999999657 1.4499999993 0 -7.7999999657 1.5 0 
-7.749999965 1.4499999993 0 -7.749999965 1.5 0 -7.6999999642 1.4499999993 0 
-7.6999999642 1.5 0 -7.6499999635 1.4499999993 0 -7.6499999635 1.5 0 
-7.5999999627 1.4499999993 0 -7.5999999627 1.5 0 -7.549999962 1.4499999993 0 
-7.549999962 1.5 0 -7.4999999613 1.4499999993 0 -7.4999999613 1.5 0 
-7.4499999605 1.4499999993 0 -7.4499999605 1.5 0 -7.3999999598 1.4499999993 0 
-7.3999999598 1.5 0 -7.349999959 1.4499999993 0 -7.349999959 1.5 0 
-7.2999999583 1.4499999993 0 -7.2999999583 1.5 0 -7.2499999575 1.4499999993 0 
-7.2499999575 1.5 0 -7.1999999568 1.4499999993 0 -7.1999999568 1.5 0 
-7.149999956 1.4499999993 0 -7.149999956 1.5 0 -7.0999999553 1.4499999993 0 
-7.0999999553 1.5 0 -7.0499999546 1.4499999993 0 -7.0499999546 1.5 0 
-6.9999999538 1.4499999993 0 -6.9999999538 1.5 0 -6.9499999531 1.4499999993 0 
-6.9499999531 1.5 0 -6.8999999523 1.4499999993 0 -6.8999999523 1.5 0 
-6.8499999516 1.4499999993 0 -6.8499999516 1.5 0 -6.7999999508 1.4499999993 0 
-6.7999999508 1.5 0 -6.7499999501 1.4499999993 0 -6.7499999501 1.5 0 
-6.6999999493 1.4499999993 0 -6.6999999493 1.5 0 -6.6499999486 1.4499999993 0 
-6.6499999486 1.5 0 -6.5999999478 1.4499999993 0 -6.5999999478 1.5 0 
-6.5499999471 1.4499999993 0 -6.5499999471 1.5 0 -6.4999999464 1.4499999993 0 
-6.4999999464 1.5 0 -6.4499999456 1.4499999993 0 -6.4499999456 1.5 0 
-6.3999999449 1.4499999993 0 -6.3999999449 1.5 0 -6.3499999441 1.4499999993 0 
-6.3499999441 1.5 0 -6.2999999434 1.4499999993 0 -6.2999999434 1.5 0 
-6.2499999426 1.4499999993 0 -6.2499999426 1.5 0 -6.1999999419 1.4499999993 0 
-6.1999999419 1.5 0 -6.1499999411 1.4499999993 0 -6.1499999411 1.5 0 
-6.0999999404 1.4499999993 0 -6.0999999404 1.5 0 -6.0499999397 1.4499999993 0 
-6.0499999397 1.5 0 -5.9999999389 1.4499999993 0 -5.9999999389 1.5 0 
-5.9499999382 1.4499999993 0 -5.9499999382 1.5 0 -5.8999999374 1.4499999993 0 
-5.8999999374 1.5 0 -5.8499999367 1.4499999993 0 -5.8499999367 1.5 0 
-5.7999999359 1.4499999993 0 -5.7999999359 1.5 0 -5.7499999352 1.4499999993 0 
-5.7499999352 1.5 0 -5.6999999344 1.4499999993 0 -5.6999999344 1.5 0 
-5.6499999337 1.4499999993 0 -5.6499999337 1.5 0 -5.5999999329 1.4499999993 0 
-5.5999999329 1.5 0 -5.5499999322 1.4499999993 0 -5.5499999322 1.5 0 
-5.4999999315 1.4499999993 0 -5.4999999315 1.5 0 -5.4499999307 1.4499999993 0 
-5.4499999307 1.5 0 -5.39999993 1.4499999993 0 -5.39999993 1.5 0 
-5.3499999292 1.4499999993 0 -5.3499999292 1.5 0 -5.2999999285 1.4499999993 0 
-5.2999999285 1.5 0 -5.2499999277 1.4499999993 0 -5.2499999277 1.5 0 
-5.199999927 1.4499999993 0 -5.199999927 1.5 0 -5.1499999262 1.4499999993 0 
-5.1499999262 1.5 0 -5.0999999255 1.4499999993 0 -5.0999999255 1.5 0 
-5.0499999247 1.4499999993 0 -5.0499999247 1.5 0 -4.999999924 1.4499999993 0 
-4.999999924 1.5 0 -4.9499999233 1.4499999993 0 -4.9499999233 1.5 0 
-4.8999999225 1.4499999993 0 -4.8999999225 1.5 0 -4.8499999218 1.4499999993 0 
-4.8499999218 1.5 0 -4.799999921 1.4499999993 0 -4.799999921 1.5 0 
-4.7499999203 1.4499999993 0 -4.7499999203 1.5 0 -4.6999999195 1.4499999993 0 
-4.6999999195 1.5 0 -4.6499999188 1.4499999993 0 -4.6499999188 1.5 0 
-4.599999918 1.4499999993 0 -4.599999918 1.5 0 -4.5499999173 1.4499999993 0 
-4.5499999173 1.5 0 -4.4999999166 1.4499999993 0 -4.4999999166 1.5 0 
-4.4499999158 1.4499999993 0 -4.4499999158 1.5 0 -4.3999999151 1.4499999993 0 
-4.3999999151 1.5 0 -4.3499999143 1.4499999993 0 -4.3499999143 1.5 0 
-4.2999999136 1.4499999993 0 -4.2999999136 1.5 0 -4.2499999128 1.4499999993 0 
-4.2499999128 1.5 0 -4.1999999121 1.4499999993 0 -4.1999999121 1.5 0 
-4.1499999113 1.4499999993 0 -4.1499999113 1.5 0 -4.0999999106 1.4499999993 0 
-4.0999999106 1.5 0 -4.0499999098 1.4499999993 0 -4.0499999098 1.5 0 
-3.9999999091 1.4499999993 0 -3.9999999091 1.5 0 -3.9499999084 1.4499999993 0 
-3.9499999084 1.5 0 -3.8999999076 1.4499999993 0 -3.8999999076 1.5 0 
-3.8499999069 1.4499999993 0 -3.8499999069 1.5 0 -3.7999999061 1.4499999993 0 
-3.7999999061 1.5 0 -3.7499999054 1.4499999993 0 -3.7499999054 1.5 0 
-3.6999999046 1.4499999993 0 -3.6999999046 1.5 0 -3.6499999039 1.4499999993 0 
-3.6499999039 1.5 0 -3.5999999031 1.4499999993 0 -3.5999999031 1.5 0 
-3.5499999024 1.4499999993 0 -3.5499999024 1.5 0 -3.4999999017 1.4499999993 0 
-3.4999999017 1.5 0 -3.4499999009 1.4499999993 0 -3.4499999009 1.5 0 
-3.3999999002 1.4499999993 0 -3.3999999002 1.5 0 -3.3499998994 1.4499999993 0 
-3.3499998994 1.5 0 -3.2999998987 1.4499999993 0 -3.2999998987 1.5 0 
-3.2499998979 1.4499999993 0 -3.2499998979 1.5 0 -3.1999998972 1.4499999993 0 
-3.1999998972 1.5 0 -3.1499998964 1.4499999993 0 -3.1499998964 1.5 0 
-3.0999998957 1.4499999993 0 -3.0999998957 1.5 0 -3.0499998949 1.4499999993 0 
-3.0499998949 1.5 0 -2.9999998942 1.4499999993 0 -2.9999998942 1.5 0 
-2.9499998935 1.4499999993 0 -2.9499998935 1.5 0 -2.8999998927 1.4499999993 0 
-2.8999998927 1.5 0 -2.849999892 1.4499999993 0 -2.849999892 1.5 0 
-2.7999998912 1.4499999993 0 -2.7999998912 1.5 0 -2.7499998905 1.4499999993 0 
-2.7499998905 1.5 0 -2.6999998897 1.4499999993 0 -2.6999998897 1.5 0 
-2.649999889 1.4499999993 0 -2.649999889 1.5 0 -2.5999998882 1.4499999993 0 
-2.5999998882 1.5 0 -2.5499998875 1.4499999993 0 -2.5499998875 1.5 0 
-2.4999998868 1.4499999993 0 -2.4999998868 1.5 0 -2.449999886 1.4499999993 0 
-2.449999886 1.5 0 -2.3999998853 1.4499999993 0 -2.3999998853 1.5 0 
-2.3499998845 1.4499999993 0 -2.3499998845 1.5 0 -2.2999998838 1.4499999993 0 
-2.2999998838 1.5 0 -2.249999883 1.4499999993 0 -2.249999883 1.5 0 
-2.1999998823 1.4499999993 0 -2.1999998823 1.5 0 -2.1499998815 1.4499999993 0 
-2.1499998815 1.5 0 -2.0999998808 1.4499999993 0 -2.0999998808 1.5 0 
-2.04999988 1.4499999993 0 -2.04999988 1.5 0 -1.9999998793 1.4499999993 0 
-1.9999998793 1.5 0 -1.9499998786 1.4499999993 0 -1.9499998786 1.5 0 
-1.8999998778 1.4499999993 0 -1.8999998778 1.5 0 -1.8499998771 1.4499999993 0 
-1.8499998771 1.5 0 -1.7999998763 1.4499999993 0 -1.7999998763 1.5 0 
-1.7499998756 1.4499999993 0 -1.7499998756 1.5 0 -1.6999998748 1.4499999993 0 
-1.6999998748 1.5 0 -1.6499998741 1.4499999993 0 -1.6499998741 1.5 0 
-1.5999998733 1.4499999993 0 -1.5999998733 1.5 0 -1.5499998726 1.4499999993 0 
-1.5499998726 1.5 0 -1.4999998719 1.4499999993 0 -1.4999998719 1.5 0 
-1.4499998711 1.4499999993 0 -1.4499998711 1.5 0 -1.3999998704 1.4499999993 0 
-1.3999998704 1.5 0 -1.3499998696 1.4499999993 0 -1.3499998696 1.5 0 
-1.2999998689 1.4499999993 0 -1.2999998689 1.5 0 -1.2499998681 1.4499999993 0 
-1.2499998681 1.5 0 -1.1999998674 1.4499999993 0 -1.1999998674 1.5 0 
-1.1499998666 1.4499999993 0 -1.1499998666 1.5 0 -1.0999998659 1.4499999993 0 
-1.0999998659 1.5 0 -1.0499998651 1.4499999993 0 -1.0499998651 1.5 0 
-0.9999998644 1.4499999993 0 -0.9999998644 1.5 0 -0.94999986365 1.4499999993 0 
-0.94999986365 1.5 0 -0.89999986291 1.4499999993 0 -0.89999986291 1.5 0 
-0.84999986216 1.4499999993 0 -0.84999986216 1.5 0 -0.79999986142 1.4499999993 0 
-0.79999986142 1.5 0 -0.74999986067 1.4499999993 0 -0.74999986067 1.5 0 
-0.69999985993 1.4499999993 0 -0.69999985993 1.5 0 -0.64999985918 1.4499999993 0 
-0.64999985918 1.5 0 -0.59999985844 1.4499999993 0 -0.59999985844 1.5 0 
-0.54999985769 1.4499999993 0 -0.54999985769 1.5 0 -0.49999985695 1.4499999993 0 
-0.49999985695 1.5 0 -0.4499998562 1.4499999993 0 -0.4499998562 1.5 0 
-0.39999985546 1.4499999993 0 -0.39999985546 1.5 0 -0.34999985471 1.4499999993 0 
-0.34999985471 1.5 0 -0.29999985397 1.4499999993 0 -0.29999985397 1.5 0 
-0.24999985322 1.4499999993 0 -0.24999985322 1.5 0 -0.19999985248 1.4499999993 0 
-0.19999985248 1.5 0 -0.14999985173 1.4499999993 0 -0.14999985173 1.5 0 
[...]
CELL_DATA 8990
FIELD FieldData 4
Water_Depth_m 1 8990 float
0.339926 0.339767 0.339603 0.339434 0.339262 0.339089 0.338917 0.338749 0.338585 
0.338427 0.338276 0.338134 0.338 0.337876 0.337762 0.337657 0.337561 0.337473 
0.337394 0.337323 0.337259 0.337201 0.337149 0.337102 0.337061 0.337023 0.33699 
0.33696 0.336933 0.336909 0.336887 0.336867 0.336849 0.336833 0.336817 0.336803 
0.336789 0.336775 0.336762 0.336748 0.336734 0.336718 0.336702 0.336685 0.336665 
0.336644 0.33662 0.336594 0.336564 0.336531 0.336495 0.336455 0.33641 0.336361 
0.336307 0.336248 0.336184 0.336116 0.336043 0.335965 0.335883 0.335799 0.335711 
0.335623 0.335534 0.335447 0.335363 0.335283 0.33521 0.335144 0.335089 0.335044 
0.335012 0.334993 0.334988 0.334997 0.33502 0.335056 0.335106 0.335166 0.335237 
0.335317 0.335404 0.335497 0.335594 0.335694 0.335794 0.335894 0.335992 0.336086 
0.336176 0.33626 0.336338 0.336408 0.336471 0.336527 0.336574 0.336615 0.33665 
0.336679 0.336703 0.336726 0.336746 0.336768 0.336791 0.336818 0.336849 0.336886 
0.336929 0.336978 0.337034 0.337095 0.337161 0.337231 0.337303 0.337376 0.337449 
0.33752 0.337588 0.337651 0.337709 0.337761 0.337805 0.337841 0.337869 0.337888 
0.337898 0.3379 0.337892 0.337876 0.337851 0.337819 0.337779 0.337732 0.337679 
0.33762 0.337557 0.337489 0.33742 0.337348 0.337276 0.337203 0.337132 0.337062 
0.336995 0.336932 0.336873 0.336818 0.336767 0.336722 0.336683 0.336649 0.336621 
0.336597 0.336577 0.336563 0.336553 0.336547 0.336544 0.336544 0.336547 0.336552 
0.33656 0.336571 0.336583 0.336597 0.336613 0.336631 0.336652 0.336675 0.336702 
0.336731 0.336764 0.336802 0.336845 0.336896 0.336954 0.337022 0.337101 0.337192 
0.337298 0.337423 0.337567 0.337733 0.337924 0.338142 0.338391 0.338674 0.338995 
0.339355 0.339755 0.340198 0.340688 0.34122 0.341804 0.342425 0.343079 0.34378 
0.344521 0.345326 0.34863 0.349342 0.349966 0.350552 0.351097 0.3516 0.352062 
0.352483 0.352865 0.353211 0.353523 0.353804 0.354057 0.354285 0.35449 0.354675 
0.354841 0.354991 0.355126 0.355249 0.35536 0.355461 0.355553 0.355636 0.355712 
0.355782 0.355846 0.355905 0.35596 0.35601 0.356057 0.3561 0.35614 0.356178 
0.356214 0.356247 0.356278 0.356308 0.356336 0.356363 0.356389 0.356413 0.356437 
0.356459 0.356481 0.356502 0.356523 0.356543 0.356562 0.356581 0.356599 0.356617 
0.356635 0.356652 0.356669 0.356685 0.356702 0.356718 0.356734 0.35675 0.356765 
0.35678 0.356796 0.356811 0.356826 0.35684 0.356855 0.35687 0.356884 0.356898 
0.356912 0.356927 0.356941 0.356955 0.356968 0.356982 0.356996 0.357009 0.357023 
0.357036 0.35705 0.357063 0.357076 0.357089 0.357102 0.357115 0.357128 0.357141 
0.357154 0.357166 0.357179 0.357191 0.357204 0.357216 0.357212 0.357194 0.355876 
0.353412 0.350233 0.339925 0.339766 0.3396 0.339429 0.339256 0.339082 0.338909 
0.33874 0.338575 0.338417 0.338266 0.338124 0.33799 0.337867 0.337753 0.337648 
0.337553 0.337466 0.337387 0.337317 0.337253 0.337196 0.337144 0.337098 0.337057 
0.33702 0.336987 0.336957 0.336931 0.336907 0.336885 0.336866 0.336848 0.336832 
0.336817 0.336803 0.336789 0.336776 0.336762 0.336749 0.336735 0.33672 0.336704 
0.336687 0.336668 0.336647 0.336623 0.336597 0.336568 0.336535 0.336499 0.336458 
0.336414 0.336365 0.336311 0.336251 0.336187 0.336118 0.336044 0.335966 0.335883 
0.335798 0.335709 0.335619 0.335529 0.335441 0.335355 0.335274 0.335199 0.335133 
0.335076 0.335031 0.334998 0.334979 0.334974 0.334984 0.335007 0.335045 0.335095 
0.335157 0.335229 0.33531 0.335399 0.335493 0.335592 0.335693 0.335795 0.335896 
0.335995 0.33609 0.336181 0.336266 0.336345 0.336415 0.336479 0.336534 0.336581 
0.336621 0.336655 0.336682 0.336706 0.336727 0.336746 0.336766 0.336788 0.336813 
0.336844 0.33688 0.336922 0.336972 0.337028 0.33709 0.337157 0.337227 0.337301 
0.337376 0.33745 0.337522 0.337591 0.337656 0.337715 0.337767 0.337812 0.337849 
0.337878 0.337897 0.337907 0.337908 0.337901 0.337884 0.337859 0.337826 0.337785 
0.337738 0.337684 0.337624 0.33756 0.337492 0.337421 0.337348 0.337275 0.337202 
0.337129 0.337059 0.336991 0.336927 0.336868 0.336813 0.336762 0.336717 0.336678 
0.336644 0.336616 0.336592 0.336573 0.336559 0.336549 0.336543 0.336541 0.336542 
0.336545 0.33655 0.336558 0.336569 0.336582 0.336596 0.336612 0.33663 0.33665 
0.336673 0.336699 0.336728 0.336761 0.336798 0.33684 0.336889 0.336947 0.337014 
0.337091 0.33718 0.337284 0.337405 0.337547 0.337711 0.337899 0.338114 0.33836 
0.338637 0.338953 0.339311 0.339707 0.340145 0.340634 0.341156 0.341737 0.342349 
0.343009 0.343729 0.344487 0.345316 0.348594 0.349334 0.349971 0.350564 0.351113 
0.351619 0.352082 0.352504 0.352887 0.353232 0.353543 0.353823 0.354075 0.354301 
0.354505 0.354688 0.354854 0.355002 0.355137 0.355258 0.355369 0.355469 0.35556 
0.355642 0.355718 0.355787 0.355851 0.355909 0.355963 0.356013 0.35606 0.356103 
0.356143 0.35618 0.356216 0.356249 0.35628 0.35631 0.356338 0.356364 0.35639 
0.356414 0.356438 0.35646 0.356482 0.356503 0.356523 0.356543 0.356562 0.356581 
0.356599 0.356617 0.356635 0.356652 0.356669 0.356686 0.356702 0.356718 0.356734 
0.35675 0.356765 0.356781 0.356796 0.356811 0.356826 0.35684 0.356855 0.35687 
0.356884 0.356898 0.356913 0.356927 0.356941 0.356955 0.356968 0.356982 0.356996 
0.357009 0.357023 0.357036 0.35705 0.357063 0.357076 0.357089 0.357102 0.357115 
0.357128 0.357141 0.357154 0.357166 0.357179 0.357191 0.357204 0.357216 0.357212 
0.357194 0.355876 0.353412 0.350233 0.339924 0.339762 0.339593 0.33942 0.339244 
0.339068 0.338893 0.338722 0.338556 0.338396 0.338245 0.338103 0.33797 0.337847 
0.337734 0.33763 0.337536 0.337451 0.337373 0.337304 0.337241 0.337185 0.337135 
0.33709 0.33705 0.337013 0.336981 0.336952 0.336926 0.336903 0.336882 0.336863 
0.336846 0.336831 0.336816 0.336802 0.336789 0.336777 0.336764 0.336751 0.336737 
0.336723 0.336708 0.336691 0.336673 0.336652 0.336629 0.336603 0.336575 0.336542 
0.336506 0.336466 0.336422 0.336372 0.336318 0.336258 0.336194 0.336123 0.336048 
0.335968 0.335884 0.335796 0.335705 0.335612 0.335519 0.335427 0.335339 0.335255 
0.335177 0.335109 0.33505 0.335004 0.33497 0.334951 0.334946 0.334957 0.334982 
0.335021 0.335073 0.335138 0.335212 0.335296 0.335388 0.335485 0.335587 0.335691 
0.335795 0.335899 0.336001 0.336099 0.336192 0.336278 0.336358 0.33643 0.336493 
0.336548 0.336595 0.336633 0.336665 0.33669 0.336712 0.33673 0.336745 0.336762 
0.336781 0.336804 0.336833 0.336867 0.33691 0.336959 0.337015 0.337079 0.337148 
0.337221 0.337297 0.337375 0.337452 0.337527 0.337598 0.337665 0.337727 0.337781 
0.337827 0.337865 0.337894 0.337914 0.337925 0.337927 0.337918 0.337901 0.337875 
0.337841 0.337799 0.33775 0.337694 0.337632 0.337566 0.337496 0.337424 0.337349 
0.337273 0.337197 0.337124 0.337053 0.336984 0.336918 0.336857 0.336801 0.336751 
0.336707 0.336668 0.336633 0.336604 0.336582 0.336564 0.336552 0.336543 0.336537 
0.336534 0.336535 0.33654 0.336547 0.336556 0.336566 0.336577 0.336591 0.336608 
0.336628 0.336648 0.33667 0.336693 0.336721 0.336753 0.33679 0.336833 0.336879 
0.336932 0.336994 0.337069 0.337156 0.337258 0.337376 0.337509 0.337664 0.337847 
0.338056 0.338296 0.338571 0.338876 0.339216 0.339606 0.34004 0.340512 0.341052 
0.341619 0.342189 0.342855 0.343565 0.344319 0.345304 0.3485 0.349356 0.349989 
0.350589 0.351145 0.351657 0.352124 0.352547 0.352929 0.353274 0.353583 0.353861 
0.35411 0.354334 0.354535 0.354716 0.354879 0.355025 0.355158 0.355277 0.355386 
0.355484 0.355573 0.355655 0.355729 0.355797 0.35586 0.355918 0.355971 0.35602 
0.356065 0.356108 0.356147 0.356185 0.356219 0.356252 0.356283 0.356312 0.35634 
0.356367 0.356392 0.356416 0.356439 0.356462 0.356483 0.356504 0.356524 0.356544 
0.356563 0.356582 0.3566 0.356618 0.356635 0.356652 0.356669 0.356686 0.356702 
0.356718 0.356734 0.35675 0.356765 0.356781 0.356796 0.356811 0.356826 0.356841 
0.356855 0.35687 0.356884 0.356898 0.356913 0.356927 0.356941 0.356955 0.356968 
0.356982 0.356996 0.357009 0.357023 0.357036 0.35705 0.357063 0.357076 0.357089 
0.357102 0.357115 0.357128 0.357141 0.357154 0.357166 0.357179 0.357191 0.357204 
0.357216 0.357212 0.357194 0.355876 0.353412 0.350233 0.339922 0.339756 0.339583 
0.339406 0.339226 0.339046 0.338868 0.338694 0.338526 0.338365 0.338214 0.338071 
0.337939 0.337817 0.337705 0.337603 0.337511 0.337428 0.337352 0.337285 0.337224 
0.33717 0.337121 0.337078 0.337039 0.337004 0.336973 0.336945 0.33692 0.336898 
0.336878 0.33686 0.336844 0.336829 0.336815 0.336802 0.33679 0.336778 0.336766 
0.336754 0.336741 0.336728 0.336713 0.336698 0.33668 0.33666 0.336638 0.336613 
0.336585 0.336554 0.336518 0.336478 0.336434 0.336384 0.336329 0.336269 0.336203 
0.336131 0.336054 0.335972 0.335884 0.335793 0.335698 0.335601 0.335504 0.335408 
0.335314 0.335226 0.335145 0.335072 0.335011 0.334962 0.334928 0.334908 0.334904 
0.334915 0.334943 0.334985 0.33504 0.335108 0.335187 0.335275 0.335371 0.335473 
0.335579 0.335687 0.335796 0.335904 0.33601 0.336111 0.336207 0.336297 0.336379 
0.336452 0.336516 0.33657 0.336616 0.336653 0.336681 0.336703 0.336719 0.336732 
0.336744 0.336757 0.336771 0.33679 0.336816 0.336848 0.336889 0.336939 0.336997 
0.337062 0.337134 0.337211 0.337291 0.337373 0.337454 0.337534 0.337609 0.33768 
0.337744 0.3378 0.337849 0.337889 0.33792 0.337941 0.337952 0.337953 0.337944 
0.337927 0.337899 0.337863 0.337819 0.337768 0.337709 0.337645 0.337576 0.337503 
0.337427 0.337349 0.33727 0.337193 0.337116 0.337041 0.33697 0.336904 0.336842 
0.336786 0.336734 0.336689 0.33665 0.336617 0.33659 0.336568 0.336551 0.336538 
0.33653 0.336527 0.336527 0.336529 0.336534 0.33654 0.336549 0.336561 0.336574 
0.336589 0.336605 0.336622 0.336641 0.336663 0.336688 0.336715 0.336745 0.336778 
0.336815 0.33686 0.336912 0.336972 0.337041 0.337121 0.337214 0.337323 0.337453 
0.337604 0.337776 0.337974 0.3382 0.338457 0.338754 0.33909 0.339463 0.339882 
0.34035 0.340855 0.341425 0.342025 0.342681 0.343407 0.344204 0.345109 0.348537 
0.349334 0.350006 0.350626 0.351196 0.351715 0.352187 0.352613 0.352995 0.353337 
0.353644 0.353918 0.354164 0.354384 0.354581 0.354758 0.354917 0.35506 0.355189 
0.355305 0.355411 0.355507 0.355594 0.355673 0.355746 0.355812 0.355873 0.35593 
0.355981 0.35603 0.356074 0.356116 0.356155 0.356191 0.356225 0.356257 0.356288 
0.356316 0.356344 0.35637 0.356395 0.356419 0.356442 0.356464 0.356485 0.356506 
0.356526 0.356545 0.356564 0.356583 0.356601 0.356619 0.356636 0.356653 0.35667 
0.356687 0.356703 0.356719 0.356735 0.35675 0.356766 0.356781 0.356796 0.356811 
0.356826 0.356841 0.356855 0.35687 0.356884 0.356899 0.356913 0.356927 0.356941 
0.356955 0.356969 0.356982 0.356996 0.357009 0.357023 0.357036 0.35705 0.357063 
0.357076 0.357089 0.357102 0.357115 0.357128 0.357141 0.357154 0.357166 0.357179 
0.357191 0.357204 0.357216 0.357212 0.357194 0.355876 0.353412 0.350233 0.339919 
0.339747 0.339569 0.339386 0.3392 0.339016 0.338833 0.338656 0.338485 0.338323 
0.338171 0.338029 0.337897 0.337777 0.337667 0.337568 0.337478 0.337397 0.337325 
0.33726 0.337202 0.33715 0.337103 0.337062 0.337024 0.336991 0.336962 0.336935 
0.336912 0.336891 0.336872 0.336855 0.33684 0.336826 0.336813 0.336802 0.33679 
0.33678 0.336769 0.336758 0.336746 0.336734 0.336721 0.336706 0.336689 0.336671 
0.33665 0.336626 0.336599 0.336568 0.336533 0.336494 0.33645 0.3364 0.336345 
0.336284 0.336216 0.336142 0.336062 0.335977 0.335885 0.335789 0.335689 0.335587 
0.335484 0.335381 0.335281 0.335187 0.3351 0.335023 0.334958 0.334906 0.33487 
0.33485 0.334846 0.33486 0.33489 0.334936 0.334996 0.335069 0.335154 0.335248 
0.335349 0.335457 0.335569 0.335683 0.335798 0.335912 0.336022 0.336129 0.336229 
0.336322 0.336407 0.336482 0.336547 0.336601 0.336645 0.336679 0.336704 0.336721 
0.336731 0.336738 0.336743 0.336748 0.336757 0.336771 0.336792 0.336821 0.336861 
0.336911 0.336971 0.337039 0.337115 0.337197 0.337283 0.337371 0.337458 0.337542 
0.337623 0.337698 0.337767 0.337827 0.337879 0.337921 0.337954 0.337976 0.337987 
0.337989 0.33798 0.33796 0.337932 0.337893 0.337846 0.337792 0.33773 0.337662 
0.337588 0.337511 0.337431 0.337349 0.337267 0.337185 0.337105 0.337027 0.336953 
0.336885 0.336821 0.336763 0.336712 0.336666 0.336628 0.336595 0.336569 0.336549 
0.336533 0.336523 0.336517 0.336514 0.336515 0.336519 0.336525 0.336533 0.336543 
0.336555 0.336568 0.336583 0.336599 0.336616 0.336636 0.336657 0.336679 0.336704 
0.336732 0.336763 0.336798 0.336838 0.336885 0.336939 0.337001 0.337074 0.33716 
0.337262 0.33738 0.337519 0.337678 0.337863 0.338076 0.338319 0.338597 0.338915 
0.33927 0.339671 0.340122 0.340616 0.341161 0.34176 0.342417 0.343148 0.343968 
0.344881 0.348512 0.349339 0.35004 0.350682 0.351267 0.351798 0.352275 0.352702 
0.353083 0.353423 0.353725 0.353995 0.354235 0.354449 0.354641 0.354813 0.354967 
0.355105 0.35523 0.355342 0.355444 0.355537 0.355621 0.355698 0.355768 0.355832 
0.355891 0.355945 0.355996 0.356042 0.356086 0.356126 0.356164 0.356199 0.356232 
0.356264 0.356294 0.356322 0.356349 0.356374 0.356399 0.356422 0.356445 0.356467 
0.356488 0.356508 0.356528 0.356547 0.356566 0.356584 0.356602 0.35662 0.356637 
0.356654 0.356671 0.356687 0.356704 0.356719 0.356735 0.356751 0.356766 0.356781 
0.356797 0.356812 0.356826 0.356841 0.356856 0.35687 0.356884 0.356899 0.356913 
0.356927 0.356941 0.356955 0.356969 0.356982 0.356996 0.35701 0.357023 0.357036 
0.35705 0.357063 0.357076 0.357089 0.357102 0.357115 0.357128 0.357141 0.357154 
0.357166 0.357179 0.357191 0.357204 0.357216 0.357212 0.357194 0.355876 0.353412 
0.350233 0.339915 0.339736 0.33955 0.33936 0.339168 0.338976 0.338789 0.338607 
0.338433 0.338269 0.338116 0.337974 0.337844 0.337726 0.337619 0.337523 0.337437 
0.33736 0.337291 0.337229 0.337174 0.337125 0.337081 0.337042 0.337007 0.336976 
0.336948 0.336923 0.336901 0.336882 0.336865 0.336849 0.336835 0.336823 0.336811 
0.336801 0.336791 0.336782 0.336772 0.336763 0.336752 0.336742 0.33673 0.336716 
0.336701 0.336684 0.336664 0.336642 0.336616 0.336586 0.336552 0.336514 0.33647 
0.33642 0.336364 0.336302 0.336233 0.336156 0.336073 0.335983 0.335887 0.335785 
0.335679 0.335569 0.335458 0.335347 0.33524 0.335137 0.335043 0.334959 0.334889 
0.334833 0.334795 0.334774 0.334772 0.334789 0.334823 0.334874 0.33494 0.33502 
0.335111 0.335212 0.335322 0.335437 0.335557 0.335679 0.335801 0.335921 0.336039 
0.336151 0.336257 0.336355 0.336443 0.336521 0.336587 0.336642 0.336684 0.336714 
0.336734 0.336744 0.336747 0.336745 0.336741 0.336738 0.336738 0.336744 0.33676 
0.336786 0.336823 0.336873 0.336935 0.337008 0.33709 0.337179 0.337272 0.337367 
0.337462 0.337554 0.337641 0.337723 0.337796 0.337861 0.337916 0.337962 0.337996 
0.33802 0.338033 0.338034 0.338024 0.338003 0.337972 0.337931 0.337881 0.337822 
0.337755 0.337682 0.337604 0.337521 0.337436 0.337349 0.337261 0.337174 0.33709 
0.337009 0.336932 0.33686 0.336794 0.336734 0.336682 0.336637 0.336599 0.336567 
0.336542 0.336524 0.336511 0.336503 0.336499 0.336498 0.336501 0.336506 0.336515 
0.336525 0.336536 0.336547 0.33656 0.336575 0.336592 0.33661 0.336629 0.336648 
0.336669 0.336692 0.336718 0.336746 0.336778 0.336812 0.336851 0.336898 0.336953 
0.337019 0.337096 0.337186 0.33729 0.337413 0.337559 0.337728 0.337924 0.338149 
0.338402 0.338692 0.339027 0.339405 0.339831 0.340321 0.34084 0.341401 0.342056 
0.342807 0.343635 0.344694 0.348395 0.349376 0.350092 0.350759 0.351364 0.351907 
0.35239 0.352818 0.353197 0.353532 0.353828 0.354091 0.354324 0.354531 0.354716 
0.354881 0.355028 0.355161 0.35528 0.355388 0.355485 0.355574 0.355654 0.355727 
0.355794 0.355856 0.355913 0.355965 0.356013 0.356058 0.3561 0.356139 0.356175 
0.356209 0.356242 0.356272 0.356301 0.356328 0.356355 0.35638 0.356403 0.356427 
0.356449 0.35647 0.356491 0.356511 0.356531 0.35655 0.356568 0.356586 0.356604 
0.356622 0.356639 0.356655 0.356672 0.356688 0.356704 0.35672 0.356736 0.356751 
0.356767 0.356782 0.356797 0.356812 0.356827 0.356841 0.356856 0.35687 0.356885 
0.356899 0.356913 0.356927 0.356941 0.356955 0.356969 0.356982 0.356996 0.35701 
0.357023 0.357037 0.35705 0.357063 0.357076 0.357089 0.357102 0.357115 0.357128 
0.357141 0.357154 0.357166 0.357179 0.357191 0.357204 0.357216 0.357212 0.357194 
0.355876 0.353412 0.350233 0.339911 0.339722 0.339527 0.339327 0.339126 0.338927 
0.338732 0.338545 0.338368 0.338202 0.338048 0.337907 0.33778 0.337665 0.337562 
0.33747 0.337388 0.337315 0.337251 0.337193 0.337142 0.337096 0.337056 0.337019 
0.336987 0.336958 0.336932 0.33691 0.33689 0.336872 0.336856 0.336842 0.33683 
0.336819 0.336809 0.3368 0.336792 0.336784 0.336776 0.336768 0.336759 0.33675 
0.33674 0.336728 0.336715 0.336699 0.336681 0.33666 0.336636 0.336608 0.336575 
0.336537 0.336494 0.336444 0.336388 0.336325 0.336253 0.336174 0.336087 0.335992 
0.33589 0.335781 0.335666 0.335548 0.335427 0.335306 0.335188 0.335076 0.334972 
0.33488 0.334803 0.334743 0.334702 0.334681 0.334681 0.334701 0.334741 0.334799 
0.334873 0.33496 0.33506 0.33517 0.335289 0.335414 0.335543 0.335673 0.335804 
0.335933 0.336059 0.336179 0.336291 0.336395 0.336489 0.33657 0.336638 0.336692 
0.336732 0.336758 0.336772 0.336774 0.336767 0.336754 0.336739 0.336724 0.336714 
0.336711 0.336718 0.336739 0.336775 0.336825 0.33689 0.336969 0.337058 0.337156 
0.337258 0.337363 0.337467 0.337569 0.337664 0.337752 0.337832 0.337902 0.337962 
0.338011 0.338048 0.338074 0.338087 0.338088 0.338078 0.338055 0.338021 0.337976 
0.337922 0.337858 0.337786 0.337707 0.337622 0.337533 0.337441 0.337347 0.337253 
0.337161 0.337071 0.336984 0.336903 0.336828 0.33676 0.336699 0.336646 0.3366 
0.336563 0.336533 0.336511 0.336495 0.336484 0.336478 0.336477 0.33648 0.336486 
0.336494 0.336503 0.336513 0.336525 0.336539 0.336554 0.33657 0.336585 0.336601 
0.336619 0.336638 0.33666 0.336681 0.336703 0.336725 0.33675 0.33678 0.336816 
0.336856 0.336902 0.336953 0.337015 0.337093 0.337188 0.337298 0.337425 0.337572 
0.337742 0.33794 0.338174 0.33844 0.338741 0.339086 0.339483 0.339923 0.340433 
0.340994 0.341637 0.342404 0.343286 0.344296 0.348419 0.349364 0.350153 0.350861 
0.35149 0.352047 0.352535 0.352963 0.353337 0.353665 0.353954 0.354207 0.354431 
0.354629 0.354805 0.354962 0.355102 0.355227 0.35534 0.355442 0.355534 0.355617 
0.355693 0.355763 0.355826 0.355884 0.355938 0.355988 0.356034 0.356076 0.356116 
0.356153 0.356188 0.356221 0.356252 0.356282 0.35631 0.356336 0.356362 0.356386 
0.356409 0.356432 0.356453 0.356474 0.356495 0.356514 0.356533 0.356552 0.356571 
0.356588 0.356606 0.356623 0.35664 0.356657 0.356673 0.356689 0.356705 0.356721 
0.356737 0.356752 0.356767 0.356783 0.356798 0.356812 0.356827 0.356842 0.356856 
0.356871 0.356885 0.356899 0.356913 0.356927 0.356941 0.356955 0.356969 0.356983 
0.356996 0.35701 0.357023 0.357037 0.35705 0.357063 0.357076 0.357089 0.357102 
0.357115 0.357128 0.357141 0.357154 0.357166 0.357179 0.357192 0.357204 0.357216 
0.357212 0.357194 0.355876 0.353412 0.350233 0.339905 0.339705 0.339498 0.339287 
0.339075 0.338866 0.338664 0.33847 0.338289 0.338121 0.337967 0.337828 0.337703 
0.337592 0.337494 0.337408 0.337332 0.337264 0.337205 0.337152 0.337106 0.337064 
0.337027 0.336994 0.336964 0.336938 0.336915 0.336894 0.336876 0.33686 0.336846 
0.336834 0.336823 0.336814 0.336806 0.336798 0.336792 0.336786 0.33678 0.336773 
0.336767 0.33676 0.336751 0.336741 0.33673 0.336716 0.3367 0.336681 0.336659 
0.336633 0.336601 0.336565 0.336522 0.336473 0.336416 0.336352 0.336278 0.336196 
0.336104 0.336004 0.335894 0.335777 0.335652 0.335523 0.33539 0.335257 0.335126 
0.335001 0.334886 0.334784 0.334699 0.334633 0.334589 0.334568 0.33457 0.334596 
0.334643 0.33471 0.334793 0.334891 0.335001 0.335122 0.335252 0.335388 0.335527 
0.335669 0.335809 0.335948 0.336083 0.336211 0.336333 0.336444 0.336544 0.33663 
0.3367 0.336755 0.336792 0.336814 0.336819 0.336811 0.336792 0.336766 0.336737 
0.336708 0.336684 0.336669 0.336667 0.336681 0.336713 0.336765 0.336834 0.33692 