# vtk DataFile Version 5.1
vtk output
ASCII
DATASET UNSTRUCTURED_GRID
POINTS 616 double
-10.1 1.299999997 1.2778182068e-08 -9.899999997 1.299999997 6.2261822364e-09 -9.899999997 1.5 1.3077440144e-06 
-9.699999994 1.299999997 5.4658446658e-09 -9.699999994 1.5 1.1368626929e-06 -9.4999999911 1.299999997 5.1165987003e-09 
-9.4999999911 1.5 1.0737182947e-06 -9.2999999881 1.299999997 4.9692605586e-09 -9.2999999881 1.5 1.0511701021e-06 
-9.0999999851 1.299999997 4.9456136963e-09 -9.0999999851 1.5 1.0498367828e-06 -8.8999999821 1.299999997 5.0383821559e-09 
-8.8999999821 1.5 1.062340516e-06 -8.6999999791 1.299999997 5.1220556685e-09 -8.6999999791 1.5 1.0816945633e-06 
-8.4999999762 1.299999997 5.2684843155e-09 -8.4999999762 1.5 1.1117933809e-06 -8.2999999732 1.299999997 5.4303743724e-09 
-8.2999999732 1.5 1.1496074421e-06 -8.0999999702 1.299999997 5.6240967439e-09 -8.0999999702 1.5 1.1947211078e-06 
-7.8999999672 1.299999997 5.9533338259e-09 -7.8999999672 1.5 1.2472471553e-06 -7.6999999642 1.299999997 6.2216347629e-09 
-7.6999999642 1.5 1.3075584775e-06 -7.4999999613 1.299999997 6.5072160993e-09 -7.4999999613 1.5 1.376303544e-06 
-7.2999999583 1.299999997 6.9437735561e-09 -7.2999999583 1.5 1.4542872577e-06 -7.0999999553 1.299999997 7.2793771011e-09 
-7.0999999553 1.5 1.5310176877e-06 -6.8999999523 1.299999997 7.7741422189e-09 -6.8999999523 1.5 1.6298988612e-06 
-6.6999999493 1.299999997 8.2820950098e-09 -6.6999999493 1.5 1.7424297312e-06 -6.4999999464 1.299999997 8.8873637338e-09 
-6.4999999464 1.5 1.8710959466e-06 -6.2999999434 1.299999997 9.5785797072e-09 -6.2999999434 1.5 2.0190702799e-06 
-6.0999999404 1.299999997 1.041758857e-08 -6.0999999404 1.5 2.1905323138e-06 -5.8999999374 1.299999997 1.1353913365e-08 
-5.8999999374 1.5 2.3911131848e-06 -5.6999999344 1.299999997 1.2469863364e-08 -5.6999999344 1.5 2.6284953947e-06 
-5.4999999315 1.299999997 1.3644021024e-08 -5.4999999315 1.5 2.8747879242e-06 -5.2999999285 1.299999997 1.5277700882e-08 
-5.2999999285 1.5 3.2142240798e-06 -5.0999999255 1.299999997 1.7282909326e-08 -5.0999999255 1.5 3.6374453884e-06 
-4.8999999225 1.299999997 1.9851322364e-08 -4.8999999225 1.5 4.1802341002e-06 -4.6999999195 1.299999997 2.329807991e-08 
-4.6999999195 1.5 4.9014583965e-06 -4.4999999166 1.299999997 2.8066333257e-08 -4.4999999166 1.5 5.9025178416e-06 
-4.2999999136 1.299999997 3.499350143e-08 -4.2999999136 1.5 7.3554924711e-06 -4.0999999106 1.299999997 4.4736008675e-08 
-4.0999999106 1.5 9.4343968158e-06 -3.8999999076 1.299999997 4.4859586268e-08 -3.8999999076 1.5 1.0337053027e-05 
-3.6999999046 1.299999997 -7.5729772107e-06 -3.6999999046 1.5 -0.0001466779504 -3.4999999017 1.299999997 0.12612855434 
-3.4999999017 1.5 0.10799186677 -3.2999998987 1.299999997 0.28606125712 -3.2999998987 1.5 0.2491863817 
-3.0999998957 1.299999997 0.37464648485 -3.0999998957 1.5 0.38305571675 -2.8999998927 1.299999997 0.39244168997 
-2.8999998927 1.5 0.42139530182 -2.6999998897 1.299999997 0.36719620228 -2.6999998897 1.5 0.40130838752 
-2.4999998868 1.299999997 0.33923625946 -2.4999998868 1.5 0.37819835544 -2.2999998838 1.299999997 0.32892349362 
-2.2999998838 1.5 0.34524029493 -2.0999998808 1.299999997 0.30701631308 -2.0999998808 1.5 0.31636568904 
-1.8999998778 1.299999997 0.2799410224 -1.8999998778 1.5 0.32469910383 -1.6999998748 1.299999997 0.26640835404 
-1.6999998748 1.5 0.29974764585 -1.4999998719 1.299999997 0.23330229521 -1.4999998719 1.5 0.27182561159 
-1.2999998689 1.299999997 0.20528158545 -1.2999998689 1.5 0.24734319746 -1.0999998659 1.299999997 0.17295633256 
-1.0999998659 1.5 0.2166607976 -0.89999986291 1.299999997 0.15012282133 -0.89999986291 1.5 0.18729224801 
-0.69999985993 1.299999997 0.11436620355 -0.69999985993 1.5 0.16458268464 -0.49999985695 1.299999997 0.090280137956 
-0.49999985695 1.5 0.14333041012 -0.29999985397 1.299999997 0.079202197492 -0.29999985397 1.5 0.12865009904 
-0.099999850988 1.299999997 0.083886146545 -0.099999850988 1.5 0.13605388999 0.10000015199 1.299999997 0.097786292434 
0.10000015199 1.5 0.15684975684 0.30000015497 1.299999997 0.12854489684 0.30000015497 1.5 0.19896392524 
0.50000015795 1.299999997 0.19978386164 0.50000015795 1.5 0.27765759826 0.70000016093 1.299999997 0.276691854 
0.70000016093 1.5 0.2799937129 0.90000016391 1.299999997 0.28372615576 0.90000016391 1.5 0.28347417712 
1.1000001669 1.299999997 0.28700006008 1.1000001669 1.5 0.28701299429 1.3000001699 1.299999997 0.28700006008 
1.3000001699 1.5 0.28701177239 1.5000001729 1.299999997 0.28700006008 1.5000001729 1.5 0.28701028228 
1.7000001758 1.299999997 0.28700003028 1.7000001758 1.5 0.28700885177 1.9000001788 1.299999997 0.28700003028 
1.9000001788 1.5 0.28700762987 2.1000001818 1.299999997 0.28700003028 2.1000001818 1.5 0.28700661659 
2.3000001848 1.299999997 0.28700003028 2.3000001848 1.5 0.28700578213 2.5000001878 1.299999997 0.28700003028 
2.5000001878 1.5 0.28700518608 2.7000001907 1.299999997 0.28700003028 2.7000001907 1.5 0.28700461984 
2.9000001937 1.299999997 0.28700003028 2.9000001937 1.5 0.287004143 3.1000001967 1.299999997 0.28700003028 
3.1000001967 1.5 0.28700372577 3.3000001997 1.299999997 0.28700003028 3.3000001997 1.5 0.28700339794 
3.5000002027 1.299999997 0.28700000048 3.5000002027 1.5 0.28700312972 3.7000002056 1.299999997 0.28700000048 
3.7000002056 1.5 0.2870028913 3.9000002086 1.299999997 0.28700000048 3.9000002086 1.5 0.28700268269 
4.1000002116 1.299999997 0.28700000048 4.1000002116 1.5 0.28700253367 4.3000002146 1.299999997 0.28700000048 
4.3000002146 1.5 0.28700241446 4.5000002176 1.299999997 0.28700000048 4.5000002176 1.5 0.28700232506 
4.7000002205 1.299999997 0.28700000048 4.7000002205 1.5 0.28700229526 4.9000002235 1.299999997 0.28700000048 
4.9000002235 1.5 0.28700241446 5.08 1.299999997 0.28700017929 -9.899999997 1.099999994 5.7989391067e-11 
-10.1 1.099999994 1.9679282648e-09 -9.699999994 1.099999994 2.888556061e-11 -9.4999999911 1.099999994 -7.4942274608e-12 
-9.2999999881 1.099999994 1.6007195569e-12 -9.0999999851 1.099999994 8.8912210927e-11 -8.8999999821 1.099999994 2.5247581803e-11 
-8.6999999791 1.099999994 4.8894444049e-11 -8.4999999762 1.099999994 4.434697054e-11 -8.2999999732 1.099999994 1.7062129487e-11 
-8.0999999702 1.099999994 5.8898885769e-11 -7.8999999672 1.099999994 2.4338087101e-11 -7.6999999642 1.099999994 2.3428592399e-11 
-7.4999999613 1.099999994 4.0708991733e-11 -7.2999999583 1.099999994 3.3433034119e-11 -7.0999999553 1.099999994 4.3437475838e-11 
-6.8999999523 1.099999994 4.0708991733e-11 -6.6999999493 1.099999994 7.9817263909e-11 -6.4999999464 1.099999994 4.434697054e-11 
-6.2999999434 1.099999994 8.5728979471e-11 -6.0999999404 1.099999994 5.5715654312e-11 -5.8999999374 1.099999994 8.0726758611e-11 
-5.6999999344 1.099999994 8.1636253313e-11 -5.4999999315 1.099999994 6.7084338085e-11 -5.2999999285 1.099999994 8.8457463576e-11 
-5.0999999255 1.099999994 1.030093788e-10 -4.8999999225 1.099999994 1.1210432582e-10 -4.6999999195 1.099999994 1.2574674635e-10 
-4.4999999166 1.099999994 1.4279977201e-10 -4.2999999136 1.099999994 1.8145329683e-10 -4.0999999106 1.099999994 2.3283974748e-10 
-3.8999999076 1.099999994 1.9589152522e-10 -3.6999999046 1.099999994 -8.2457509052e-06 -3.4999999017 1.099999994 0.14279773831 
-3.2999998987 1.099999994 0.31201174855 -3.0999998957 1.099999994 0.36408799887 -2.8999998927 1.099999994 0.35792157054 
-2.6999998897 1.099999994 0.33521261811 -2.4999998868 1.099999994 0.32014036179 -2.2999998838 1.099999994 0.30518078804 
-2.0999998808 1.099999994 0.28633624315 -1.8999998778 1.099999994 0.25885534286 -1.6999998748 1.099999994 0.23259860277 
-1.4999998719 1.099999994 0.19522224367 -1.2999998689 1.099999994 0.15535268188 -1.0999998659 1.099999994 0.1097323671 
-0.89999986291 1.099999994 0.071620844305 -0.69999985993 1.099999994 0.032459154725 -0.49999985695 1.099999994 0.0040431562811 
-0.29999985397 1.099999994 0.00079407443991 -0.099999850988 1.099999994 -0.00084579060785 0.10000015199 1.099999994 0.011664403602 
0.30000015497 1.099999994 0.059835709631 0.50000015795 1.099999994 0.11321287602 0.70000016093 1.099999994 0.22431245446 
0.90000016391 1.099999994 0.28369376063 1.1000001669 1.099999994 0.28700000048 1.3000001699 1.099999994 0.28700000048 
1.5000001729 1.099999994 0.28700000048 1.7000001758 1.099999994 0.28700000048 1.9000001788 1.099999994 0.28700000048 
2.1000001818 1.099999994 0.28700000048 2.3000001848 1.099999994 0.28700000048 2.5000001878 1.099999994 0.28700000048 
2.7000001907 1.099999994 0.28700000048 2.9000001937 1.099999994 0.28700000048 3.1000001967 1.099999994 0.28700000048 
3.3000001997 1.099999994 0.28700000048 3.5000002027 1.099999994 0.28700000048 3.7000002056 1.099999994 0.28700000048 
3.9000002086 1.099999994 0.28700000048 4.1000002116 1.099999994 0.28700000048 4.3000002146 1.099999994 0.28700000048 
4.5000002176 1.099999994 0.28700000048 4.7000002205 1.099999994 0.28700000048 4.9000002235 1.099999994 0.28700000048 
5.08 1.099999994 0.28700017929 -9.899999997 0.89999999106 3.9799497031e-11 -10.1 0.89999999106 1.5259138397e-09 
-9.699999994 0.89999999106 2.7066571207e-11 -9.4999999911 0.89999999106 -4.5693004935e-11 -9.2999999881 0.89999999106 6.7084338085e-11 
-9.0999999851 0.89999999106 1.0695666575e-11 -8.8999999821 0.89999999106 3.5597969017e-11 -8.6999999791 0.89999999106 7.0576877675e-12 
-8.4999999762 0.89999999106 -6.5847327591e-12 -8.2999999732 0.89999999106 2.5563551276e-11 -8.0999999702 0.89999999106 -3.2050584409e-11 
-7.8999999672 0.89999999106 2.9795055312e-11 -7.6999999642 0.89999999106 -4.6602499637e-11 -7.4999999613 0.89999999106 4.0708991733e-11 
-7.2999999583 0.89999999106 4.434697054e-11 -7.0999999553 0.89999999106 -1.204170097e-11 -6.8999999523 0.89999999106 1.8881118891e-11 
-6.6999999493 0.89999999106 -3.4015013028e-12 -6.4999999464 0.89999999106 1.2514655978e-11 -6.2999999434 0.89999999106 9.331424522e-12 
-6.0999999404 0.89999999106 1.8881118891e-11 -5.8999999374 0.89999999106 2.2064350347e-11 -5.6999999344 0.89999999106 -5.6752380573e-12 
[...]
CELL_DATA 532
FIELD FieldData 4
Water_Depth_m 1 532 float
0.584003 0.584007 0.584012 0.584016 0.584021 0.584026 0.58403 0.584035 0.58404 
0.584044 0.584049 0.584054 0.584058 0.584063 0.584067 0.584072 0.584077 0.584081 
0.584086 0.584091 0.584095 0.5841 0.584105 0.584109 0.584114 0.584119 0.584123 
0.584128 0.584132 0.584137 0.584144 0.584165 0.584469 0.578087 0.479305 0.324024 
0.207621 0.206505 0.228844 0.242507 0.243214 0.245196 0.257961 0.269671 0.278111 
0.303235 0.329208 0.423429 0.549165 0.583287 0.659644 0.658258 0.525838 0.404856 
0.369172 0.36919 0.369211 0.369232 0.369253 0.369274 0.369296 0.369317 0.369339 
0.369361 0.369383 0.369405 0.369427 0.369449 0.369472 0.369494 0.369515 0.369537 
0.369557 0.369576 0.36959 0.362293 0.584002 0.584007 0.584011 0.584016 0.584021 
0.584025 0.58403 0.584035 0.584039 0.584044 0.584048 0.584053 0.584058 0.584062 
0.584067 0.584072 0.584076 0.584081 0.584085 0.58409 0.584094 0.584099 0.584104 
0.584108 0.584113 0.584117 0.584121 0.584125 0.584129 0.584133 0.584136 0.584138 
0.584208 0.578517 0.486465 0.337192 0.219682 0.204986 0.216216 0.223917 0.230523 
0.246654 0.256083 0.272785 0.288334 0.31203 0.341794 0.41873 0.545905 0.579954 
0.659229 0.657824 0.525825 0.404848 0.369165 0.369185 0.369206 0.369227 0.369249 
0.369271 0.369293 0.369315 0.369337 0.36936 0.369382 0.369404 0.369426 0.369448 
0.36947 0.369493 0.369515 0.369536 0.369558 0.36958 0.3696 0.362282 0.584002 
0.584007 0.584012 0.584016 0.584021 0.584026 0.58403 0.584035 0.584039 0.584044 
0.584049 0.584053 0.584058 0.584063 0.584067 0.584072 0.584076 0.584081 0.584086 
0.58409 0.584095 0.584099 0.584104 0.584108 0.584113 0.584117 0.584122 0.584126 
0.58413 0.584135 0.584139 0.584145 0.584211 0.579123 0.497206 0.3661 0.261038 
0.233503 0.231372 0.214656 0.221665 0.238264 0.248239 0.266749 0.281711 0.303191 
0.324258 0.402405 0.525377 0.58147 0.659238 0.657828 0.525826 0.404841 0.369163 
0.369184 0.369205 0.369227 0.369249 0.369271 0.369293 0.369315 0.369337 0.369359 
0.369382 0.369404 0.369426 0.369448 0.369471 0.369493 0.369515 0.369537 0.36956 
0.369584 0.369607 0.362281 0.584002 0.584007 0.584012 0.584017 0.584021 0.584026 
0.584031 0.584035 0.58404 0.584044 0.584049 0.584054 0.584058 0.584063 0.584067 
0.584072 0.584077 0.584081 0.584086 0.584091 0.584095 0.5841 0.584104 0.584109 
0.584114 0.584118 0.584123 0.584127 0.584132 0.584137 0.584143 0.58415 0.584205 
0.579426 0.503048 0.383443 0.291093 0.25682 0.25344 0.233556 0.226153 0.217196 
0.214832 0.222124 0.229792 0.26194 0.317013 0.441634 0.53353 0.585792 0.659192 
0.65782 0.525807 0.404842 0.369159 0.369181 0.369204 0.369226 0.369248 0.36927 
0.369293 0.369315 0.369337 0.369359 0.369382 0.369404 0.369426 0.369448 0.369471 
0.369493 0.369516 0.369538 0.369561 0.369585 0.36961 0.362281 0.584002 0.584007 
0.584012 0.584017 0.584021 0.584026 0.584031 0.584035 0.58404 0.584044 0.584049 
0.584054 0.584058 0.584063 0.584068 0.584072 0.584077 0.584081 0.584086 0.584091 
0.584095 0.5841 0.584104 0.584109 0.584114 0.584119 0.584123 0.584128 0.584133 
0.584139 0.584145 0.584152 0.584206 0.579415 0.502999 0.383341 0.291282 0.256799 
0.25359 0.243993 0.239597 0.241331 0.242839 0.246642 0.256151 0.268096 0.322212 
0.433071 0.537695 0.585758 0.658712 0.657807 0.525811 0.404836 0.369156 0.369179 
0.369202 0.369225 0.369247 0.36927 0.369292 0.369315 0.369337 0.369359 0.369382 
0.369404 0.369426 0.369449 0.369471 0.369493 0.369516 0.369538 0.369561 0.369585 
0.36961 0.362281 0.584002 0.584007 0.584012 0.584017 0.584021 0.584026 0.58403 
0.584035 0.58404 0.584044 0.584049 0.584054 0.584058 0.584063 0.584067 0.584072 
0.584077 0.584081 0.584086 0.58409 0.584095 0.5841 0.584104 0.584109 0.584114 
0.584119 0.584124 0.584129 0.584134 0.58414 0.584146 0.584153 0.584218 0.579133 
0.497968 0.36913 0.268213 0.246233 0.247729 0.252019 0.26049 0.269128 0.281895 
0.296447 0.309023 0.321029 0.345528 0.454444 0.551491 0.585688 0.658745 0.657805 
0.525798 0.404831 0.369153 0.369178 0.369201 0.369224 0.369247 0.36927 0.369292 
0.369315 0.369337 0.369359 0.369382 0.369404 0.369426 0.369449 0.369471 0.369493 
0.369516 0.369538 0.369561 0.369584 0.369607 0.362282 0.584003 0.584007 0.584012 
0.584016 0.584021 0.584025 0.58403 0.584035 0.584039 0.584044 0.584048 0.584053 
0.584058 0.584062 0.584067 0.584072 0.584076 0.584081 0.584085 0.58409 0.584095 
0.584099 0.584104 0.584109 0.584114 0.584119 0.584124 0.584129 0.584134 0.58414 
0.584146 0.584168 0.584456 0.578526 0.487279 0.341327 0.231465 0.232105 0.237876 
0.251321 0.257306 0.26754 0.28089 0.292898 0.307766 0.320286 0.345495 0.458289 
0.553504 0.584836 0.659025 0.658167 0.525569 0.404764 0.369161 0.369178 0.369201 
0.369224 0.369247 0.36927 0.369292 0.369315 0.369337 0.369359 0.369382 0.369404 
0.369426 0.369449 0.369471 0.369493 0.369516 0.369538 0.36956 0.369581 0.3696 
0.362287 
Water_Elev_m 1 532 float
0.584002 0.584007 0.584011 0.584016 0.584021 0.584025 0.58403 0.584034 0.584039 
0.584044 0.584048 0.584053 0.584058 0.584062 0.584067 0.584071 0.584076 0.584081 
0.584085 0.58409 0.584094 0.584099 0.584103 0.584108 0.584112 0.584117 0.584121 
0.584125 0.584128 0.584131 0.584133 0.584133 0.584102 0.583611 0.582046 0.577685 
0.575394 0.577166 0.578048 0.578335 0.578267 0.57912 0.579824 0.580535 0.58111 
0.582182 0.583529 0.585835 0.587262 0.587922 0.65836 0.657796 0.656728 0.656148 
0.656166 0.656186 0.656207 0.656228 0.656249 0.656271 0.656293 0.656315 0.656337 
0.656359 0.656382 0.656404 0.656426 0.656448 0.65647 0.656492 0.656514 0.656536 
0.656556 0.656575 0.656589 0.649289 0.584002 0.584007 0.584011 0.584016 0.584021 
0.584025 0.58403 0.584035 0.584039 0.584044 0.584048 0.584053 0.584058 0.584062 
0.584067 0.584072 0.584076 0.584081 0.584085 0.58409 0.584094 0.584099 0.584104 
0.584108 0.584113 0.584117 0.584121 0.584125 0.584129 0.584133 0.584136 0.584138 
0.584115 0.583623 0.582056 0.577769 0.575725 0.577187 0.577623 0.577986 0.57835 
0.579155 0.579714 0.580422 0.581065 0.582168 0.583559 0.585803 0.587259 0.58796 
0.658391 0.657809 0.656731 0.656145 0.656165 0.656185 0.656206 0.656227 0.656249 
0.656271 0.656293 0.656315 0.656337 0.656359 0.656382 0.656404 0.656426 0.656448 
0.65647 0.656493 0.656515 0.656537 0.656558 0.65658 0.6566 0.649281 0.584002 
0.584007 0.584012 0.584016 0.584021 0.584026 0.58403 0.584035 0.584039 0.584044 
0.584049 0.584053 0.584058 0.584063 0.584067 0.584072 0.584076 0.584081 0.584086 
0.58409 0.584095 0.584099 0.584104 0.584108 0.584113 0.584117 0.584122 0.584126 
0.58413 0.584135 0.584139 0.584145 0.584128 0.583605 0.582022 0.578247 0.576323 
0.576979 0.577231 0.577681 0.578121 0.578929 0.579508 0.580234 0.580781 0.581967 
0.58361 0.586062 0.587324 0.588001 0.658403 0.657814 0.656731 0.656143 0.656163 
0.656184 0.656205 0.656227 0.656249 0.656271 0.656293 0.656315 0.656337 0.656359 
0.656382 0.656404 0.656426 0.656448 0.656471 0.656493 0.656515 0.656537 0.65656 
0.656584 0.656607 0.649281 0.584002 0.584007 0.584012 0.584017 0.584021 0.584026 
0.584031 0.584035 0.58404 0.584044 0.584049 0.584054 0.584058 0.584063 0.584067 
0.584072 0.584077 0.584081 0.584086 0.584091 0.584095 0.5841 0.584104 0.584109 
0.584114 0.584118 0.584123 0.584127 0.584132 0.584137 0.584143 0.58415 0.584132 
0.583565 0.581942 0.578746 0.57671 0.577251 0.57724 0.577383 0.577906 0.578603 
0.579278 0.579871 0.580438 0.581825 0.583861 0.586319 0.587339 0.587995 0.658389 
0.657805 0.656725 0.656137 0.656159 0.656181 0.656204 0.656226 0.656248 0.65627 
0.656293 0.656315 0.656337 0.656359 0.656382 0.656404 0.656426 0.656448 0.656471 
0.656493 0.656515 0.656538 0.656561 0.656585 0.65661 0.649281 0.584002 0.584007 
0.584012 0.584017 0.584021 0.584026 0.584031 0.584035 0.58404 0.584044 0.584049 
0.584054 0.584058 0.584063 0.584068 0.584072 0.584077 0.584081 0.584086 0.584091 
0.584095 0.5841 0.584104 0.584109 0.584114 0.584119 0.584123 0.584128 0.584133 
0.584139 0.584145 0.584152 0.584133 0.583555 0.581893 0.578644 0.576737 0.57727 
0.57739 0.577686 0.5781 0.578653 0.579147 0.579814 0.580407 0.581591 0.583777 
0.586378 0.587356 0.587961 0.658369 0.657793 0.656715 0.656131 0.656156 0.656179 
0.656202 0.656225 0.656247 0.65627 0.656292 0.656315 0.656337 0.656359 0.656382 
0.656404 0.656426 0.656449 0.656471 0.656493 0.656516 0.656538 0.656561 0.656585 
0.65661 0.649281 0.584002 0.584007 0.584012 0.584017 0.584021 0.584026 0.58403 
0.584035 0.58404 0.584044 0.584049 0.584054 0.584058 0.584063 0.584067 0.584072 
0.584077 0.584081 0.584086 0.58409 0.584095 0.5841 0.584104 0.584109 0.584114 
0.584119 0.584124 0.584129 0.584134 0.58414 0.584146 0.584153 0.584134 0.583572 
0.581874 0.578146 0.576405 0.577493 0.577739 0.578061 0.578382 0.578807 0.579249 
0.580015 0.580626 0.581687 0.583561 0.5862 0.587262 0.587876 0.65837 0.65779 
0.65671 0.656128 0.656153 0.656178 0.656201 0.656224 0.656247 0.65627 0.656292 
0.656315 0.656337 0.656359 0.656382 0.656404 0.656426 0.656449 0.656471 0.656493 
0.656516 0.656538 0.656561 0.656584 0.656607 0.649282 0.584002 0.584007 0.584011 
0.584016 0.584021 0.584025 0.58403 0.584034 0.584039 0.584044 0.584048 0.584053 
0.584058 0.584062 0.584067 0.584071 0.584076 0.584081 0.584085 0.58409 0.584095 
0.584099 0.584104 0.584109 0.584113 0.584118 0.584123 0.584128 0.584134 0.58414 
0.584146 0.584152 0.584128 0.583601 0.581933 0.577429 0.576164 0.577664 0.578232 
0.578543 0.578416 0.578875 0.579302 0.579874 0.580663 0.581828 0.583743 0.586259 
0.587235 0.587829 0.658362 0.657785 0.656706 0.656127 0.656152 0.656176 0.6562 
0.656224 0.656246 0.656269 0.656292 0.656314 0.656337 0.656359 0.656382 0.656404 
0.656426 0.656449 0.656471 0.656493 0.656515 0.656538 0.65656 0.656581 0.6566 
0.649287 
Velocity_cell_m_p_s 3 532 double
-0.14493621886 3.7307960156e-05 -0 -0.14485706389 4.0431412344e-05 -0 -0.14477331936 4.2178766307e-05 -0 
-0.14468681812 4.3179650675e-05 -0 -0.14459872246 4.3782933062e-05 -0 -0.14450961351 4.4176653319e-05 -0 
-0.14441983402 4.4459611672e-05 -0 -0.14432954788 4.4684340537e-05 -0 -0.14423884451 4.4877324399e-05 -0 
-0.14414776862 4.5052656787e-05 -0 -0.14405636489 4.5216533181e-05 -0 -0.14396463335 4.5371994929e-05 -0 
-0.14387260377 4.5519158448e-05 -0 -0.14378029108 4.5656295697e-05 -0 -0.14368771017 4.578008884e-05 -0 
-0.14359492064 4.5884658903e-05 -0 -0.14350193739 4.5960950956e-05 -0 -0.14340884984 4.5996112021e-05 -0 
-0.14331574738 4.5969762141e-05 -0 -0.14322280884 4.5852666517e-05 -0 -0.14313024282 4.5601002057e-05 -0 
-0.14303836226 4.5150201913e-05 -0 -0.1429477036 4.4402913773e-05 -0 -0.14285898209 4.3212283344e-05 -0 
-0.14277334511 4.1350740503e-05 -0 -0.14269247651 3.8456797483e-05 -0 -0.14261907339 3.3932097722e-05 -0 
-0.14255745709 2.6733521736e-05 -0 -0.14251497388 1.488813632e-05 -0 -0.14250512421 -5.7245183598e-06 -0 
-0.14255510271 -4.4681524741e-05 -0 -0.14272530377 -0.00012628575496 -0 -0.14399954677 -0.00031772584771 -0 
-0.16141743958 -0.00090471561998 -0 -0.22022370994 -0.0017415900948 -0 -0.34433668852 -0.0030930466019 -0 
-0.45702955127 -0.0038628610782 -0 -0.47041347623 -0.0082548325881 -0 -0.44378736615 -0.011186617427 -0 
-0.43247276545 -0.0074255927466 -0 -0.43288710713 -0.0013691355707 -0 -0.4271915555 -0.0017559984699 -0 
-0.41150090098 -0.0025505484082 -0 -0.39670160413 -0.0012212785659 -0 -0.38272941113 0.00071670318721 -0 
-0.36330065131 0.0015700499061 -0 -0.33213058114 0.0018720369553 -0 -0.2786219418 0.00064234604361 -0 
-0.21477869153 0.00081597955432 -0 -0.16916765273 0.00099817058071 -0 -0.15113677084 3.7993897422e-05 -0 
-0.16882498562 0.00026144375443 -0 -0.21544204652 -3.6926354369e-05 -0 -0.25554451346 -0.00010584294796 -0 
-0.26760324836 -6.6446700657e-05 -0 -0.2676948905 -4.2002673581e-05 -0 -0.26774802804 -2.6367924875e-05 -0 
-0.26777511835 -1.6177184079e-05 -0 -0.26778516173 -9.4832485047e-06 -0 -0.26778391004 -5.0832995839e-06 -0 
-0.26777526736 -2.1815030777e-06 -0 -0.26776176691 -2.7735910635e-07 -0 -0.26774504781 9.6430392205e-07 -0 
-0.26772627234 1.7544490447e-06 -0 -0.26770627499 2.2221183826e-06 -0 -0.26768553257 2.4329556254e-06 -0 
-0.26766467094 2.4017431315e-06 -0 -0.26764413714 2.1042792469e-06 -0 -0.26762473583 1.3038384168e-06 -0 
-0.26760780811 -2.2484499596e-07 -0 -0.26759561896 -3.274680239e-06 -0 -0.26759323478 -9.6043304438e-06 -0 
-0.26761177182 -2.3234406399e-05 -0 -0.26768004894 -5.6742323068e-05 -0 -0.26786258817 -0.00013072206639 -0 
-0.39542910457 -0.00043946522055 -0 -0.15688441694 9.6573632618e-05 -0 -0.15683662891 0.00010515268514 -0 
-0.15678559244 0.00010985897825 -0 -0.15673267841 0.00011253681441 -0 -0.1566786617 0.00011415527115 -0 
-0.15662397444 0.00011522109708 -0 -0.15656879544 0.00011599708523 -0 -0.15651322901 0.00011662035831 -0 
-0.15645733476 0.00011716069275 -0 -0.15640114248 0.00011765415547 -0 -0.15634466708 0.00011811735021 -0 
-0.15628793836 0.0001185574074 -0 -0.15623094141 0.00011897431978 -0 -0.15617373586 0.00011936295778 -0 
-0.15611629188 0.00011971322238 -0 -0.15605866909 0.00012000814604 -0 -0.15600091219 0.00012022170267 -0 
-0.15594305098 0.00012031572987 -0 -0.15588521957 0.00012023199088 -0 -0.15582752228 0.00011988529877 -0 
-0.15577018261 0.00011914894276 -0 -0.15571348369 0.00011783534865 -0 -0.15565788746 0.00011566418107 -0 
-0.15560403466 0.00011221427121 -0 -0.15555293858 0.0001068405254 -0 -0.15550602973 9.8529075331e-05 -0 
-0.15546552837 8.5630897956e-05 -0 -0.15543480217 6.5359730797e-05 -0 -0.15541903675 3.2675834518e-05 -0 
-0.15542624891 -2.2426171199e-05 -0 -0.15546883643 -0.00012163197243 -0 -0.15556561947 -0.00031736274832 -0 
-0.15645998716 -0.00074648828013 -0 -0.17259636521 -0.0017960377736 -0 -0.22851698101 -0.0022462736815 -0 
-0.3473867178 -0.0023749847896 -0 -0.45325875282 -0.0088852327317 -0 -0.46564930677 -0.024198647588 -0 
-0.44729784131 -0.027197940275 -0 -0.44171446562 -0.020020244643 -0 -0.4370662272 -0.01135072019 -0 
-0.42679074407 -0.0099574550986 -0 -0.41339159012 -0.0085084345192 -0 -0.40058085322 -0.0046558119357 -0 
-0.38597473502 -0.0009979623137 -0 -0.36544278264 0.0034151768778 -0 -0.33347186446 0.00728956284 -0 
-0.28056365252 0.0069819660857 -0 -0.21718734503 0.002851838246 -0 -0.16995485127 0.0020353151485 -0 
-0.15082529187 4.7430596169e-05 -0 -0.16904221475 0.00020394775493 -0 -0.21646349132 -0.00020930204482 -0 
-0.25682193041 -0.00027815267094 -0 -0.2689345479 -0.00018498492136 -0 -0.26900833845 -0.00012073430844 -0 
-0.26905450225 -7.761058805e-05 -0 -0.26908037066 -4.9034999392e-05 -0 -0.269092381 -3.0174142012e-05 -0 
-0.26909518242 -1.7752234271e-05 -0 -0.26909187436 -9.5647819762e-06 -0 -0.26908457279 -4.1899743337e-06 -0 
-0.26907467842 -6.9062252805e-07 -0 -0.26906311512 1.5313056565e-06 -0 -0.26905050874 2.8350521006e-06 -0 
-0.26903736591 3.4377405882e-06 -0 -0.26902410388 3.3276742215e-06 -0 -0.26901099086 2.6500583772e-06 -0 
-0.26899862289 4.297307612e-07 -0 -0.26898774505 -3.443482683e-06 -0 -0.26897922158 -1.1024919331e-05 -0 
-0.26897484064 -2.6191512006e-05 -0 -0.26897698641 -5.7326979004e-05 -0 -0.26898673177 -0.00012747867731 -0 
-0.26900097728 -0.00026898353826 -0 -0.39593598247 -0.00073756760685 -0 -0.17407806218 0.00011498117965 -0 
-0.17408418655 0.00012512592366 -0 -0.17409183085 0.00013063270308 -0 -0.1741001308 0.00013377146388 -0 
-0.17410874367 0.000135692404 -0 -0.17411752045 0.00013698289695 -0 -0.17412638664 0.00013794371625 -0 
-0.17413526773 0.0001387293305 -0 -0.17414419353 0.00013941861107 -0 -0.17415310442 0.00014005135745 -0 
-0.17416203022 0.00014064606512 -0 -0.17417097092 0.00014120928245 -0 -0.17417992651 0.00014173927775 -0 
-0.17418891191 0.00014222742175 -0 -0.17419792712 0.00014265757636 -0 -0.17420701683 0.00014300385374 -0 
-0.17421616614 0.00014322680363 -0 -0.17422546446 0.00014326751989 -0 -0.1742349565 0.00014303822536 -0 
-0.17424473166 0.00014240913151 -0 -0.17425492406 0.00014118806575 -0 -0.1742657423 0.00013909046538 -0 
-0.17427749932 0.00013569449948 -0 -0.17429059744 0.00013037286408 -0 -0.17430569232 0.000122184676 -0 
-0.17432363331 0.00010968356946 -0 -0.17434559762 9.0574998467e-05 -0 -0.17437319458 6.1196937168e-05 -0 
-0.17440800369 1.5557528968e-05 -0 -0.1744504869 -5.7184566685e-05 -0 -0.1744966954 -0.00017777903122 -0 
-0.17452475429 -0.00038714389666 -0 -0.17515848577 -0.00076225504745 -0 -0.19055458903 -0.0012845140882 -0 
-0.24334466457 0.00043772492791 -0 -0.34761044383 0.0053691994399 -0 -0.43887162209 -0.0072863763198 -0 
-0.45773461461 -0.022742969915 -0 -0.45077708364 -0.026942837983 -0 -0.44660645723 -0.026629969478 -0 
-0.44041123986 -0.021702738479 -0 -0.42969831824 -0.019520308822 -0 -0.41651365161 -0.013920873404 -0 
-0.40371659398 -0.010011831298 -0 -0.39063450694 -0.0041934074834 -0 -0.3709923625 0.004560738802 -0 
-0.33540034294 0.012916903012 -0 -0.27607104182 0.011636856943 -0 -0.21254254878 0.0023372401483 -0 
-0.16920417547 0.00088433595374 -0 -0.15061692894 -2.1595820726e-05 -0 -0.16897028685 -0.00062387960497 -0 
-0.21667130291 -0.0005518491962 -0 -0.25714334846 -0.00042643636698 -0 -0.26928436756 -0.00027955346741 -0 
-0.26933678985 -0.00018288074352 -0 -0.26936283708 -0.00011889271263 -0 -0.26937440038 -7.6800250099e-05 -0 
-0.26937717199 -4.9118505558e-05 -0 -0.26937437057 -3.0899627745e-05 -0 -0.26936790347 -1.8900806026e-05 -0 
-0.26935905218 -1.1020541024e-05 -0 -0.26934862137 -5.8933851506e-06 -0 -0.26933720708 -2.6429709123e-06 -0 
-0.26932513714 -7.3364856235e-07 -0 -0.26931273937 1.5875974668e-07 -0 -0.26930016279 7.3871262884e-08 -0 
-0.26928764582 -8.2856098516e-07 -0 -0.26927515864 -3.5457019294e-06 -0 -0.26926252246 -8.1978323578e-06 -0 
-0.26924932003 -1.677954242e-05 -0 -0.26923376322 -3.2720476156e-05 -0 -0.26921096444 -6.2622602854e-05 -0 
-0.26916798949 -0.00012123128545 -0 -0.26908361912 -0.00022103190713 -0 -0.39594578743 -0.00044059916399 -0 
-0.18927022815 8.3568993432e-05 -0 -0.18932819366 8.8779692305e-05 -0 -0.18939287961 9.1739639174e-05 -0 
-0.1894608438 9.3507427664e-05 -0 -0.18953064084 9.4653987617e-05 -0 -0.18960152566 9.547470836e-05 -0 
-0.18967312574 9.6120456874e-05 -0 -0.18974523246 9.6668234619e-05 -0 -0.18981775641 9.715728811e-05 -0 
-0.1898906678 9.7606927739e-05 -0 -0.1899639219 9.8025120678e-05 -0 -0.19003751874 9.8412492662e-05 -0 
-0.1901114583 9.8763557617e-05 -0 -0.19018572569 9.9066630355e-05 -0 -0.1902603358 9.930205124e-05 -0 
-0.19033531845 9.9439392216e-05 -0 -0.19041061401 9.9432669231e-05 -0 -0.19048629701 9.9213371868e-05 -0 
-0.19056235254 9.8679840448e-05 -0 -0.1906387955 9.7681637271e-05 -0 -0.19071565568 9.5996496384e-05 -0 
-0.19079293311 9.3296133855e-05 -0 -0.19087073207 8.9096312877e-05 -0 -0.19094905257 8.2685532107e-05 -0 
-0.19102796912 7.30310785e-05 -0 -0.19110743701 5.8617730247e-05 -0 -0.19118721783 3.7046320358e-05 -0 
-0.19126680493 4.7508256102e-06 -0 -0.19134476781 -4.3632451707e-05 -0 -0.19141744077 -0.00011618412827 -0 
-0.19147348404 -0.00022457048181 -0 -0.19148556888 -0.0003824555024 -0 -0.19211031497 -0.00058783433633 -0 
-0.20762708783 -0.00067280133953 -0 -0.25915440917 0.00087227794575 -0 -0.34976553917 0.0051074679941 -0 
-0.42971676588 4.6652345191e-05 -0 -0.45017746091 -0.0050302385353 -0 -0.44604194164 -0.0087997149676 -0 
-0.44765919447 -0.012040214613 -0 -0.44378620386 -0.012826397084 -0 -0.43336802721 -0.014644373208 -0 
-0.42067560554 -0.012829150073 -0 -0.40867069364 -0.010003679432 -0 -0.39754471183 -0.0051992875524 -0 
-0.37583380938 -0.0014508945169 -0 -0.3328588903 0.0060307453386 -0 -0.26756992936 0.0054599749856 -0 
-0.20767195523 -0.00054384500254 -0 -0.16915844381 -0.0012060736772 -0 -0.15135684609 -7.3112641985e-05 -0 
-0.16976568103 -0.0012803113787 -0 -0.21708622575 -0.00082913826918 -0 -0.25740635395 -0.00052696606144 -0 
-0.26947245002 -0.00032984479913 -0 -0.26946869493 -0.00021291407757 -0 -0.26946055889 -0.00013875165314 -0 
-0.26945063472 -9.0734858532e-05 -0 -0.26943966746 -5.9295918618e-05 -0 -0.26942804456 -3.8596721424e-05 -0 
-0.26941582561 -2.4944663892e-05 -0 -0.26940324903 -1.5963318219e-05 -0 -0.26939040422 -1.0111803022e-05 -0 