# vtk DataFile Version 5.1
vtk output
ASCII
DATASET UNSTRUCTURED_GRID
POINTS 9359 double
-10.1 1.4499999993 -6.5110748437e-07 -10.049999999 1.4499999993 -4.742580586e-07 -10.049999999 1.5 1.7679119537e-06 
-9.9999999985 1.4499999993 -4.035521215e-07 -9.9999999985 1.5 1.5303246528e-06 -9.9499999978 1.4499999993 -3.6664664549e-07 
-9.9499999978 1.5 1.3956757812e-06 -9.899999997 1.4499999993 -3.4299978324e-07 -9.899999997 1.5 1.3077440144e-06 
-9.8499999963 1.4499999993 -3.2643606573e-07 -9.8499999963 1.5 1.2454199805e-06 -9.7999999955 1.4499999993 -3.1417971513e-07 
-9.7999999955 1.5 1.1994832221e-06 -9.7499999948 1.4499999993 -3.0487740332e-07 -9.7499999948 1.5 1.1643348898e-06 
-9.699999994 1.4499999993 -2.9767784326e-07 -9.699999994 1.5 1.1368626929e-06 -9.6499999933 1.4499999993 -2.9196075957e-07 
-9.6499999933 1.5 1.1152694697e-06 -9.5999999925 1.4499999993 -2.8744966585e-07 -9.5999999925 1.5 1.0980974139e-06 
-9.5499999918 1.4499999993 -2.8384442885e-07 -9.5499999918 1.5 1.084492169e-06 -9.4999999911 1.4499999993 -2.8108138395e-07 
-9.4999999911 1.5 1.0737182947e-06 -9.4499999903 1.4499999993 -2.7887858778e-07 -9.4499999903 1.5 1.065432798e-06 
-9.3999999896 1.4499999993 -2.7716146178e-07 -9.3999999896 1.5 1.0590517832e-06 -9.3499999888 1.4499999993 -2.7598093766e-07 
-9.3499999888 1.5 1.0543515145e-06 -9.2999999881 1.4499999993 -2.7515329748e-07 -9.2999999881 1.5 1.0511701021e-06 
-9.2499999873 1.4499999993 -2.7466580832e-07 -9.2499999873 1.5 1.0493238278e-06 -9.1999999866 1.4499999993 -2.7437295103e-07 
-9.1999999866 1.5 1.0485216535e-06 -9.1499999858 1.4499999993 -2.7442388273e-07 -9.1499999858 1.5 1.048774493e-06 
-9.0999999851 1.4499999993 -2.7480405151e-07 -9.0999999851 1.5 1.0498367828e-06 -9.0499999844 1.4499999993 -2.7528062674e-07 
-9.0499999844 1.5 1.0519904663e-06 -8.9999999836 1.4499999993 -2.7602095543e-07 -8.9999999836 1.5 1.0547626061e-06 
-8.9499999829 1.4499999993 -2.7695955396e-07 -8.9499999829 1.5 1.0582023151e-06 -8.8999999821 1.4499999993 -2.7799637792e-07 
-8.8999999821 1.5 1.062340516e-06 -8.8499999814 1.4499999993 -2.7923329071e-07 -8.8499999814 1.5 1.0671772088e-06 
-8.7999999806 1.4499999993 -2.8065028346e-07 -8.7999999806 1.5 1.0724395452e-06 -8.7499999799 1.4499999993 -2.8220915738e-07 
-8.7499999799 1.5 1.078471314e-06 -8.6999999791 1.4499999993 -2.8303134059e-07 -8.6999999791 1.5 1.0816945633e-06 
-8.6499999784 1.4499999993 -2.8484123504e-07 -8.6499999784 1.5 1.0884848507e-06 -8.5999999776 1.4499999993 -2.8673844099e-07 
-8.5999999776 1.5 1.0957735412e-06 -8.5499999769 1.4499999993 -2.8880026548e-07 -8.5499999769 1.5 1.1035178886e-06 
-8.4999999762 1.4499999993 -2.9096577236e-07 -8.4999999762 1.5 1.1117933809e-06 -8.4499999754 1.4499999993 -2.9324132811e-07 
-8.4499999754 1.5 1.1205809187e-06 -8.3999999747 1.4499999993 -2.9567786441e-07 -8.3999999747 1.5 1.1297249785e-06 
-8.3499999739 1.4499999993 -2.9820262171e-07 -8.3499999739 1.5 1.1394256489e-06 -8.2999999732 1.4499999993 -3.0080650504e-07 
-8.2999999732 1.5 1.1496074421e-06 -8.2499999724 1.4499999993 -3.0361775316e-07 -8.2499999724 1.5 1.1601848655e-06 
-8.1999999717 1.4499999993 -3.0648629945e-07 -8.1999999717 1.5 1.1712370451e-06 -8.1499999709 1.4499999993 -3.0947944651e-07 
-8.1499999709 1.5 1.1827439721e-06 -8.0999999702 1.4499999993 -3.1259810385e-07 -8.0999999702 1.5 1.1947211078e-06 
-8.0499999695 1.4499999993 -3.1591321203e-07 -8.0499999695 1.5 1.2071129731e-06 -7.9999999687 1.4499999993 -3.19266519e-07 
-7.9999999687 1.5 1.2200305264e-06 -7.949999968 1.4499999993 -3.2275534068e-07 -7.949999968 1.5 1.2334264738e-06 
-7.8999999672 1.4499999993 -3.2638240555e-07 -7.8999999672 1.5 1.2472471553e-06 -7.8499999665 1.4499999993 -3.3012861422e-07 
-7.8499999665 1.5 1.2616045524e-06 -7.7999999657 1.4499999993 -3.3401397559e-07 -7.7999999657 1.5 1.2764364783e-06 
-7.749999965 1.4499999993 -3.3799665289e-07 -7.749999965 1.5 1.2917814729e-06 -7.6999999642 1.4499999993 -3.4214758671e-07 
-7.6999999642 1.5 1.3075584775e-06 -7.6499999635 1.4499999993 -3.4645495361e-07 -7.6499999635 1.5 1.3239803138e-06 
-7.5999999627 1.4499999993 -3.5084690353e-07 -7.5999999627 1.5 1.3407868664e-06 -7.549999962 1.4499999993 -3.5546349864e-07 
-7.549999962 1.5 1.3582655356e-06 -7.4999999613 1.4499999993 -3.6018104765e-07 -7.4999999613 1.5 1.376303544e-06 
-7.4499999605 1.4499999993 -3.6505957723e-07 -7.4499999605 1.5 1.3948972537e-06 -7.3999999598 1.4499999993 -3.7002450881e-07 
-7.3999999598 1.5 1.4140202893e-06 -7.349999959 1.4499999993 -3.7520044316e-07 -7.349999959 1.5 1.4338718302e-06 
-7.2999999583 1.4499999993 -3.8055918594e-07 -7.2999999583 1.5 1.4542872577e-06 -7.2499999575 1.4499999993 -3.8607890929e-07 
-7.2499999575 1.5 1.475349336e-06 -7.1999999568 1.4499999993 -3.9182418732e-07 -7.1999999568 1.5 1.4971562905e-06 
-7.149999956 1.4499999993 -3.9767678572e-07 -7.149999956 1.5 1.5195507785e-06 -7.0999999553 1.4499999993 -4.0066356632e-07 
-7.0999999553 1.5 1.5310176877e-06 -7.0499999546 1.4499999993 -4.0681811697e-07 -7.0499999546 1.5 1.5546127088e-06 
-6.9999999538 1.4499999993 -4.1320640776e-07 -6.9999999538 1.5 1.578864385e-06 -6.9499999531 1.4499999993 -4.1973021325e-07 
-6.9499999531 1.5 1.6039928141e-06 -6.8999999523 1.4499999993 -4.2655142352e-07 -6.8999999523 1.5 1.6298988612e-06 
-6.8499999516 1.4499999993 -4.3358090807e-07 -6.8499999516 1.5 1.6566116301e-06 -6.7999999508 1.4499999993 -4.4074954531e-07 
-6.7999999508 1.5 1.6843084722e-06 -6.7499999501 1.4499999993 -4.4825105761e-07 -6.7499999501 1.5 1.7128643321e-06 
-6.6999999493 1.4499999993 -4.5597448661e-07 -6.6999999493 1.5 1.7424297312e-06 -6.6499999486 1.4499999993 -4.6396485232e-07 
-6.6499999486 1.5 1.7729564661e-06 -6.5999999478 1.4499999993 -4.7226171773e-07 -6.5999999478 1.5 1.8045377601e-06 
-6.5499999471 1.4499999993 -4.8081324167e-07 -6.5499999471 1.5 1.837251375e-06 -6.4999999464 1.4499999993 -4.8966717259e-07 
-6.4999999464 1.5 1.8710959466e-06 -6.4499999456 1.4499999993 -4.9884579312e-07 -6.4499999456 1.5 1.906130592e-06 
-6.3999999449 1.4499999993 -5.0834864851e-07 -6.3999999449 1.5 1.9424294351e-06 -6.3499999441 1.4499999993 -5.1820029512e-07 
-6.3499999441 1.5 1.9800402242e-06 -6.2999999434 1.4499999993 -5.2840118769e-07 -6.2999999434 1.5 2.0190702799e-06 
-6.2499999426 1.4499999993 -5.3899043451e-07 -6.2499999426 1.5 2.0595432488e-06 -6.1999999419 1.4499999993 -5.5000532484e-07 
-6.1999999419 1.5 2.1015418952e-06 -6.1499999411 1.4499999993 -5.6141448113e-07 -6.1499999411 1.5 2.1452076453e-06 
-6.0999999404 1.4499999993 -5.7329748415e-07 -6.0999999404 1.5 2.1905323138e-06 -6.0499999397 1.4499999993 -5.8564523897e-07 
-6.0499999397 1.5 2.2376837023e-06 -5.9999999389 1.4499999993 -5.9848593992e-07 -5.9999999389 1.5 2.2867909593e-06 
-5.9499999382 1.4499999993 -6.1184687183e-07 -5.9499999382 1.5 2.3378609058e-06 -5.8999999374 1.4499999993 -6.2579488258e-07 
-5.8999999374 1.5 2.3911131848e-06 -5.8499999367 1.4499999993 -6.4033088165e-07 -5.8499999367 1.5 2.4466351078e-06 
-5.7999999359 1.4499999993 -6.5552035267e-07 -5.7999999359 1.5 2.5046058454e-06 -5.7499999352 1.4499999993 -6.7138785198e-07 
-5.7499999352 1.5 2.5651422675e-06 -5.6999999344 1.4499999993 -6.8796202868e-07 -5.6999999344 1.5 2.6284953947e-06 
-5.6499999337 1.4499999993 -7.052865385e-07 -5.6499999337 1.5 2.6947529932e-06 -5.5999999329 1.4499999993 -7.2349553193e-07 
-5.5999999329 1.5 2.7641897304e-06 -5.5499999322 1.4499999993 -7.3291926128e-07 -5.5499999322 1.5 2.8001702503e-06 
-5.4999999315 1.4499999993 -7.5245293374e-07 -5.4999999315 1.5 2.8747879242e-06 -5.4499999307 1.4499999993 -7.7296976997e-07 
-5.4499999307 1.5 2.9531895507e-06 -5.39999993 1.4499999993 -7.9458595792e-07 -5.39999993 1.5 3.0356638945e-06 
-5.3499999292 1.4499999993 -8.173299193e-07 -5.3499999292 1.5 3.1225681596e-06 -5.2999999285 1.4499999993 -8.413278465e-07 
-5.2999999285 1.5 3.2142240798e-06 -5.2499999277 1.4499999993 -8.6668546828e-07 -5.2499999277 1.5 3.3110475215e-06 
-5.199999927 1.4499999993 -8.9354170996e-07 -5.199999927 1.5 3.4135091482e-06 -5.1499999262 1.4499999993 -9.2199002211e-07 
-5.1499999262 1.5 3.5221303278e-06 -5.0999999255 1.4499999993 -9.5219229479e-07 -5.0999999255 1.5 3.6374453884e-06 
-5.0499999247 1.4499999993 -9.8431746665e-07 -5.0499999247 1.5 3.7601485019e-06 -4.999999924 1.4499999993 -1.0185947303e-06 
-4.999999924 1.5 3.8909161049e-06 -4.9499999233 1.4499999993 -1.0551846117e-06 -4.9499999233 1.5 4.0306472329e-06 
-4.8999999225 1.4499999993 -1.0943685993e-06 -4.8999999225 1.5 4.1802341002e-06 -4.8499999218 1.4499999993 -1.1364654711e-06 
-4.8499999218 1.5 4.3407562771e-06 -4.799999921 1.4499999993 -1.1817196537e-06 -4.799999921 1.5 4.5135006985e-06 
-4.7499999203 1.4499999993 -1.2305599739e-06 -4.7499999203 1.5 4.6998593461e-06 -4.6999999195 1.4499999993 -1.283410711e-06 
-4.6999999195 1.5 4.9014583965e-06 -4.6499999188 1.4499999993 -1.3407670849e-06 -4.6499999188 1.5 5.1202009672e-06 
-4.599999918 1.4499999993 -1.4031663795e-06 -4.599999918 1.5 5.3582434703e-06 -4.5499999173 1.4499999993 -1.4712975371e-06 
-4.5499999173 1.5 5.6180747379e-06 -4.4999999166 1.4499999993 -1.5458783764e-06 -4.4999999166 1.5 5.9025178416e-06 
-4.4499999158 1.4499999993 -1.627789743e-06 -4.4499999158 1.5 6.2148028519e-06 -4.3999999151 1.4499999993 -1.7179445422e-06 
-4.3999999151 1.5 6.5585095399e-06 -4.3499999143 1.4499999993 -1.8173378749e-06 -4.3499999143 1.5 6.9374714258e-06 
-4.2999999136 1.4499999993 -1.9269762106e-06 -4.2999999136 1.5 7.3554924711e-06 -4.2499999128 1.4499999993 -2.0476709324e-06 
-4.2499999128 1.5 7.8158309407e-06 -4.1999999121 1.4499999993 -2.1797031877e-06 -4.1999999121 1.5 8.3197892309e-06 
-4.1499999113 1.4499999993 -2.3220243293e-06 -4.1499999113 1.5 8.8640254035e-06 -4.0999999106 1.4499999993 -2.4705921078e-06 
-4.0999999106 1.5 9.4343968158e-06 -4.0499999098 1.4499999993 -2.6144921321e-06 -4.0499999098 1.5 9.9926628536e-06 
-3.9999999091 1.4499999993 -2.7268406484e-06 -3.9999999091 1.5 1.0444807231e-05 -3.9499999084 1.4499999993 -2.7532391869e-06 
[...]
CELL_DATA 8990
FIELD FieldData 4
Water_Depth_m 1 8990 float
0.639986 0.639958 0.63993 0.639902 0.639875 0.639848 0.639821 0.639796 0.639772 
0.639749 0.639728 0.639709 0.63969 0.639674 0.639659 0.639646 0.639635 0.639625 
0.639617 0.639611 0.639606 0.639603 0.6396 0.639599 0.639599 0.639599 0.639601 
0.639602 0.639605 0.639607 0.639609 0.639611 0.639613 0.639614 0.639614 0.639614 
0.639612 0.639609 0.639605 0.6396 0.639593 0.639584 0.639573 0.639561 0.639547 
0.639531 0.639513 0.639494 0.639474 0.639452 0.639428 0.639404 0.63938 0.639355 
0.639331 0.639307 0.639284 0.639263 0.639243 0.639226 0.639212 0.6392 0.639191 
0.639186 0.639184 0.639185 0.63919 0.639198 0.639209 0.639223 0.63924 0.639259 
0.63928 0.639302 0.639327 0.639352 0.639379 0.639407 0.639435 0.639463 0.639492 
0.639521 0.63955 0.63958 0.639609 0.639639 0.639668 0.639697 0.639726 0.639755 
0.639783 0.63981 0.639836 0.639861 0.639885 0.639908 0.639929 0.639948 0.639966 
0.639982 0.639996 0.640009 0.640021 0.640032 0.640042 0.640052 0.640061 0.640072 
0.640083 0.640096 0.640111 0.640129 0.64015 0.640176 0.640206 0.640242 0.640283 
0.640332 0.640386 0.640448 0.640515 0.640589 0.640667 0.640749 0.640833 0.640914 
0.641008 0.641171 0.641597 0.640997 0.623124 0.585559 0.53969 0.493756 0.455237 
0.423297 0.393968 0.36356 0.328283 0.291208 0.257541 0.231313 0.216298 0.212853 
0.217961 0.224909 0.231822 0.238034 0.245669 0.250805 0.254439 0.259708 0.265529 
0.273007 0.282003 0.292064 0.304176 0.314256 0.324361 0.336394 0.342252 0.34187 
0.335779 0.323702 0.32039 0.328792 0.335466 0.340376 0.346091 0.352475 0.35953 
0.366246 0.37246 0.379075 0.385906 0.393485 0.40095 0.408304 0.415161 0.422754 
0.431947 0.441388 0.448321 0.454632 0.460836 0.467326 0.474242 0.481641 0.487047 
0.492053 0.496077 0.502283 0.511594 0.514515 0.515798 0.518096 0.518442 0.515579 
0.515823 0.516186 0.49736 0.484693 0.476123 0.462725 0.450109 0.437499 0.425633 
0.406466 0.383346 0.366429 0.363124 0.363966 0.363929 0.362484 0.362368 0.362368 
0.358927 0.355214 0.355245 0.355279 0.355313 0.355347 0.35538 0.355411 0.35544 
0.355467 0.355492 0.355515 0.355537 0.355556 0.355574 0.35559 0.355605 0.355619 
0.355631 0.355643 0.355653 0.355662 0.355671 0.355678 0.355685 0.355692 0.355698 
0.355703 0.355708 0.355712 0.355716 0.35572 0.355723 0.355727 0.355729 0.355732 
0.355735 0.355737 0.35574 0.355742 0.355744 0.355746 0.355748 0.35575 0.355751 
0.355753 0.355755 0.355757 0.355758 0.35576 0.355762 0.355763 0.355765 0.355767 
0.355769 0.35577 0.355772 0.355774 0.355776 0.355778 0.355779 0.355781 0.355783 
0.355785 0.355787 0.35579 0.355792 0.355794 0.355796 0.355798 0.355801 0.355803 
0.355806 0.355808 0.355811 0.355813 0.355816 0.355818 0.355802 0.355773 0.354352 
0.351916 0.348778 0.639987 0.639958 0.63993 0.639902 0.639874 0.639847 0.63982 
0.639795 0.639771 0.639748 0.639727 0.639707 0.639689 0.639672 0.639658 0.639645 
0.639633 0.639624 0.639616 0.63961 0.639605 0.639601 0.639599 0.639598 0.639598 
0.639599 0.6396 0.639602 0.639604 0.639607 0.639609 0.639611 0.639613 0.639615 
0.639615 0.639615 0.639613 0.639611 0.639607 0.639601 0.639594 0.639585 0.639575 
0.639563 0.639548 0.639532 0.639515 0.639495 0.639474 0.639452 0.639428 0.639404 
0.639379 0.639354 0.639329 0.639305 0.639282 0.63926 0.63924 0.639223 0.639208 
0.639197 0.639188 0.639183 0.639181 0.639182 0.639187 0.639195 0.639207 0.639221 
0.639238 0.639257 0.639278 0.639301 0.639326 0.639352 0.639378 0.639406 0.639434 
0.639463 0.639492 0.639521 0.63955 0.63958 0.639609 0.639638 0.639668 0.639697 
0.639726 0.639755 0.639783 0.63981 0.639837 0.639862 0.639886 0.639909 0.63993 
0.639949 0.639967 0.639983 0.639997 0.640011 0.640022 0.640033 0.640043 0.640052 
0.640061 0.640071 0.640082 0.640094 0.640109 0.640126 0.640147 0.640171 0.640201 
0.640236 0.640278 0.640326 0.64038 0.640442 0.64051 0.640584 0.640664 0.640748 
0.640833 0.640918 0.640999 0.64106 0.641218 0.640773 0.62311 0.584002 0.53435 
0.484715 0.444966 0.413326 0.384949 0.355286 0.321186 0.284925 0.251964 0.228037 
0.214089 0.220112 0.230855 0.237627 0.24137 0.245509 0.249499 0.255373 0.262315 
0.268389 0.273793 0.279648 0.285801 0.291107 0.301556 0.312786 0.325957 0.348366 
0.385834 0.411777 0.391008 0.341432 0.332636 0.342727 0.349213 0.353361 0.355522 
0.358904 0.363887 0.370239 0.378849 0.387023 0.394649 0.402767 0.408978 0.416323 
0.420524 0.426343 0.433333 0.44127 0.450687 0.458929 0.461645 0.465945 0.467884 
0.472584 0.480123 0.488147 0.491823 0.495237 0.50226 0.508613 0.509284 0.508293 
0.511274 0.512883 0.513036 0.511727 0.497365 0.480409 0.471433 0.462552 0.456809 
0.448303 0.439973 0.427071 0.407165 0.384315 0.366386 0.365543 0.365472 0.363435 
0.362411 0.362408 0.358847 0.355213 0.355248 0.355281 0.355316 0.35535 0.355383 
0.355414 0.355443 0.35547 0.355495 0.355518 0.35554 0.355559 0.355577 0.355593 
0.355608 0.355621 0.355634 0.355645 0.355655 0.355664 0.355672 0.35568 0.355687 
0.355693 0.355699 0.355704 0.355709 0.355713 0.355717 0.355721 0.355724 0.355728 
0.35573 0.355733 0.355736 0.355738 0.35574 0.355742 0.355745 0.355746 0.355748 
0.35575 0.355752 0.355754 0.355755 0.355757 0.355759 0.355761 0.355762 0.355764 
0.355766 0.355767 0.355769 0.355771 0.355773 0.355774 0.355776 0.355778 0.35578 
0.355782 0.355784 0.355786 0.355788 0.35579 0.355792 0.355794 0.355796 0.355799 
0.355801 0.355803 0.355806 0.355808 0.355811 0.355814 0.355816 0.355818 0.355802 
0.355773 0.354352 0.351917 0.348779 0.639986 0.639957 0.639929 0.6399 0.639872 
0.639844 0.639818 0.639792 0.639768 0.639745 0.639723 0.639703 0.639685 0.639669 
0.639654 0.639641 0.639629 0.63962 0.639612 0.639606 0.639601 0.639598 0.639596 
0.639595 0.639596 0.639597 0.639599 0.639601 0.639604 0.639607 0.639609 0.639612 
0.639614 0.639616 0.639617 0.639617 0.639616 0.639613 0.639609 0.639604 0.639597 
0.639588 0.639578 0.639565 0.639551 0.639534 0.639516 0.639496 0.639475 0.639452 
0.639427 0.639402 0.639376 0.639351 0.639325 0.6393 0.639276 0.639254 0.639234 
0.639216 0.639201 0.639189 0.63918 0.639175 0.639173 0.639175 0.63918 0.639188 
0.6392 0.639215 0.639232 0.639252 0.639274 0.639297 0.639322 0.639349 0.639376 
0.639404 0.639432 0.639461 0.63949 0.639519 0.639548 0.639578 0.639607 0.639636 
0.639666 0.639695 0.639724 0.639753 0.639781 0.639809 0.639836 0.639861 0.639886 
0.639909 0.63993 0.63995 0.639968 0.639984 0.639998 0.640011 0.640023 0.640033 
0.640042 0.64005 0.640059 0.640068 0.640077 0.640088 0.640101 0.640117 0.640136 
0.64016 0.640188 0.640222 0.640262 0.640309 0.640363 0.640424 0.640492 0.640568 
0.64065 0.640737 0.640828 0.640921 0.641014 0.641091 0.64135 0.640793 0.622379 
0.581454 0.529149 0.477678 0.435624 0.40345 0.375788 0.347554 0.315068 0.279998 
0.24835 0.224533 0.219518 0.227923 0.238334 0.245345 0.249477 0.253713 0.25847 
0.264687 0.272097 0.279393 0.286148 0.290843 0.293573 0.2961 0.299755 0.308731 
0.325273 0.346846 0.378133 0.396134 0.38084 0.342385 0.346892 0.35487 0.361624 
0.365737 0.365869 0.369211 0.375847 0.384263 0.393676 0.402553 0.409698 0.416591 
0.422012 0.427518 0.434913 0.44201 0.449382 0.457998 0.46558 0.471895 0.473138 
0.474659 0.482498 0.491516 0.498031 0.503971 0.511934 0.52026 0.523926 0.52574 
0.525991 0.529362 0.532946 0.533302 0.530519 0.530946 0.521026 0.506738 0.496762 
0.484783 0.474027 0.464408 0.454164 0.443509 0.428432 0.41105 0.38476 0.366617 
0.365779 0.36463 0.362932 0.362911 0.358806 0.355207 0.35524 0.355277 0.355314 
0.35535 0.355383 0.355415 0.355444 0.355471 0.355496 0.355519 0.35554 0.35556 
0.355577 0.355594 0.355608 0.355622 0.355634 0.355645 0.355655 0.355664 0.355672 
0.35568 0.355687 0.355693 0.355698 0.355704 0.355708 0.355713 0.355717 0.35572 
0.355724 0.355727 0.35573 0.355732 0.355735 0.355737 0.35574 0.355742 0.355744 
0.355746 0.355748 0.355749 0.355751 0.355753 0.355755 0.355756 0.355758 0.35576 
0.355761 0.355763 0.355765 0.355767 0.355768 0.35577 0.355772 0.355774 0.355775 
0.355777 0.355779 0.355781 0.355783 0.355785 0.355787 0.355789 0.355791 0.355794 
0.355796 0.355798 0.355801 0.355803 0.355805 0.355808 0.35581 0.355813 0.355815 
0.355818 0.355802 0.355773 0.354352 0.351916 0.348778 0.639986 0.639957 0.639927 
0.639898 0.639869 0.639841 0.639814 0.639788 0.639763 0.63974 0.639718 0.639698 
0.63968 0.639663 0.639648 0.639635 0.639624 0.639615 0.639607 0.639601 0.639597 
0.639594 0.639592 0.639592 0.639593 0.639594 0.639597 0.6396 0.639603 0.639607 
0.63961 0.639613 0.639616 0.639619 0.63962 0.63962 0.63962 0.639618 0.639614 
0.639609 0.639602 0.639593 0.639583 0.63957 0.639555 0.639538 0.639519 0.639498 
0.639476 0.639452 0.639426 0.6394 0.639373 0.639346 0.639319 0.639293 0.639268 
0.639244 0.639223 0.639204 0.639189 0.639176 0.639167 0.639162 0.639161 0.639163 
0.639169 0.639178 0.639191 0.639206 0.639224 0.639245 0.639268 0.639292 0.639318 
0.639345 0.639373 0.639401 0.63943 0.639459 0.639488 0.639517 0.639546 0.639575 
0.639605 0.639634 0.639664 0.639693 0.639722 0.639751 0.63978 0.639808 0.639836 
0.639862 0.639887 0.63991 0.639932 0.639953 0.639971 0.639987 0.640002 0.640014 
0.640025 0.640035 0.640043 0.640051 0.640058 0.640065 0.640073 0.640082 0.640093 
0.640106 0.640123 0.640145 0.640171 0.640202 0.64024 0.640286 0.640338 0.640399 
0.640468 0.640545 0.64063 0.640722 0.640821 0.640923 0.641027 0.641104 0.641369 
0.640812 0.621692 0.579199 0.524523 0.469315 0.426768 0.39413 0.366735 0.340589 
0.310445 0.279945 0.257989 0.242547 0.234186 0.236311 0.241676 0.24904 0.256507 
0.262696 0.268824 0.27559 0.283059 0.290632 0.297188 0.301337 0.303314 0.305131 
0.308868 0.315368 0.32331 0.333804 0.335537 0.336871 0.344936 0.353517 0.360058 
0.365089 0.366789 0.368517 0.374197 0.380899 0.389692 0.399246 0.407777 0.415579 
0.421573 0.427718 0.435454 0.443364 0.450909 0.459025 0.465572 0.47158 0.478853 
0.484715 0.487194 0.491682 0.50402 0.516307 0.522793 0.526909 0.535895 0.543773 
0.544888 0.547881 0.5505 0.554 0.554666 0.553481 0.552949 0.55335 0.539722 
0.533603 0.529127 0.520985 0.508765 0.490874 0.474384 0.459583 0.444114 0.42862 
0.406057 0.378117 0.366214 0.365344 0.363454 0.363263 0.358735 0.355203 0.355239 
0.355279 0.355317 0.355354 0.355388 0.35542 0.355449 0.355477 0.355502 0.355524 
0.355545 0.355565 0.355582 0.355598 0.355612 0.355625 0.355637 0.355648 0.355658 
0.355667 0.355675 0.355682 0.355689 0.355695 0.3557 0.355705 0.35571 0.355714 
0.355718 0.355721 0.355725 0.355728 0.35573 0.355733 0.355736 0.355738 0.35574 
0.355742 0.355744 0.355746 0.355748 0.35575 0.355751 0.355753 0.355755 0.355757 
0.355758 0.35576 0.355762 0.355763 0.355765 0.355767 0.355768 0.35577 0.355772 
0.355774 0.355776 0.355777 0.355779 0.355781 0.355783 0.355785 0.355787 0.355789 
0.355792 0.355794 0.355796 0.355798 0.355801 0.355803 0.355805 0.355808 0.35581 
0.355813 0.355815 0.355818 0.355802 0.355773 0.354352 0.351916 0.348778 0.639985 
0.639955 0.639925 0.639895 0.639865 0.639836 0.639808 0.639782 0.639757 0.639733 
0.639711 0.63969 0.639672 0.639655 0.63964 0.639627 0.639616 0.639607 0.6396 
0.639594 0.63959 0.639588 0.639587 0.639587 0.639589 0.639591 0.639595 0.639598 
0.639603 0.639607 0.639612 0.639616 0.639619 0.639623 0.639625 0.639626 0.639626 
0.639624 0.639621 0.639616 0.63961 0.639601 0.63959 0.639577 0.639561 0.639544 
0.639524 0.639502 0.639478 0.639452 0.639425 0.639397 0.639368 0.639339 0.63931 
0.639282 0.639255 0.639231 0.639208 0.639188 0.639172 0.639159 0.63915 0.639145 
0.639144 0.639146 0.639153 0.639163 0.639177 0.639194 0.639213 0.639235 0.639259 
0.639285 0.639311 0.639339 0.639368 0.639397 0.639426 0.639455 0.639485 0.639514 
0.639543 0.639572 0.639601 0.639631 0.63966 0.63969 0.639719 0.639749 0.639778 
0.639807 0.639835 0.639862 0.639888 0.639913 0.639936 0.639957 0.639975 0.639992 
0.640007 0.640019 0.64003 0.640039 0.640046 0.640052 0.640057 0.640062 0.640068 
0.640074 0.640082 0.640092 0.640106 0.640123 0.640146 0.640175 0.64021 0.640253 
0.640304 0.640364 0.640433 0.640512 0.6406 0.640698 0.640805 0.640919 0.641039 
0.64113 0.641407 0.640829 0.621212 0.577681 0.522059 0.467117 0.421025 0.385785 
0.357146 0.331215 0.305436 0.28307 0.268108 0.258054 0.250848 0.247265 0.251384 
0.257786 0.265253 0.272395 0.278984 0.285965 0.293406 0.300733 0.307237 0.311183 
0.312875 0.314657 0.31771 0.322652 0.328933 0.335325 0.342319 0.34939 0.356305 
0.363311 0.369656 0.373768 0.375028 0.378456 0.384654 0.392768 0.401977 0.411014 
0.419028 0.426197 0.43294 0.440023 0.44869 0.457522 0.465022 0.473082 0.482636 
0.490363 0.493529 0.496246 0.505656 0.517101 0.528453 0.541459 0.549983 0.557987 
0.562483 0.564627 0.567872 0.575835 0.576811 0.577767 0.579073 0.580071 0.580449 
0.579485 0.557734 0.553393 0.551816 0.547215 0.537331 0.520435 0.499098 0.479664 
0.46152 0.443724 0.423472 0.39875 0.374933 0.365069 0.363776 0.36336 0.358664 
0.355198 0.355238 0.355281 0.355322 0.35536 0.355395 0.355427 0.355457 0.355484 
0.355509 0.355531 0.355552 0.355571 0.355588 0.355603 0.355617 0.35563 0.355641 
0.355652 0.355661 0.35567 0.355678 0.355685 0.355691 0.355697 0.355702 0.355707 
0.355711 0.355715 0.355719 0.355722 0.355726 0.355729 0.355731 0.355734 0.355736 
0.355738 0.355741 0.355743 0.355745 0.355746 0.355748 0.35575 0.355752 0.355753 
0.355755 0.355757 0.355758 0.35576 0.355762 0.355763 0.355765 0.355767 0.355768 
0.35577 0.355772 0.355774 0.355776 0.355777 0.355779 0.355781 0.355783 0.355785 
0.355787 0.355789 0.355791 0.355794 0.355796 0.355798 0.355801 0.355803 0.355805 
0.355808 0.35581 0.355813 0.355815 0.355818 0.355802 0.355773 0.354352 0.351916 
0.348778 0.639984 0.639953 0.639921 0.63989 0.63986 0.63983 0.639801 0.639774 
0.639748 0.639724 0.639701 0.639681 0.639662 0.639645 0.63963 0.639617 0.639606 
0.639597 0.63959 0.639585 0.639582 0.63958 0.63958 0.639582 0.639584 0.639588 
0.639592 0.639597 0.639602 0.639608 0.639614 0.639619 0.639624 0.639628 0.639631 
0.639633 0.639634 0.639633 0.639631 0.639626 0.63962 0.639611 0.6396 0.639586 
0.63957 0.639551 0.63953 0.639507 0.639481 0.639453 0.639424 0.639393 0.639362 
0.63933 0.639299 0.639268 0.639239 0.639212 0.639188 0.639167 0.63915 0.639136 
0.639127 0.639122 0.639121 0.639125 0.639133 0.639144 0.639159 0.639178 0.639199 
0.639223 0.639248 0.639275 0.639304 0.639333 0.639363 0.639392 0.639422 0.639452 
0.639481 0.63951 0.639539 0.639568 0.639597 0.639626 0.639656 0.639685 0.639715 
0.639745 0.639776 0.639805 0.639835 0.639863 0.63989 0.639916 0.63994 0.639962 
0.639982 0.639999 0.640014 0.640026 0.640036 0.640044 0.64005 0.640054 0.640057 
0.64006 0.640062 0.640065 0.640069 0.640075 0.640084 0.640097 0.640115 0.640139 
0.64017 0.640209 0.640258 0.640316 0.640385 0.640465 0.640557 0.640661 0.640777 
0.640904 0.641039 0.641143 0.641433 0.640838 0.620747 0.576218 0.519332 0.461647 
0.414876 0.37823 0.348969 0.323636 0.302253 0.284964 0.273641 0.267391 0.261675 
0.25839 0.261946 0.268107 0.275419 0.282595 0.289657 0.296074 0.302031 0.308112 
0.314315 0.318197 0.320097 0.32288 0.326686 0.331219 0.336353 0.342436 0.349878 
0.357696 0.36495 0.37059 0.373217 0.376464 0.382848 0.389249 0.39631 0.404212 
0.413431 0.42213 0.429366 0.436554 0.445106 0.453686 0.461818 0.470079 0.479263 
0.488073 0.498514 0.507683 0.51085 0.516415 0.527847 0.540718 0.550412 0.558028 
0.573192 0.585376 0.589118 0.590638 0.596543 0.601087 0.602767 0.607121 0.610722 
0.610967 0.610432 0.610209 0.573675 0.567039 0.565805 0.563408 0.556082 0.54508 
0.526516 0.505446 0.484252 0.461707 0.438384 0.418062 0.390327 0.367624 0.364193 
0.363837 0.358621 0.355195 0.35524 0.355286 0.355329 0.355368 0.355404 0.355437 
0.355467 0.355494 0.355518 0.35554 0.35556 0.355579 0.355595 0.35561 0.355624 
0.355636 0.355647 0.355657 0.355666 0.355674 0.355681 0.355688 0.355694 0.3557 
0.355705 0.355709 0.355713 0.355717 0.355721 0.355724 0.355727 0.35573 0.355732 
0.355735 0.355737 0.355739 0.355741 0.355743 0.355745 0.355747 0.355749 0.35575 
0.355752 0.355754 0.355755 0.355757 0.355759 0.35576 0.355762 0.355764 0.355765 
0.355767 0.355769 0.35577 0.355772 0.355774 0.355776 0.355778 0.355779 0.355781 
0.355783 0.355785 0.355787 0.355789 0.355792 0.355794 0.355796 0.355798 0.355801 
0.355803 0.355805 0.355808 0.35581 0.355813 0.355815 0.355818 0.355802 0.355773 
0.354352 0.351916 0.348778 0.639984 0.63995 0.639917 0.639884 0.639853 0.639822 
0.639792 0.639764 0.639737 0.639713 0.63969 0.639669 0.63965 0.639632 0.639617 
0.639605 0.639594 0.639585 0.639579 0.639575 0.639572 0.639571 0.639572 0.639574 
0.639578 0.639583 0.639588 0.639595 0.639602 0.639609 0.639616 0.639623 0.639629 
0.639635 0.63964 0.639643 0.639645 0.639645 0.639643 0.639639 0.639633 0.639624 
0.639612 0.639598 0.639581 0.639561 0.639538 0.639513 0.639485 0.639455 0.639422 
0.639389 0.639354 0.639319 0.639285 0.639251 0.639219 0.63919 0.639164 0.639141 
0.639122 0.639108 0.639099 0.639094 0.639094 0.639099 0.639108 0.639121 0.639138 
0.639158 0.639182 0.639207 0.639235 0.639264 0.639295 0.639326 0.639357 0.639388 
0.639418 0.639448 0.639477 0.639506 0.639535 0.639563 0.639592 0.639621 0.63965 
0.63968 0.63971 0.639741 0.639772 0.639803 0.639834 0.639864 0.639893 0.63992 
0.639946 0.639969 0.63999 0.640008 0.640023 0.640036 0.640045 0.640052 0.640056 
0.640058 0.640059 0.640058 0.640056 0.640054 0.640053 0.640054 0.640058 0.640065 
0.640077 0.640096 0.640121 0.640155 0.640199 0.640255 0.640322 0.640403 0.640497 
0.640607 0.640732 0.640872 0.641023 0.64114 0.641447 0.640834 0.620059 0.574077 
0.515782 0.458604 0.408647 0.370849 0.342813 0.321281 0.301585 0.285223 0.274412 
0.268492 0.264028 0.267512 0.273834 0.279551 0.284938 0.291302 0.298038 0.303573 
0.307927 0.312038 0.315601 0.319494 0.323927 0.328511 0.333885 0.338513 0.342369 
0.347606 0.354132 0.361787 0.369651 0.375227 0.378751 0.38357 0.390943 0.399295 
0.406967 0.415501 0.423257 0.431595 0.440398 0.448712 0.457607 0.466624 0.476046 
0.486106 0.496501 0.505056 0.511573 0.517331 0.525685 0.536645 0.549758 0.563589 
0.574235 0.585028 0.59558 0.605438 0.611497 0.617023 0.624507 0.628661 0.631303 
0.637767 0.639829 0.639969 0.634882 0.633401 0.589379 0.578599 0.573961 0.572796 
0.571112 0.566178 0.554357 0.536757 0.511483 0.484278 0.455658 0.431679 0.406625 
0.377391 0.364297 0.363859 0.358588 0.355195 0.355245 0.355294 0.355339 0.35538 
0.355416 0.355449 0.355479 0.355506 0.35553 0.355551 0.355571 0.355588 0.355604 
0.355618 0.355631 0.355643 0.355653 0.355663 0.355671 0.355679 0.355686 0.355692 
0.355698 0.355703 0.355708 0.355712 0.355716 0.35572 0.355723 0.355726 0.355729 
0.355731 0.355734 0.355736 0.355738 0.35574 0.355742 0.355744 0.355746 0.355748 
0.355749 0.355751 0.355753 0.355754 0.355756 0.355757 0.355759 0.355761 0.355762 
0.355764 0.355765 0.355767 0.355769 0.35577 0.355772 0.355774 0.355776 0.355778 
0.355779 0.355781 0.355783 0.355785 0.355787 0.355789 0.355792 0.355794 0.355796 
0.355798 0.355801 0.355803 0.355805 0.355808 0.35581 0.355813 0.355815 0.355818 
0.355802 0.355773 0.354352 0.351916 0.348778 0.639982 0.639947 0.639912 0.639878 
0.639844 0.639812 0.639781 0.639752 0.639725 0.639699 0.639676 0.639654 0.639635 
0.639618 0.639603 0.63959 0.639579 0.639571 0.639565 0.639562 0.63956 0.63956 
0.639562 0.639566 0.639571 0.639577 0.639584 0.639592 0.639601 0.63961 0.639619 
0.639628 0.639636 0.639643 0.63965 0.639655 0.639658 0.639659 0.639658 0.639655 
0.639649 0.63964 0.639628 0.639613 0.639595 0.639574 0.639549 0.639521 0.63949 
0.639457 0.639421 0.639384 0.639345 0.639306 0.639268 0.63923 0.639195 0.639163 
0.639134 0.639109 0.639089 0.639074 0.639065 0.63906 0.639061 0.639067 0.639078 
0.639093 0.639113 0.639136 0.639162 0.63919 0.639221 0.639253 0.639286 0.639319 
0.639351 0.639384 0.639415 0.639445 0.639474 0.639503 0.639531 0.639559 0.639587 
0.639615 0.639644 0.639674 0.639705 0.639736 0.639769 0.639801 0.639833 0.639865 
0.639896 0.639925 0.639953 0.639978 0.64 0.640019 0.640035 0.640047 0.640056 
0.640062 0.640064 0.640064 0.640061 0.640056 0.64005 0.640043 0.640036 0.640031 
0.640028 0.640028 0.640033 0.640044 0.640062 0.64009 0.640128 0.640179 0.640243 