# vtk DataFile Version 5.1
vtk output
ASCII
DATASET UNSTRUCTURED_GRID
POINTS 9359 double
-10.1 1.4499999993 0 -10.049999999 1.4499999993 0 -10.049999999 1.5 0 
-9.9999999985 1.4499999993 0 -9.9999999985 1.5 0 -9.9499999978 1.4499999993 0 
-9.9499999978 1.5 0 -9.899999997 1.4499999993 0 -9.899999997 1.5 0 
-9.8499999963 1.4499999993 0 -9.8499999963 1.5 0 -9.7999999955 1.4499999993 0 
-9.7999999955 1.5 0 -9.7499999948 1.4499999993 0 -9.7499999948 1.5 0 
-9.699999994 1.4499999993 0 -9.699999994 1.5 0 -9.6499999933 1.4499999993 0 
-9.6499999933 1.5 0 -9.5999999925 1.4499999993 0 -9.5999999925 1.5 0 
-9.5499999918 1.4499999993 0 -9.5499999918 1.5 0 -9.4999999911 1.4499999993 0 
-9.4999999911 1.5 0 -9.4499999903 1.4499999993 0 -9.4499999903 1.5 0 
-9.3999999896 1.4499999993 0 -9.3999999896 1.5 0 -9.3499999888 1.4499999993 0 
-9.3499999888 1.5 0 -9.2999999881 1.4499999993 0 -9.2999999881 1.5 0 
-9.2499999873 1.4499999993 0 -9.2499999873 1.5 0 -9.1999999866 1.4499999993 0 
-9.1999999866 1.5 0 -9.1499999858 1.4499999993 0 -9.1499999858 1.5 0 
-9.0999999851 1.4499999993 0 -9.0999999851 1.5 0 -9.0499999844 1.4499999993 0 
-9.0499999844 1.5 0 -8.9999999836 1.4499999993 0 -8.9999999836 1.5 0 
-8.9499999829 1.4499999993 0 -8.9499999829 1.5 0 -8.8999999821 1.4499999993 0 
-8.8999999821 1.5 0 -8.8499999814 1.4499999993 0 -8.8499999814 1.5 0 
-8.7999999806 1.4499999993 0 -8.7999999806 1.5 0 -8.7499999799 1.4499999993 0 
-8.7499999799 1.5 0 -8.6999999791 1.4499999993 0 -8.6999999791 1.5 0 
-8.6499999784 1.4499999993 0 -8.6499999784 1.5 0 -8.5999999776 1.4499999993 0 
-8.5999999776 1.5 0 -8.5499999769 1.4499999993 0 -8.5499999769 1.5 0 
-8.4999999762 1.4499999993 0 -8.4999999762 1.5 0 -8.4499999754 1.4499999993 0 
-8.4499999754 1.5 0 -8.3999999747 1.4499999993 0 -8.3999999747 1.5 0 
-8.3499999739 1.4499999993 0 -8.3499999739 1.5 0 -8.2999999732 1.4499999993 0 
-8.2999999732 1.5 0 -8.2499999724 1.4499999993 0 -8.2499999724 1.5 0 
-8.1999999717 1.4499999993 0 -8.1999999717 1.5 0 -8.1499999709 1.4499999993 0 
-8.1499999709 1.5 0 -8.0999999702 1.4499999993 0 -8.0999999702 1.5 0 
-8.0499999695 1.4499999993 0 -8.0499999695 1.5 0 -7.9999999687 1.4499999993 0 
-7.9999999687 1.5 0 -7.949999968 1.4499999993 0 -7.949999968 1.5 0 
-7.8999999672 1.4499999993 0 -7.8999999672 1.5 0 -7.8499999665 1.4499999993 0 
-7.8499999665 1.5 0 -7.7999999657 1.4499999993 0 -7.7999999657 1.5 0 
-7.749999965 1.4499999993 0 -7.749999965 1.5 0 -7.6999999642 1.4499999993 0 
-7.6999999642 1.5 0 -7.6499999635 1.4499999993 0 -7.6499999635 1.5 0 
-7.5999999627 1.4499999993 0 -7.5999999627 1.5 0 -7.549999962 1.4499999993 0 
-7.549999962 1.5 0 -7.4999999613 1.4499999993 0 -7.4999999613 1.5 0 
-7.4499999605 1.4499999993 0 -7.4499999605 1.5 0 -7.3999999598 1.4499999993 0 
-7.3999999598 1.5 0 -7.349999959 1.4499999993 0 -7.349999959 1.5 0 
-7.2999999583 1.4499999993 0 -7.2999999583 1.5 0 -7.2499999575 1.4499999993 0 
-7.2499999575 1.5 0 -7.1999999568 1.4499999993 0 -7.1999999568 1.5 0 
-7.149999956 1.4499999993 0 -7.149999956 1.5 0 -7.0999999553 1.4499999993 0 
-7.0999999553 1.5 0 -7.0499999546 1.4499999993 0 -7.0499999546 1.5 0 
-6.9999999538 1.4499999993 0 -6.9999999538 1.5 0 -6.9499999531 1.4499999993 0 
-6.9499999531 1.5 0 -6.8999999523 1.4499999993 0 -6.8999999523 1.5 0 
-6.8499999516 1.4499999993 0 -6.8499999516 1.5 0 -6.7999999508 1.4499999993 0 
-6.7999999508 1.5 0 -6.7499999501 1.4499999993 0 -6.7499999501 1.5 0 
-6.6999999493 1.4499999993 0 -6.6999999493 1.5 0 -6.6499999486 1.4499999993 0 
-6.6499999486 1.5 0 -6.5999999478 1.4499999993 0 -6.5999999478 1.5 0 
-6.5499999471 1.4499999993 0 -6.5499999471 1.5 0 -6.4999999464 1.4499999993 0 
-6.4999999464 1.5 0 -6.4499999456 1.4499999993 0 -6.4499999456 1.5 0 
-6.3999999449 1.4499999993 0 -6.3999999449 1.5 0 -6.3499999441 1.4499999993 0 
-6.3499999441 1.5 0 -6.2999999434 1.4499999993 0 -6.2999999434 1.5 0 
-6.2499999426 1.4499999993 0 -6.2499999426 1.5 0 -6.1999999419 1.4499999993 0 
-6.1999999419 1.5 0 -6.1499999411 1.4499999993 0 -6.1499999411 1.5 0 
-6.0999999404 1.4499999993 0 -6.0999999404 1.5 0 -6.0499999397 1.4499999993 0 
-6.0499999397 1.5 0 -5.9999999389 1.4499999993 0 -5.9999999389 1.5 0 
-5.9499999382 1.4499999993 0 -5.9499999382 1.5 0 -5.8999999374 1.4499999993 0 
-5.8999999374 1.5 0 -5.8499999367 1.4499999993 0 -5.8499999367 1.5 0 
-5.7999999359 1.4499999993 0 -5.7999999359 1.5 0 -5.7499999352 1.4499999993 0 
-5.7499999352 1.5 0 -5.6999999344 1.4499999993 0 -5.6999999344 1.5 0 
-5.6499999337 1.4499999993 0 -5.6499999337 1.5 0 -5.5999999329 1.4499999993 0 
-5.5999999329 1.5 0 -5.5499999322 1.4499999993 0 -5.5499999322 1.5 0 
-5.4999999315 1.4499999993 0 -5.4999999315 1.5 0 -5.4499999307 1.4499999993 0 
-5.4499999307 1.5 0 -5.39999993 1.4499999993 0 -5.39999993 1.5 0 
-5.3499999292 1.4499999993 0 -5.3499999292 1.5 0 -5.2999999285 1.4499999993 0 
-5.2999999285 1.5 0 -5.2499999277 1.4499999993 0 -5.2499999277 1.5 0 
-5.199999927 1.4499999993 0 -5.199999927 1.5 0 -5.1499999262 1.4499999993 0 
-5.1499999262 1.5 0 -5.0999999255 1.4499999993 0 -5.0999999255 1.5 0 
-5.0499999247 1.4499999993 0 -5.0499999247 1.5 0 -4.999999924 1.4499999993 0 
-4.999999924 1.5 0 -4.9499999233 1.4499999993 0 -4.9499999233 1.5 0 
-4.8999999225 1.4499999993 0 -4.8999999225 1.5 0 -4.8499999218 1.4499999993 0 
-4.8499999218 1.5 0 -4.799999921 1.4499999993 0 -4.799999921 1.5 0 
-4.7499999203 1.4499999993 0 -4.7499999203 1.5 0 -4.6999999195 1.4499999993 0 
-4.6999999195 1.5 0 -4.6499999188 1.4499999993 0 -4.6499999188 1.5 0 
-4.599999918 1.4499999993 0 -4.599999918 1.5 0 -4.5499999173 1.4499999993 0 
-4.5499999173 1.5 0 -4.4999999166 1.4499999993 0 -4.4999999166 1.5 0 
-4.4499999158 1.4499999993 0 -4.4499999158 1.5 0 -4.3999999151 1.4499999993 0 
-4.3999999151 1.5 0 -4.3499999143 1.4499999993 0 -4.3499999143 1.5 0 
-4.2999999136 1.4499999993 0 -4.2999999136 1.5 0 -4.2499999128 1.4499999993 0 
-4.2499999128 1.5 0 -4.1999999121 1.4499999993 0 -4.1999999121 1.5 0 
-4.1499999113 1.4499999993 0 -4.1499999113 1.5 0 -4.0999999106 1.4499999993 0 
-4.0999999106 1.5 0 -4.0499999098 1.4499999993 0 -4.0499999098 1.5 0 
-3.9999999091 1.4499999993 0 -3.9999999091 1.5 0 -3.9499999084 1.4499999993 0 
-3.9499999084 1.5 0 -3.8999999076 1.4499999993 0 -3.8999999076 1.5 0 
-3.8499999069 1.4499999993 0 -3.8499999069 1.5 0 -3.7999999061 1.4499999993 0 
-3.7999999061 1.5 0 -3.7499999054 1.4499999993 0 -3.7499999054 1.5 0 
-3.6999999046 1.4499999993 0 -3.6999999046 1.5 0 -3.6499999039 1.4499999993 0 
-3.6499999039 1.5 0 -3.5999999031 1.4499999993 0 -3.5999999031 1.5 0 
-3.5499999024 1.4499999993 0 -3.5499999024 1.5 0 -3.4999999017 1.4499999993 0 
-3.4999999017 1.5 0 -3.4499999009 1.4499999993 0 -3.4499999009 1.5 0 
-3.3999999002 1.4499999993 0 -3.3999999002 1.5 0 -3.3499998994 1.4499999993 0 
-3.3499998994 1.5 0 -3.2999998987 1.4499999993 0 -3.2999998987 1.5 0 
-3.2499998979 1.4499999993 0 -3.2499998979 1.5 0 -3.1999998972 1.4499999993 0 
-3.1999998972 1.5 0 -3.1499998964 1.4499999993 0 -3.1499998964 1.5 0 
-3.0999998957 1.4499999993 0 -3.0999998957 1.5 0 -3.0499998949 1.4499999993 0 
-3.0499998949 1.5 0 -2.9999998942 1.4499999993 0 -2.9999998942 1.5 0 
-2.9499998935 1.4499999993 0 -2.9499998935 1.5 0 -2.8999998927 1.4499999993 0 
-2.8999998927 1.5 0 -2.849999892 1.4499999993 0 -2.849999892 1.5 0 
-2.7999998912 1.4499999993 0 -2.7999998912 1.5 0 -2.7499998905 1.4499999993 0 
-2.7499998905 1.5 0 -2.6999998897 1.4499999993 0 -2.6999998897 1.5 0 
-2.649999889 1.4499999993 0 -2.649999889 1.5 0 -2.5999998882 1.4499999993 0 
-2.5999998882 1.5 0 -2.5499998875 1.4499999993 0 -2.5499998875 1.5 0 
-2.4999998868 1.4499999993 0 -2.4999998868 1.5 0 -2.449999886 1.4499999993 0 
-2.449999886 1.5 0 -2.3999998853 1.4499999993 0 -2.3999998853 1.5 0 
-2.3499998845 1.4499999993 0 -2.3499998845 1.5 0 -2.2999998838 1.4499999993 0 
-2.2999998838 1.5 0 -2.249999883 1.4499999993 0 -2.249999883 1.5 0 
-2.1999998823 1.4499999993 0 -2.1999998823 1.5 0 -2.1499998815 1.4499999993 0 
-2.1499998815 1.5 0 -2.0999998808 1.4499999993 0 -2.0999998808 1.5 0 
-2.04999988 1.4499999993 0 -2.04999988 1.5 0 -1.9999998793 1.4499999993 0 
-1.9999998793 1.5 0 -1.9499998786 1.4499999993 0 -1.9499998786 1.5 0 
-1.8999998778 1.4499999993 0 -1.8999998778 1.5 0 -1.8499998771 1.4499999993 0 
-1.8499998771 1.5 0 -1.7999998763 1.4499999993 0 -1.7999998763 1.5 0 
-1.7499998756 1.4499999993 0 -1.7499998756 1.5 0 -1.6999998748 1.4499999993 0 
-1.6999998748 1.5 0 -1.6499998741 1.4499999993 0 -1.6499998741 1.5 0 
-1.5999998733 1.4499999993 0 -1.5999998733 1.5 0 -1.5499998726 1.4499999993 0 
-1.5499998726 1.5 0 -1.4999998719 1.4499999993 0 -1.4999998719 1.5 0 
-1.4499998711 1.4499999993 0 -1.4499998711 1.5 0 -1.3999998704 1.4499999993 0 
-1.3999998704 1.5 0 -1.3499998696 1.4499999993 0 -1.3499998696 1.5 0 
-1.2999998689 1.4499999993 0 -1.2999998689 1.5 0 -1.2499998681 1.4499999993 0 
-1.2499998681 1.5 0 -1.1999998674 1.4499999993 0 -1.1999998674 1.5 0 
-1.1499998666 1.4499999993 0 -1.1499998666 1.5 0 -1.0999998659 1.4499999993 0 
-1.0999998659 1.5 0 -1.0499998651 1.4499999993 0 -1.0499998651 1.5 0 
-0.9999998644 1.4499999993 0 -0.9999998644 1.5 0 -0.94999986365 1.4499999993 0 
-0.94999986365 1.5 0 -0.89999986291 1.4499999993 0 -0.89999986291 1.5 0 
-0.84999986216 1.4499999993 0 -0.84999986216 1.5 0 -0.79999986142 1.4499999993 0 
-0.79999986142 1.5 0 -0.74999986067 1.4499999993 0 -0.74999986067 1.5 0 
-0.69999985993 1.4499999993 0 -0.69999985993 1.5 0 -0.64999985918 1.4499999993 0 
-0.64999985918 1.5 0 -0.59999985844 1.4499999993 0 -0.59999985844 1.5 0 
-0.54999985769 1.4499999993 0 -0.54999985769 1.5 0 -0.49999985695 1.4499999993 0 
-0.49999985695 1.5 0 -0.4499998562 1.4499999993 0 -0.4499998562 1.5 0 
-0.39999985546 1.4499999993 0 -0.39999985546 1.5 0 -0.34999985471 1.4499999993 0 
-0.34999985471 1.5 0 -0.29999985397 1.4499999993 0 -0.29999985397 1.5 0 
-0.24999985322 1.4499999993 0 -0.24999985322 1.5 0 -0.19999985248 1.4499999993 0 
-0.19999985248 1.5 0 -0.14999985173 1.4499999993 0 -0.14999985173 1.5 0 
[...]
CELL_DATA 8990
FIELD FieldData 4
Water_Depth_m 1 8990 float
0.260008 0.260023 0.260038 0.260054 0.260069 0.260085 0.2601 0.260115 0.260131 
0.260146 0.260161 0.260177 0.260192 0.260207 0.260223 0.260238 0.260253 0.260269 
0.260284 0.260299 0.260315 0.26033 0.260345 0.26036 0.260376 0.260391 0.260406 
0.260422 0.260437 0.260452 0.260467 0.260483 0.260498 0.260513 0.260529 0.260544 
0.260559 0.260574 0.26059 0.260605 0.26062 0.260635 0.260651 0.260666 0.260681 
0.260696 0.260711 0.260727 0.260742 0.260757 0.260772 0.260788 0.260803 0.260818 
0.260833 0.260848 0.260864 0.260879 0.260894 0.260909 0.260924 0.260939 0.260955 
0.26097 0.260985 0.261 0.261015 0.26103 0.261046 0.261061 0.261076 0.261091 
0.261106 0.261121 0.261137 0.261152 0.261167 0.261182 0.261197 0.261212 0.261227 
0.261242 0.261257 0.261273 0.261288 0.261303 0.261318 0.261333 0.261348 0.261363 
0.261378 0.261393 0.261408 0.261423 0.261439 0.261454 0.261469 0.261484 0.261499 
0.261514 0.261529 0.261544 0.261559 0.261574 0.261589 0.261604 0.261619 0.261634 
0.261649 0.261664 0.261679 0.261694 0.261709 0.261724 0.261739 0.261754 0.261769 
0.261784 0.261799 0.261814 0.261829 0.261844 0.261859 0.261874 0.261889 0.261904 
0.261919 0.261934 0.261949 0.261964 0.261979 0.261994 0.262009 0.262024 0.262039 
0.262054 0.262069 0.262084 0.262099 0.262114 0.262129 0.262143 0.262158 0.262173 
0.262188 0.262203 0.262218 0.262233 0.262248 0.262263 0.262278 0.262292 0.262307 
0.262322 0.262337 0.262352 0.262367 0.262382 0.262396 0.262411 0.262426 0.262441 
0.262456 0.26247 0.262485 0.2625 0.262515 0.26253 0.262544 0.262559 0.262574 
0.262588 0.262603 0.262618 0.262632 0.262647 0.262661 0.262676 0.26269 0.262704 
0.262719 0.262733 0.262747 0.262762 0.262776 0.26279 0.262804 0.262819 0.262834 
0.262848 0.262863 0.262881 0.262899 0.262927 0.262974 0.263044 0.263343 0.264234 
0.265227 0.266399 0.441094 0.441049 0.441032 0.441024 0.44102 0.441018 0.441017 
0.441017 0.441017 0.441018 0.441019 0.44102 0.441021 0.441022 0.441023 0.441025 
0.441026 0.441028 0.44103 0.441032 0.441033 0.441035 0.441037 0.441039 0.441041 
0.441044 0.441046 0.441048 0.44105 0.441052 0.441055 0.441057 0.441059 0.441062 
0.441064 0.441066 0.441069 0.441071 0.441074 0.441076 0.441079 0.441081 0.441084 
0.441086 0.441088 0.441091 0.441093 0.441096 0.441098 0.441101 0.441103 0.441106 
0.441108 0.441111 0.441114 0.441116 0.441119 0.441121 0.441124 0.441126 0.441129 
0.441131 0.441134 0.441136 0.441139 0.441141 0.441144 0.441146 0.441149 0.441151 
0.441154 0.441157 0.441159 0.441162 0.441164 0.441167 0.441169 0.441172 0.441174 
0.441177 0.441179 0.441182 0.441184 0.441187 0.44119 0.441192 0.441195 0.441197 
0.4412 0.441202 0.441205 0.441207 0.44121 0.441212 0.441214 0.441203 0.44109 
0.439071 0.435128 0.260008 0.260023 0.260038 0.260054 0.260069 0.260085 0.2601 
0.260115 0.260131 0.260146 0.260161 0.260177 0.260192 0.260207 0.260223 0.260238 
0.260253 0.260269 0.260284 0.260299 0.260315 0.26033 0.260345 0.26036 0.260376 
0.260391 0.260406 0.260422 0.260437 0.260452 0.260467 0.260483 0.260498 0.260513 
0.260529 0.260544 0.260559 0.260574 0.26059 0.260605 0.26062 0.260635 0.260651 
0.260666 0.260681 0.260696 0.260711 0.260727 0.260742 0.260757 0.260772 0.260788 
0.260803 0.260818 0.260833 0.260848 0.260864 0.260879 0.260894 0.260909 0.260924 
0.260939 0.260955 0.26097 0.260985 0.261 0.261015 0.26103 0.261046 0.261061 
0.261076 0.261091 0.261106 0.261121 0.261136 0.261152 0.261167 0.261182 0.261197 
0.261212 0.261227 0.261242 0.261257 0.261273 0.261288 0.261303 0.261318 0.261333 
0.261348 0.261363 0.261378 0.261393 0.261408 0.261423 0.261439 0.261454 0.261469 
0.261484 0.261499 0.261514 0.261529 0.261544 0.261559 0.261574 0.261589 0.261604 
0.261619 0.261634 0.261649 0.261664 0.261679 0.261694 0.261709 0.261724 0.261739 
0.261754 0.261769 0.261784 0.261799 0.261814 0.261829 0.261844 0.261859 0.261874 
0.261889 0.261904 0.261919 0.261934 0.261949 0.261964 0.261979 0.261994 0.262009 
0.262024 0.262039 0.262054 0.262069 0.262084 0.262099 0.262114 0.262129 0.262143 
0.262158 0.262173 0.262188 0.262203 0.262218 0.262233 0.262248 0.262263 0.262278 
0.262292 0.262307 0.262322 0.262337 0.262352 0.262367 0.262382 0.262396 0.262411 
0.262426 0.262441 0.262456 0.262471 0.262485 0.2625 0.262515 0.26253 0.262544 
0.262559 0.262574 0.262588 0.262603 0.262618 0.262632 0.262647 0.262662 0.262676 
0.26269 0.262705 0.262719 0.262733 0.262747 0.262762 0.262777 0.26279 0.262804 
0.26282 0.262833 0.262846 0.262863 0.262881 0.262895 0.26292 0.262966 0.263014 
0.263321 0.264203 0.265229 0.266501 0.441032 0.441026 0.441022 0.44102 0.441018 
0.441017 0.441016 0.441016 0.441017 0.441018 0.441018 0.441019 0.441021 0.441022 
0.441023 0.441025 0.441026 0.441028 0.44103 0.441031 0.441033 0.441035 0.441037 
0.441039 0.441041 0.441043 0.441046 0.441048 0.44105 0.441052 0.441055 0.441057 
0.441059 0.441062 0.441064 0.441066 0.441069 0.441071 0.441074 0.441076 0.441079 
0.441081 0.441083 0.441086 0.441088 0.441091 0.441093 0.441096 0.441098 0.441101 
0.441103 0.441106 0.441108 0.441111 0.441114 0.441116 0.441119 0.441121 0.441124 
0.441126 0.441129 0.441131 0.441134 0.441136 0.441139 0.441141 0.441144 0.441146 
0.441149 0.441151 0.441154 0.441157 0.441159 0.441162 0.441164 0.441167 0.441169 
0.441172 0.441174 0.441177 0.441179 0.441182 0.441184 0.441187 0.44119 0.441192 
0.441195 0.441197 0.4412 0.441202 0.441205 0.441207 0.44121 0.441212 0.441214 
0.441203 0.44109 0.439071 0.435128 0.260008 0.260023 0.260038 0.260054 0.260069 
0.260085 0.2601 0.260115 0.260131 0.260146 0.260161 0.260177 0.260192 0.260207 
0.260223 0.260238 0.260253 0.260269 0.260284 0.260299 0.260315 0.26033 0.260345 
0.26036 0.260376 0.260391 0.260406 0.260422 0.260437 0.260452 0.260467 0.260483 
0.260498 0.260513 0.260529 0.260544 0.260559 0.260574 0.26059 0.260605 0.26062 
0.260635 0.260651 0.260666 0.260681 0.260696 0.260711 0.260727 0.260742 0.260757 
0.260772 0.260788 0.260803 0.260818 0.260833 0.260848 0.260864 0.260879 0.260894 
0.260909 0.260924 0.26094 0.260955 0.26097 0.260985 0.261 0.261015 0.26103 
0.261046 0.261061 0.261076 0.261091 0.261106 0.261121 0.261137 0.261152 0.261167 
0.261182 0.261197 0.261212 0.261227 0.261242 0.261257 0.261273 0.261288 0.261303 
0.261318 0.261333 0.261348 0.261363 0.261378 0.261393 0.261408 0.261424 0.261439 
0.261454 0.261469 0.261484 0.261499 0.261514 0.261529 0.261544 0.261559 0.261574 
0.261589 0.261604 0.261619 0.261634 0.261649 0.261664 0.261679 0.261694 0.261709 
0.261724 0.261739 0.261754 0.26177 0.261784 0.261799 0.261814 0.261829 0.261844 
0.261859 0.261874 0.261889 0.261904 0.261919 0.261934 0.261949 0.261964 0.261979 
0.261994 0.262009 0.262024 0.262039 0.262054 0.262069 0.262084 0.262099 0.262114 
0.262129 0.262144 0.262158 0.262173 0.262188 0.262203 0.262218 0.262233 0.262248 
0.262263 0.262278 0.262293 0.262307 0.262322 0.262337 0.262352 0.262367 0.262382 
0.262397 0.262411 0.262426 0.262441 0.262456 0.262471 0.262485 0.2625 0.262515 
0.26253 0.262544 0.262559 0.262574 0.262589 0.262603 0.262618 0.262632 0.262647 
0.262661 0.262676 0.262691 0.262705 0.262718 0.262734 0.262748 0.262761 0.262775 
0.262792 0.262804 0.262816 0.262834 0.262849 0.262858 0.262874 0.262898 0.262915 
0.262941 0.263002 0.263353 0.264144 0.265155 0.266703 0.440941 0.441001 0.441012 
0.441015 0.441015 0.441015 0.441015 0.441016 0.441016 0.441017 0.441018 0.441019 
0.44102 0.441022 0.441023 0.441024 0.441026 0.441028 0.44103 0.441031 0.441033 
0.441035 0.441037 0.441039 0.441041 0.441043 0.441046 0.441048 0.44105 0.441052 
0.441055 0.441057 0.441059 0.441062 0.441064 0.441066 0.441069 0.441071 0.441074 
0.441076 0.441079 0.441081 0.441083 0.441086 0.441088 0.441091 0.441093 0.441096 
0.441098 0.441101 0.441103 0.441106 0.441108 0.441111 0.441114 0.441116 0.441119 
0.441121 0.441124 0.441126 0.441129 0.441131 0.441134 0.441136 0.441139 0.441141 
0.441144 0.441146 0.441149 0.441151 0.441154 0.441157 0.441159 0.441162 0.441164 
0.441167 0.441169 0.441172 0.441174 0.441177 0.441179 0.441182 0.441184 0.441187 
0.44119 0.441192 0.441195 0.441197 0.4412 0.441202 0.441205 0.441207 0.44121 
0.441212 0.441214 0.441203 0.44109 0.439071 0.435128 0.260008 0.260023 0.260038 
0.260054 0.260069 0.260085 0.2601 0.260115 0.260131 0.260146 0.260161 0.260177 
0.260192 0.260207 0.260223 0.260238 0.260253 0.260269 0.260284 0.260299 0.260315 
0.26033 0.260345 0.26036 0.260376 0.260391 0.260406 0.260422 0.260437 0.260452 
0.260467 0.260483 0.260498 0.260513 0.260529 0.260544 0.260559 0.260574 0.26059 
0.260605 0.26062 0.260635 0.260651 0.260666 0.260681 0.260696 0.260711 0.260727 
0.260742 0.260757 0.260772 0.260788 0.260803 0.260818 0.260833 0.260848 0.260864 
0.260879 0.260894 0.260909 0.260924 0.260939 0.260955 0.26097 0.260985 0.261 
0.261015 0.26103 0.261046 0.261061 0.261076 0.261091 0.261106 0.261121 0.261137 
0.261152 0.261167 0.261182 0.261197 0.261212 0.261227 0.261242 0.261257 0.261273 
0.261288 0.261303 0.261318 0.261333 0.261348 0.261363 0.261378 0.261393 0.261408 
0.261423 0.261439 0.261454 0.261469 0.261484 0.261499 0.261514 0.261529 0.261544 
0.261559 0.261574 0.261589 0.261604 0.261619 0.261634 0.261649 0.261664 0.261679 
0.261694 0.261709 0.261724 0.261739 0.261754 0.261769 0.261784 0.261799 0.261814 
0.261829 0.261844 0.261859 0.261874 0.261889 0.261904 0.261919 0.261934 0.261949 
0.261964 0.261979 0.261994 0.262009 0.262024 0.262039 0.262054 0.262069 0.262084 
0.262099 0.262114 0.262129 0.262143 0.262158 0.262173 0.262188 0.262203 0.262218 
0.262233 0.262248 0.262263 0.262278 0.262292 0.262307 0.262322 0.262337 0.262352 
0.262367 0.262382 0.262396 0.262411 0.262426 0.262441 0.262456 0.262471 0.262485 
0.2625 0.262515 0.26253 0.262544 0.262559 0.262574 0.262588 0.262603 0.262618 
0.262632 0.262647 0.262661 0.262676 0.26269 0.262705 0.26272 0.262734 0.262747 
0.262762 0.262777 0.26279 0.262804 0.262819 0.262832 0.262844 0.262861 0.262876 
0.262887 0.262908 0.262947 0.262986 0.263304 0.264208 0.265249 0.266548 0.441014 
0.441008 0.44101 0.441012 0.441013 0.441013 0.441014 0.441015 0.441016 0.441016 
0.441018 0.441019 0.44102 0.441021 0.441023 0.441024 0.441026 0.441028 0.441029 
0.441031 0.441033 0.441035 0.441037 0.441039 0.441041 0.441043 0.441045 0.441048 
0.44105 0.441052 0.441055 0.441057 0.441059 0.441062 0.441064 0.441066 0.441069 
0.441071 0.441074 0.441076 0.441079 0.441081 0.441083 0.441086 0.441088 0.441091 
0.441093 0.441096 0.441098 0.441101 0.441103 0.441106 0.441108 0.441111 0.441114 
0.441116 0.441119 0.441121 0.441124 0.441126 0.441129 0.441131 0.441134 0.441136 
0.441139 0.441141 0.441144 0.441146 0.441149 0.441151 0.441154 0.441157 0.441159 
0.441162 0.441164 0.441167 0.441169 0.441172 0.441174 0.441177 0.441179 0.441182 
0.441184 0.441187 0.44119 0.441192 0.441195 0.441197 0.4412 0.441202 0.441205 
0.441207 0.44121 0.441212 0.441214 0.441203 0.44109 0.439071 0.435128 0.260008 
0.260023 0.260038 0.260054 0.260069 0.260085 0.2601 0.260115 0.260131 0.260146 
0.260161 0.260177 0.260192 0.260207 0.260223 0.260238 0.260253 0.260269 0.260284 
0.260299 0.260315 0.26033 0.260345 0.26036 0.260376 0.260391 0.260406 0.260422 
0.260437 0.260452 0.260467 0.260483 0.260498 0.260513 0.260529 0.260544 0.260559 
0.260574 0.26059 0.260605 0.26062 0.260635 0.260651 0.260666 0.260681 0.260696 
0.260711 0.260727 0.260742 0.260757 0.260772 0.260788 0.260803 0.260818 0.260833 
0.260848 0.260864 0.260879 0.260894 0.260909 0.260924 0.260939 0.260955 0.26097 
0.260985 0.261 0.261015 0.26103 0.261046 0.261061 0.261076 0.261091 0.261106 
0.261121 0.261136 0.261152 0.261167 0.261182 0.261197 0.261212 0.261227 0.261242 
0.261257 0.261273 0.261288 0.261303 0.261318 0.261333 0.261348 0.261363 0.261378 
0.261393 0.261408 0.261424 0.261439 0.261454 0.261469 0.261484 0.261499 0.261514 
0.261529 0.261544 0.261559 0.261574 0.261589 0.261604 0.261619 0.261634 0.261649 
0.261664 0.261679 0.261694 0.261709 0.261724 0.261739 0.261754 0.261769 0.261784 
0.261799 0.261814 0.261829 0.261844 0.261859 0.261874 0.261889 0.261904 0.261919 
0.261934 0.261949 0.261964 0.261979 0.261994 0.262009 0.262024 0.262039 0.262054 
0.262069 0.262084 0.262099 0.262114 0.262129 0.262143 0.262158 0.262173 0.262188 
0.262203 0.262218 0.262233 0.262248 0.262263 0.262278 0.262293 0.262307 0.262322 
0.262337 0.262352 0.262367 0.262382 0.262396 0.262411 0.262426 0.262441 0.262456 
0.262471 0.262485 0.2625 0.262515 0.26253 0.262544 0.262559 0.262574 0.262588 
0.262603 0.262618 0.262632 0.262647 0.262662 0.262676 0.26269 0.262705 0.26272 
0.262734 0.262747 0.262762 0.262777 0.26279 0.262804 0.262819 0.262832 0.262843 
0.26286 0.262875 0.262885 0.262907 0.262946 0.262988 0.263308 0.264216 0.265256 
0.266535 0.441019 0.441007 0.441007 0.441009 0.441011 0.441012 0.441013 0.441014 
0.441015 0.441016 0.441017 0.441018 0.441019 0.441021 0.441022 0.441024 0.441025 
0.441027 0.441029 0.441031 0.441033 0.441035 0.441037 0.441039 0.441041 0.441043 
0.441045 0.441048 0.44105 0.441052 0.441054 0.441057 0.441059 0.441061 0.441064 
0.441066 0.441069 0.441071 0.441074 0.441076 0.441078 0.441081 0.441083 0.441086 
0.441088 0.441091 0.441093 0.441096 0.441098 0.441101 0.441103 0.441106 0.441108 
0.441111 0.441114 0.441116 0.441119 0.441121 0.441124 0.441126 0.441129 0.441131 
0.441134 0.441136 0.441139 0.441141 0.441144 0.441146 0.441149 0.441151 0.441154 
0.441157 0.441159 0.441162 0.441164 0.441167 0.441169 0.441172 0.441174 0.441177 
0.441179 0.441182 0.441184 0.441187 0.44119 0.441192 0.441195 0.441197 0.4412 
0.441202 0.441205 0.441207 0.44121 0.441212 0.441214 0.441203 0.44109 0.439071 
0.435128 0.260008 0.260023 0.260038 0.260054 0.260069 0.260085 0.2601 0.260115 
0.260131 0.260146 0.260161 0.260177 0.260192 0.260207 0.260223 0.260238 0.260253 
0.260269 0.260284 0.260299 0.260315 0.26033 0.260345 0.26036 0.260376 0.260391 
0.260406 0.260422 0.260437 0.260452 0.260467 0.260483 0.260498 0.260513 0.260529 
0.260544 0.260559 0.260574 0.26059 0.260605 0.26062 0.260635 0.260651 0.260666 
0.260681 0.260696 0.260711 0.260727 0.260742 0.260757 0.260772 0.260788 0.260803 
0.260818 0.260833 0.260848 0.260864 0.260879 0.260894 0.260909 0.260924 0.260939 
0.260955 0.26097 0.260985 0.261 0.261015 0.26103 0.261046 0.261061 0.261076 
0.261091 0.261106 0.261121 0.261137 0.261152 0.261167 0.261182 0.261197 0.261212 
0.261227 0.261242 0.261257 0.261273 0.261288 0.261303 0.261318 0.261333 0.261348 
0.261363 0.261378 0.261393 0.261408 0.261424 0.261439 0.261454 0.261469 0.261484 
0.261499 0.261514 0.261529 0.261544 0.261559 0.261574 0.261589 0.261604 0.261619 
0.261634 0.261649 0.261664 0.261679 0.261694 0.261709 0.261724 0.261739 0.261754 
0.26177 0.261784 0.2618 0.261815 0.261829 0.261844 0.261859 0.261874 0.261889 
0.261904 0.261919 0.261934 0.261949 0.261964 0.261979 0.261994 0.262009 0.262024 
0.262039 0.262054 0.262069 0.262084 0.262099 0.262114 0.262129 0.262144 0.262158 
0.262173 0.262188 0.262203 0.262218 0.262233 0.262248 0.262263 0.262278 0.262293 
0.262307 0.262322 0.262337 0.262352 0.262367 0.262382 0.262397 0.262411 0.262426 
0.262441 0.262456 0.262471 0.262485 0.2625 0.262515 0.26253 0.262545 0.262559 
0.262574 0.262589 0.262603 0.262618 0.262633 0.262647 0.262662 0.262676 0.262691 
0.262705 0.262719 0.262734 0.262749 0.262762 0.262776 0.262792 0.262804 0.262816 
0.262833 0.262848 0.262855 0.262869 0.262891 0.262906 0.262934 0.263002 0.26336 
0.26416 0.265174 0.266693 0.440951 0.440995 0.441004 0.441007 0.441009 0.44101 
0.441012 0.441013 0.441014 0.441015 0.441016 0.441017 0.441019 0.44102 0.441022 
0.441023 0.441025 0.441027 0.441029 0.441031 0.441033 0.441035 0.441037 0.441039 
0.441041 0.441043 0.441045 0.441047 0.44105 0.441052 0.441054 0.441057 0.441059 
0.441061 0.441064 0.441066 0.441069 0.441071 0.441074 0.441076 0.441078 0.441081 
0.441083 0.441086 0.441088 0.441091 0.441093 0.441096 0.441098 0.441101 0.441103 
0.441106 0.441108 0.441111 0.441114 0.441116 0.441119 0.441121 0.441124 0.441126 
0.441129 0.441131 0.441134 0.441136 0.441139 0.441141 0.441144 0.441146 0.441149 
0.441151 0.441154 0.441157 0.441159 0.441162 0.441164 0.441167 0.441169 0.441172 
0.441174 0.441177 0.441179 0.441182 0.441184 0.441187 0.44119 0.441192 0.441195 
0.441197 0.4412 0.441202 0.441205 0.441207 0.44121 0.441212 0.441214 0.441203 
0.44109 0.439071 0.435128 0.260008 0.260023 0.260038 0.260054 0.260069 0.260085 
0.2601 0.260115 0.260131 0.260146 0.260161 0.260177 0.260192 0.260207 0.260223 
0.260238 0.260253 0.260269 0.260284 0.260299 0.260315 0.26033 0.260345 0.26036 
0.260376 0.260391 0.260406 0.260422 0.260437 0.260452 0.260467 0.260483 0.260498 
0.260513 0.260529 0.260544 0.260559 0.260574 0.26059 0.260605 0.26062 0.260635 
0.260651 0.260666 0.260681 0.260696 0.260711 0.260727 0.260742 0.260757 0.260772 
0.260788 0.260803 0.260818 0.260833 0.260848 0.260864 0.260879 0.260894 0.260909 
0.260924 0.260939 0.260955 0.26097 0.260985 0.261 0.261015 0.26103 0.261046 
0.261061 0.261076 0.261091 0.261106 0.261121 0.261136 0.261152 0.261167 0.261182 
0.261197 0.261212 0.261227 0.261242 0.261257 0.261273 0.261288 0.261303 0.261318 
0.261333 0.261348 0.261363 0.261378 0.261393 0.261408 0.261423 0.261439 0.261454 
0.261469 0.261484 0.261499 0.261514 0.261529 0.261544 0.261559 0.261574 0.261589 
0.261604 0.261619 0.261634 0.261649 0.261664 0.261679 0.261694 0.261709 0.261724 
0.261739 0.261754 0.261769 0.261784 0.261799 0.261814 0.261829 0.261844 0.261859 
0.261874 0.261889 0.261904 0.261919 0.261934 0.261949 0.261964 0.261979 0.261994 
0.262009 0.262024 0.262039 0.262054 0.262069 0.262084 0.262099 0.262114 0.262129 
0.262143 0.262158 0.262173 0.262188 0.262203 0.262218 0.262233 0.262248 0.262263 
0.262278 0.262293 0.262307 0.262322 0.262337 0.262352 0.262367 0.262382 0.262397 
0.262411 0.262426 0.262441 0.262456 0.262471 0.262485 0.2625 0.262515 0.26253 
0.262544 0.262559 0.262574 0.262589 0.262603 0.262618 0.262632 0.262647 0.262662 
0.262677 0.262691 0.262705 0.26272 0.262734 0.262748 0.262763 0.262778 0.26279 
0.262804 0.26282 0.262832 0.262844 0.262859 0.262874 0.262884 0.262906 0.262945 
0.262988 0.26331 0.26422 0.26526 0.266531 0.441023 0.441007 0.441005 0.441006 
0.441008 0.441009 0.44101 0.441012 0.441013 0.441014 0.441015 0.441017 0.441018 
0.44102 0.441021 0.441023 0.441025 0.441026 0.441028 0.44103 0.441032 0.441034 
0.441036 0.441038 0.441041 0.441043 0.441045 0.441047 0.44105 0.441052 0.441054 
0.441057 0.441059 0.441061 0.441064 0.441066 0.441069 0.441071 0.441073 0.441076 
0.441078 0.441081 0.441083 0.441086 0.441088 0.441091 0.441093 0.441096 0.441098 
0.441101 0.441103 0.441106 0.441108 0.441111 0.441113 0.441116 0.441119 0.441121 
0.441124 0.441126 0.441129 0.441131 0.441134 0.441136 0.441139 0.441141 0.441144 
0.441146 0.441149 0.441151 0.441154 0.441157 0.441159 0.441162 0.441164 0.441167 
0.441169 0.441172 0.441174 0.441177 0.441179 0.441182 0.441184 0.441187 0.44119 
0.441192 0.441195 0.441197 0.4412 0.441202 0.441205 0.441207 0.44121 0.441212 
0.441214 0.441203 0.44109 0.439071 0.435128 0.260008 0.260023 0.260038 0.260054 
0.260069 0.260085 0.2601 0.260115 0.260131 0.260146 0.260161 0.260177 0.260192 
0.260207 0.260223 0.260238 0.260253 0.260269 0.260284 0.260299 0.260315 0.26033 
0.260345 0.26036 0.260376 0.260391 0.260406 0.260422 0.260437 0.260452 0.260467 
0.260483 0.260498 0.260513 0.260529 0.260544 0.260559 0.260574 0.26059 0.260605 
0.26062 0.260635 0.260651 0.260666 0.260681 0.260696 0.260711 0.260727 0.260742 
0.260757 0.260772 0.260788 0.260803 0.260818 0.260833 0.260848 0.260863 0.260879 
0.260894 0.260909 0.260924 0.260939 0.260955 0.26097 0.260985 0.261 0.261015 
0.26103 0.261046 0.261061 0.261076 0.261091 0.261106 0.261121 0.261136 0.261152 
0.261167 0.261182 0.261197 0.261212 0.261227 0.261242 0.261257 0.261273 0.261288 
0.261303 0.261318 0.261333 0.261348 0.261363 0.261378 0.261393 0.261408 0.261424 
0.261439 0.261454 0.261469 0.261484 0.261499 0.261514 0.261529 0.261544 0.261559 
0.261574 0.261589 0.261604 0.261619 0.261634 0.261649 0.261664 0.261679 0.261694 