# vtk DataFile Version 5.1
vtk output
ASCII
DATASET UNSTRUCTURED_GRID
POINTS 9536 double
-10.1 1.4499999993 8.6074358308e-08 -10.049999999 1.4499999993 1.0829877084e-07 -10.049999999 1.5 -4.2207125261e-07 
-9.9999999985 1.4499999993 1.1536372568e-07 -9.9999999985 1.5 -4.417981927e-07 -9.9499999978 1.4499999993 1.1746647743e-07 
-9.9499999978 1.5 -4.49126901e-07 -9.899999997 1.4499999993 1.1845600767e-07 -9.899999997 1.5 -4.5235742618e-07 
-9.8499999963 1.4499999993 1.1882162454e-07 -9.8499999963 1.5 -4.5398209636e-07 -9.7999999955 1.4499999993 1.1905809316e-07 
-9.7999999955 1.5 -4.5500223678e-07 -9.7499999948 1.4499999993 1.1926728405e-07 -9.7499999948 1.5 -4.5569709073e-07 
-9.699999994 1.4499999993 1.1940552724e-07 -9.699999994 1.5 -4.5634646995e-07 -9.6499999933 1.4499999993 1.1957651225e-07 
-9.6499999933 1.5 -4.570576948e-07 -9.5999999925 1.4499999993 1.1986209358e-07 -9.5999999925 1.5 -4.5790716285e-07 
-9.5499999918 1.4499999993 1.2016040785e-07 -9.5499999918 1.5 -4.5881665756e-07 -9.4999999911 1.4499999993 1.2036777264e-07 
-9.4999999911 1.5 -4.6006812227e-07 -9.4499999903 1.4499999993 1.2068609578e-07 -9.4499999903 1.5 -4.6140507948e-07 
-9.3999999896 1.4499999993 1.2116267101e-07 -9.3999999896 1.5 -4.6286208999e-07 -9.3499999888 1.4499999993 1.2152101192e-07 
-9.3499999888 1.5 -4.6463924264e-07 -9.2999999881 1.4499999993 1.2201759603e-07 -9.2999999881 1.5 -4.6643822316e-07 
-9.2499999873 1.4499999993 1.2262513849e-07 -9.2499999873 1.5 -4.6853006097e-07 -9.1999999866 1.4499999993 1.2313445552e-07 
-9.1999999866 1.5 -4.7071316089e-07 -9.1499999858 1.4499999993 1.2372562708e-07 -9.1499999858 1.5 -4.7313028517e-07 
-9.0999999851 1.4499999993 1.2443685193e-07 -9.0999999851 1.5 -4.7556591198e-07 -9.0499999844 1.4499999993 1.2516626668e-07 
-9.0499999844 1.5 -4.781888947e-07 -8.9999999836 1.4499999993 1.2597207899e-07 -8.9999999836 1.5 -4.8104652706e-07 
-8.9499999829 1.4499999993 1.2671240768e-07 -8.9499999829 1.5 -4.8408060138e-07 -8.8999999821 1.4499999993 1.2747456424e-07 
-8.8999999821 1.5 -4.8717288337e-07 -8.8499999814 1.4499999993 1.2840042984e-07 -8.8499999814 1.5 -4.905489277e-07 
-8.7999999806 1.4499999993 1.2926444981e-07 -8.7999999806 1.5 -4.9403229241e-07 -8.7499999799 1.4499999993 1.3018667744e-07 
-8.7499999799 1.5 -4.976047876e-07 -8.6999999791 1.4499999993 1.3071418437e-07 -8.6999999791 1.5 -4.9949835557e-07 
-8.6499999784 1.4499999993 1.3178556912e-07 -8.6499999784 1.5 -5.034237347e-07 -8.5999999776 1.4499999993 1.3279328925e-07 
-8.5999999776 1.5 -5.0736548474e-07 -8.5499999769 1.4499999993 1.3396108045e-07 -8.5499999769 1.5 -5.1160009207e-07 
-8.4999999762 1.4499999993 1.3501791329e-07 -8.4999999762 1.5 -5.1591109695e-07 -8.4499999754 1.4499999993 1.3617479055e-07 
-8.4499999754 1.5 -5.2056770983e-07 -8.3999999747 1.4499999993 1.3742261729e-07 -8.3999999747 1.5 -5.2525160754e-07 
-8.3499999739 1.4499999993 1.3879049732e-07 -8.3499999739 1.5 -5.2989730648e-07 -8.2999999732 1.4499999993 1.4006742788e-07 
-8.2999999732 1.5 -5.3501230468e-07 -8.2499999724 1.4499999993 1.4137528126e-07 -8.2499999724 1.5 -5.4020370044e-07 
-8.1999999717 1.4499999993 1.4282865379e-07 -8.1999999717 1.5 -5.4558273632e-07 -8.1499999709 1.4499999993 1.4433295803e-07 
-8.1499999709 1.5 -5.5106124819e-07 -8.0999999702 1.4499999993 1.4576814067e-07 -8.0999999702 1.5 -5.5682380662e-07 
-8.0499999695 1.4499999993 1.4738522225e-07 -8.0499999695 1.5 -5.6277190197e-07 -7.9999999687 1.4499999993 1.4905141654e-07 
-7.9999999687 1.5 -5.6889825828e-07 -7.949999968 1.4499999993 1.5059210057e-07 -7.949999968 1.5 -5.7515558183e-07 
-7.8999999672 1.4499999993 1.523037696e-07 -7.8999999672 1.5 -5.816657449e-07 -7.8499999665 1.4499999993 1.5408728871e-07 
-7.8499999665 1.5 -5.8836599237e-07 -7.7999999657 1.4499999993 1.5581805712e-07 -7.7999999657 1.5 -5.9524904827e-07 
-7.749999965 1.4499999993 1.5775800932e-07 -7.749999965 1.5 -6.024022241e-07 -7.6999999642 1.4499999993 1.5962520195e-07 
-7.6999999642 1.5 -6.0980642047e-07 -7.6499999635 1.4499999993 1.615733396e-07 -7.6499999635 1.5 -6.1740433921e-07 
-7.5999999627 1.4499999993 1.6366426792e-07 -7.5999999627 1.5 -6.2521780819e-07 -7.549999962 1.4499999993 1.6573154937e-07 
-7.549999962 1.5 -6.3326075406e-07 -7.4999999613 1.4499999993 1.6792979807e-07 -7.4999999613 1.5 -6.4163509705e-07 
-7.4499999605 1.4499999993 1.7021626775e-07 -7.4499999605 1.5 -6.5012886807e-07 -7.3999999598 1.4499999993 1.7251910833e-07 
-7.3999999598 1.5 -6.58982799e-07 -7.349999959 1.4499999993 1.7488652304e-07 -7.349999959 1.5 -6.6811685429e-07 
-7.2999999583 1.4499999993 1.7737762903e-07 -7.2999999583 1.5 -6.7762744038e-07 -7.2499999575 1.4499999993 1.7987510148e-07 
-7.2499999575 1.5 -6.873235634e-07 -7.1999999568 1.4499999993 1.8252627854e-07 -7.1999999568 1.5 -6.9734073804e-07 
-7.149999956 1.4499999993 1.8526021961e-07 -7.149999956 1.5 -7.0768533078e-07 -7.0999999553 1.4499999993 1.8658262491e-07 
-7.0999999553 1.5 -7.1295403359e-07 -7.0499999546 1.4499999993 1.8945389968e-07 -7.0499999546 1.5 -7.2385614658e-07 
-6.9999999538 1.4499999993 1.9239975302e-07 -6.9999999538 1.5 -7.3503292697e-07 -6.9499999531 1.4499999993 1.9542018492e-07 
-6.9499999531 1.5 -7.4662807492e-07 -6.8999999523 1.4499999993 1.9858795497e-07 -6.8999999523 1.5 -7.5860521065e-07 
-6.8499999516 1.4499999993 2.0181666116e-07 -6.8499999516 1.5 -7.7095160123e-07 -6.7999999508 1.4499999993 2.0516542065e-07 
-6.7999999508 1.5 -7.837791145e-07 -6.7499999501 1.4499999993 2.0862695749e-07 -6.7499999501 1.5 -7.9700043898e-07 
-6.6999999493 1.4499999993 2.1218308177e-07 -6.6999999493 1.5 -8.1070106717e-07 -6.6499999486 1.4499999993 2.1583925047e-07 
-6.6499999486 1.5 -8.248237009e-07 -6.5999999478 1.4499999993 2.1971187891e-07 -6.5999999478 1.5 -8.3951294982e-07 
-6.5499999471 1.4499999993 2.2368728025e-07 -6.5499999471 1.5 -8.5461630306e-07 -6.4999999464 1.4499999993 2.2778546338e-07 
-6.4999999464 1.5 -8.7033299678e-07 -6.4499999456 1.4499999993 2.3204917454e-07 -6.4499999456 1.5 -8.866893495e-07 
-6.3999999449 1.4499999993 2.3647477576e-07 -6.3999999449 1.5 -9.0359958449e-07 -6.3499999441 1.4499999993 2.4112136998e-07 
-6.3499999441 1.5 -9.210891676e-07 -6.2999999434 1.4499999993 2.4580799618e-07 -6.2999999434 1.5 -9.3937637757e-07 
-6.2499999426 1.4499999993 2.507656518e-07 -6.2499999426 1.5 -9.5826294455e-07 -6.1999999419 1.4499999993 2.5593521968e-07 
-6.1999999419 1.5 -9.779780612e-07 -6.1499999411 1.4499999993 2.6132670428e-07 -6.1499999411 1.5 -9.9841759038e-07 
-6.0999999404 1.4499999993 2.6687143873e-07 -6.0999999404 1.5 -1.0197097708e-06 -6.0499999397 1.4499999993 2.7268038139e-07 
-6.0499999397 1.5 -1.0419364571e-06 -5.9999999389 1.4499999993 2.7872988539e-07 -5.9999999389 1.5 -1.0650730928e-06 
-5.9499999382 1.4499999993 2.8504905458e-07 -5.9499999382 1.5 -1.0891874354e-06 -5.8999999374 1.4499999993 2.9164243642e-07 
-5.8999999374 1.5 -1.1144335303e-06 -5.8499999367 1.4499999993 2.9856505535e-07 -5.8499999367 1.5 -1.1407671536e-06 
-5.7999999359 1.4499999993 3.0575733945e-07 -5.7999999359 1.5 -1.1683662251e-06 -5.7499999352 1.4499999993 3.1334025152e-07 
-5.7499999352 1.5 -1.1972440461e-06 -5.6999999344 1.4499999993 3.2123102756e-07 -5.6999999344 1.5 -1.2275293102e-06 
-5.6499999337 1.4499999993 3.2958428164e-07 -5.6499999337 1.5 -1.2593243355e-06 -5.5999999329 1.4499999993 3.3830542634e-07 
-5.5999999329 1.5 -1.2927246189e-06 -5.5499999322 1.4499999993 3.4286426853e-07 -5.5499999322 1.5 -1.3100749356e-06 
-5.4999999315 1.4499999993 3.5229300011e-07 -5.4999999315 1.5 -1.3462024526e-06 -5.4499999307 1.4499999993 3.6226970224e-07 
-5.4499999307 1.5 -1.3843152828e-06 -5.39999993 1.4499999993 3.7282620724e-07 -5.39999993 1.5 -1.4245258626e-06 
-5.3499999292 1.4499999993 3.8394250623e-07 -5.3499999292 1.5 -1.4671311419e-06 -5.2999999285 1.4499999993 3.9573956201e-07 
-5.2999999285 1.5 -1.5123061985e-06 -5.2499999277 1.4499999993 4.083242402e-07 -5.2499999277 1.5 -1.5602452095e-06 
-5.199999927 1.4499999993 4.2166789171e-07 -5.199999927 1.5 -1.6113237962e-06 -5.1499999262 1.4499999993 4.359619652e-07 
-5.1499999262 1.5 -1.6657975266e-06 -5.0999999255 1.4499999993 4.5123510972e-07 -5.0999999255 1.5 -1.724088861e-06 
-5.0499999247 1.4499999993 4.6759600991e-07 -5.0499999247 1.5 -1.7866220787e-06 -4.999999924 1.4499999993 4.8519063967e-07 
-4.999999924 1.5 -1.8539178654e-06 -4.9499999233 1.4499999993 5.0421772357e-07 -4.9499999233 1.5 -1.9265178253e-06 
-4.8999999225 1.4499999993 5.2477912504e-07 -4.8999999225 1.5 -2.0050929379e-06 -4.8499999218 1.4499999993 5.4715542319e-07 
-4.8499999218 1.5 -2.0905376914e-06 -4.799999921 1.4499999993 5.716024134e-07 -4.799999921 1.5 -2.1837604436e-06 
-4.7499999203 1.4499999993 5.983772553e-07 -4.7499999203 1.5 -2.2859858291e-06 -4.6999999195 1.4499999993 6.2787398747e-07 
-4.6999999195 1.5 -2.39858241e-06 -4.6499999188 1.4499999993 6.6055508796e-07 -4.6499999188 1.5 -2.523319381e-06 
-4.599999918 1.4499999993 6.9698558036e-07 -4.599999918 1.5 -2.6622569749e-06 -4.5499999173 1.4499999993 7.3782985055e-07 
-4.5499999173 1.5 -2.8180729714e-06 -4.4999999166 1.4499999993 7.8398761616e-07 -4.4999999166 1.5 -2.9940770219e-06 
-4.4499999158 1.4499999993 8.3654617811e-07 -4.4499999158 1.5 -3.1944391594e-06 -4.3999999151 1.4499999993 8.9692866823e-07 
-4.3999999151 1.5 -3.4245747429e-06 -4.3499999143 1.4499999993 9.6698613561e-07 -4.3499999143 1.5 -3.6914882457e-06 
-4.2999999136 1.4499999993 1.0492428828e-06 -4.2999999136 1.5 -4.0044587877e-06 -4.2499999128 1.4499999993 1.1469021501e-06 
-4.2499999128 1.5 -4.3760551307e-06 -4.1999999121 1.4499999993 1.264614184e-06 -4.1999999121 1.5 -4.8233941925e-06 
-4.1499999113 1.4499999993 1.4087047475e-06 -4.1499999113 1.5 -5.3704866332e-06 -4.0999999106 1.4499999993 1.5884165805e-06 
-4.0999999106 1.5 -6.0518841565e-06 -4.0499999098 1.4499999993 1.8173982426e-06 -4.0499999098 1.5 -6.9186639848e-06 
-3.9999999091 1.4499999993 2.1167159048e-06 -3.9999999091 1.5 -8.0490499386e-06 -3.9499999084 1.4499999993 2.3025834253e-06 
[...]
CELL_DATA 9090
FIELD FieldData 4
Water_Depth_m 1 9090 float
0.584001 0.584002 0.584003 0.584004 0.584006 0.584007 0.584008 0.584009 0.58401 
0.584011 0.584012 0.584013 0.584014 0.584016 0.584017 0.584018 0.584019 0.58402 
0.584021 0.584022 0.584024 0.584025 0.584026 0.584027 0.584028 0.584029 0.58403 
0.584031 0.584032 0.584034 0.584035 0.584036 0.584037 0.584038 0.584039 0.58404 
0.584041 0.584043 0.584044 0.584045 0.584046 0.584047 0.584048 0.584049 0.584051 
0.584052 0.584053 0.584054 0.584055 0.584056 0.584057 0.584058 0.58406 0.584061 
0.584062 0.584063 0.584064 0.584065 0.584066 0.584067 0.584069 0.58407 0.584071 
0.584072 0.584073 0.584074 0.584075 0.584076 0.584078 0.584079 0.58408 0.584081 
0.584082 0.584083 0.584084 0.584086 0.584087 0.584088 0.584089 0.58409 0.584091 
0.584092 0.584094 0.584095 0.584096 0.584097 0.584098 0.584099 0.584101 0.584102 
0.584103 0.584104 0.584105 0.584106 0.584108 0.584109 0.58411 0.584111 0.584112 
0.584114 0.584115 0.584116 0.584117 0.584119 0.58412 0.584121 0.584122 0.584124 
0.584125 0.584126 0.584127 0.584129 0.58413 0.584131 0.584133 0.584134 0.584135 
0.584137 0.584138 0.584139 0.584141 0.584142 0.584144 0.584145 0.584147 0.58415 
0.584155 0.584164 0.584184 0.584259 0.584495 0.584332 0.577723 0.56158 0.537964 
0.508816 0.475606 0.439567 0.401803 0.363396 0.326318 0.290719 0.257995 0.229762 
0.207537 0.192866 0.18512 0.183362 0.187095 0.192406 0.198361 0.202896 0.206409 
0.210435 0.217744 0.226707 0.233927 0.23834 0.240541 0.242453 0.243216 0.240484 
0.234919 0.234484 0.235159 0.238324 0.241833 0.245503 0.248684 0.252299 0.255752 
0.258287 0.261642 0.264278 0.266753 0.269925 0.271872 0.273373 0.274137 0.27543 
0.281043 0.28875 0.293385 0.298198 0.298798 0.30732 0.316465 0.326305 0.341412 
0.36156 0.385161 0.409278 0.445529 0.474685 0.498654 0.52706 0.545673 0.555604 
0.566481 0.618952 0.633824 0.651765 0.618041 0.587511 0.527897 0.503802 0.482198 
0.440584 0.406359 0.373717 0.370744 0.37074 0.370738 0.370741 0.370747 0.370754 
0.37076 0.370766 0.370772 0.370777 0.370783 0.370788 0.370793 0.370799 0.370804 
0.370809 0.370815 0.37082 0.370825 0.370831 0.370836 0.370842 0.370847 0.370852 
0.370858 0.370863 0.370868 0.370874 0.370879 0.370885 0.37089 0.370895 0.370901 
0.370906 0.370912 0.370917 0.370923 0.370928 0.370933 0.370939 0.370944 0.37095 
0.370955 0.370961 0.370966 0.370972 0.370977 0.370982 0.370988 0.370993 0.370999 
0.371004 0.37101 0.371015 0.371021 0.371026 0.371032 0.371037 0.371043 0.371048 
0.371053 0.371059 0.371064 0.37107 0.371075 0.371081 0.371086 0.371091 0.371097 
0.371102 0.371107 0.371113 0.371118 0.371123 0.371128 0.371134 0.371138 0.371143 
0.371148 0.371152 0.371156 0.371159 0.371161 0.371163 0.371154 0.371125 0.370022 
0.367402 0.36413 0.584001 0.584002 0.584003 0.584004 0.584005 0.584006 0.584007 
0.584008 0.58401 0.584011 0.584012 0.584013 0.584014 0.584015 0.584016 0.584017 
0.584019 0.58402 0.584021 0.584022 0.584023 0.584024 0.584025 0.584026 0.584028 
0.584029 0.58403 0.584031 0.584032 0.584033 0.584034 0.584035 0.584036 0.584038 
0.584039 0.58404 0.584041 0.584042 0.584043 0.584044 0.584045 0.584047 0.584048 
0.584049 0.58405 0.584051 0.584052 0.584053 0.584054 0.584056 0.584057 0.584058 
0.584059 0.58406 0.584061 0.584062 0.584063 0.584064 0.584066 0.584067 0.584068 
0.584069 0.58407 0.584071 0.584072 0.584073 0.584075 0.584076 0.584077 0.584078 
0.584079 0.58408 0.584081 0.584082 0.584084 0.584085 0.584086 0.584087 0.584088 
0.584089 0.58409 0.584091 0.584092 0.584094 0.584095 0.584096 0.584097 0.584098 
0.584099 0.5841 0.584102 0.584103 0.584104 0.584105 0.584106 0.584107 0.584108 
0.58411 0.584111 0.584112 0.584113 0.584114 0.584115 0.584117 0.584118 0.584119 
0.58412 0.584121 0.584122 0.584124 0.584125 0.584126 0.584127 0.584128 0.584129 
0.58413 0.584131 0.584132 0.584133 0.584134 0.584135 0.584135 0.584135 0.584135 
0.584135 0.584135 0.584134 0.584132 0.584131 0.584131 0.584162 0.584081 0.57817 
0.562903 0.539896 0.510935 0.477558 0.441096 0.402737 0.363626 0.325387 0.289017 
0.255785 0.227367 0.205543 0.190653 0.182714 0.181839 0.186446 0.193178 0.200177 
0.205313 0.209375 0.215597 0.221783 0.229207 0.232828 0.238008 0.240786 0.241269 
0.241243 0.238719 0.234187 0.233608 0.236102 0.239656 0.243112 0.245366 0.248174 
0.251389 0.254974 0.257728 0.260759 0.263455 0.266236 0.269465 0.271909 0.273942 
0.275586 0.278383 0.283941 0.291324 0.294838 0.303682 0.306047 0.312303 0.320571 
0.329866 0.341041 0.35501 0.381195 0.41223 0.449579 0.486962 0.512948 0.540637 
0.550825 0.555177 0.559336 0.618653 0.633168 0.648663 0.617501 0.587456 0.528229 
0.503803 0.482044 0.440472 0.406452 0.374288 0.370766 0.370752 0.370741 0.370742 
0.370746 0.370751 0.370757 0.370762 0.370767 0.370773 0.370778 0.370784 0.370789 
0.370795 0.3708 0.370806 0.370811 0.370817 0.370822 0.370827 0.370833 0.370838 
0.370844 0.370849 0.370855 0.37086 0.370866 0.370871 0.370877 0.370882 0.370888 
0.370893 0.370899 0.370904 0.37091 0.370915 0.370921 0.370926 0.370932 0.370937 
0.370943 0.370948 0.370954 0.370959 0.370965 0.37097 0.370976 0.370981 0.370987 
0.370992 0.370997 0.371003 0.371008 0.371014 0.371019 0.371025 0.37103 0.371036 
0.371041 0.371047 0.371052 0.371058 0.371063 0.371069 0.371074 0.37108 0.371085 
0.37109 0.371096 0.371101 0.371107 0.371112 0.371117 0.371122 0.371127 0.371133 
0.371138 0.371142 0.371147 0.371152 0.371155 0.371159 0.371162 0.371163 0.37116 
0.371135 0.370017 0.367432 0.364118 0.584001 0.584002 0.584003 0.584004 0.584005 
0.584006 0.584007 0.584008 0.58401 0.584011 0.584012 0.584013 0.584014 0.584015 
0.584016 0.584017 0.584019 0.58402 0.584021 0.584022 0.584023 0.584024 0.584025 
0.584026 0.584028 0.584029 0.58403 0.584031 0.584032 0.584033 0.584034 0.584035 
0.584037 0.584038 0.584039 0.58404 0.584041 0.584042 0.584043 0.584044 0.584045 
0.584047 0.584048 0.584049 0.58405 0.584051 0.584052 0.584053 0.584054 0.584056 
0.584057 0.584058 0.584059 0.58406 0.584061 0.584062 0.584063 0.584064 0.584066 
0.584067 0.584068 0.584069 0.58407 0.584071 0.584072 0.584073 0.584075 0.584076 
0.584077 0.584078 0.584079 0.58408 0.584081 0.584082 0.584084 0.584085 0.584086 
0.584087 0.584088 0.584089 0.58409 0.584091 0.584093 0.584094 0.584095 0.584096 
0.584097 0.584098 0.584099 0.5841 0.584102 0.584103 0.584104 0.584105 0.584106 
0.584107 0.584109 0.58411 0.584111 0.584112 0.584113 0.584114 0.584116 0.584117 
0.584118 0.584119 0.58412 0.584121 0.584123 0.584124 0.584125 0.584126 0.584127 
0.584128 0.584129 0.58413 0.584132 0.584132 0.584133 0.584134 0.584135 0.584136 
0.584136 0.584136 0.584136 0.584136 0.584135 0.584135 0.584134 0.584138 0.584225 
0.584082 0.578367 0.563575 0.541058 0.512397 0.479081 0.442463 0.403774 0.364202 
0.324953 0.287964 0.254356 0.225787 0.205302 0.189619 0.181149 0.180953 0.186304 
0.193535 0.201204 0.206837 0.211061 0.216212 0.221631 0.227456 0.229863 0.233541 
0.236756 0.236824 0.232945 0.229411 0.229868 0.231693 0.235251 0.239337 0.24323 
0.245179 0.246541 0.248928 0.251811 0.25507 0.258455 0.261024 0.263973 0.267048 
0.270046 0.272944 0.275587 0.278614 0.283731 0.290929 0.296373 0.301209 0.306084 
0.311617 0.31855 0.32911 0.338425 0.353053 0.385583 0.423901 0.451563 0.491628 
0.526714 0.548871 0.556988 0.558955 0.558472 0.61903 0.633158 0.648737 0.617617 
0.587466 0.528195 0.503799 0.482047 0.44046 0.406438 0.374124 0.370725 0.37073 
0.370735 0.37074 0.370746 0.370751 0.370757 0.370762 0.370768 0.370773 0.370778 
0.370784 0.370789 0.370795 0.3708 0.370806 0.370811 0.370817 0.370822 0.370828 
0.370833 0.370839 0.370844 0.37085 0.370855 0.37086 0.370866 0.370871 0.370877 
0.370882 0.370888 0.370893 0.370899 0.370904 0.37091 0.370915 0.370921 0.370926 
0.370932 0.370937 0.370943 0.370948 0.370954 0.370959 0.370965 0.37097 0.370976 
0.370981 0.370987 0.370992 0.370998 0.371003 0.371008 0.371014 0.371019 0.371025 
0.37103 0.371036 0.371041 0.371047 0.371052 0.371058 0.371063 0.371069 0.371074 
0.37108 0.371085 0.37109 0.371096 0.371101 0.371107 0.371112 0.371117 0.371122 
0.371128 0.371133 0.371138 0.371143 0.371148 0.371152 0.371157 0.371161 0.371165 
0.371168 0.371167 0.371148 0.37002 0.367444 0.364119 0.584001 0.584002 0.584003 
0.584004 0.584005 0.584006 0.584007 0.584008 0.58401 0.584011 0.584012 0.584013 
0.584014 0.584015 0.584016 0.584017 0.584019 0.58402 0.584021 0.584022 0.584023 
0.584024 0.584025 0.584026 0.584028 0.584029 0.58403 0.584031 0.584032 0.584033 
0.584034 0.584035 0.584036 0.584038 0.584039 0.58404 0.584041 0.584042 0.584043 
0.584044 0.584045 0.584047 0.584048 0.584049 0.58405 0.584051 0.584052 0.584053 
0.584054 0.584056 0.584057 0.584058 0.584059 0.58406 0.584061 0.584062 0.584063 
0.584064 0.584066 0.584067 0.584068 0.584069 0.58407 0.584071 0.584072 0.584073 
0.584075 0.584076 0.584077 0.584078 0.584079 0.58408 0.584081 0.584082 0.584083 
0.584085 0.584086 0.584087 0.584088 0.584089 0.58409 0.584091 0.584092 0.584094 
0.584095 0.584096 0.584097 0.584098 0.584099 0.5841 0.584102 0.584103 0.584104 
0.584105 0.584106 0.584107 0.584108 0.58411 0.584111 0.584112 0.584113 0.584114 
0.584115 0.584117 0.584118 0.584119 0.58412 0.584121 0.584122 0.584124 0.584125 
0.584126 0.584127 0.584128 0.584129 0.58413 0.584131 0.584132 0.584133 0.584134 
0.584135 0.584136 0.584136 0.584137 0.584137 0.584136 0.584135 0.584134 0.584132 
0.584129 0.584208 0.584081 0.57848 0.563992 0.541863 0.513541 0.480433 0.443869 
0.405083 0.365269 0.325624 0.287486 0.253326 0.224868 0.20426 0.188913 0.179987 
0.180335 0.186178 0.193542 0.201022 0.206748 0.211391 0.215708 0.219098 0.22006 
0.223225 0.226074 0.227576 0.227784 0.227286 0.227059 0.227851 0.229168 0.231147 
0.236137 0.240554 0.243083 0.244735 0.24753 0.250305 0.253302 0.256887 0.259526 
0.2622 0.264949 0.265887 0.268033 0.271392 0.274493 0.278552 0.284657 0.292428 
0.292294 0.296027 0.299982 0.303426 0.318221 0.329138 0.352266 0.384869 0.422841 
0.450119 0.490317 0.525446 0.549311 0.560282 0.561921 0.561129 0.619137 0.633145 
0.648668 0.6176 0.587473 0.528199 0.503807 0.482045 0.440462 0.406442 0.374161 
0.370726 0.370732 0.370735 0.37074 0.370745 0.370751 0.370756 0.370762 0.370767 
0.370773 0.370778 0.370784 0.370789 0.370795 0.3708 0.370806 0.370811 0.370816 
0.370822 0.370827 0.370833 0.370838 0.370844 0.370849 0.370855 0.37086 0.370866 
0.370871 0.370877 0.370882 0.370888 0.370893 0.370899 0.370904 0.37091 0.370915 
0.370921 0.370926 0.370932 0.370937 0.370943 0.370948 0.370954 0.370959 0.370965 
0.37097 0.370975 0.370981 0.370986 0.370992 0.370997 0.371003 0.371008 0.371014 
0.371019 0.371025 0.37103 0.371036 0.371041 0.371047 0.371052 0.371058 0.371063 
0.371069 0.371074 0.37108 0.371085 0.37109 0.371096 0.371101 0.371107 0.371112 
0.371117 0.371123 0.371128 0.371133 0.371138 0.371143 0.371148 0.371153 0.371158 
0.371163 0.371167 0.371172 0.371172 0.371156 0.370026 0.367448 0.364119 0.584001 
0.584002 0.584003 0.584004 0.584005 0.584006 0.584007 0.584008 0.58401 0.584011 
0.584012 0.584013 0.584014 0.584015 0.584016 0.584017 0.584019 0.58402 0.584021 
0.584022 0.584023 0.584024 0.584025 0.584026 0.584028 0.584029 0.58403 0.584031 
0.584032 0.584033 0.584034 0.584035 0.584036 0.584038 0.584039 0.58404 0.584041 
0.584042 0.584043 0.584044 0.584045 0.584047 0.584048 0.584049 0.58405 0.584051 
0.584052 0.584053 0.584054 0.584056 0.584057 0.584058 0.584059 0.58406 0.584061 
0.584062 0.584063 0.584064 0.584066 0.584067 0.584068 0.584069 0.58407 0.584071 
0.584072 0.584073 0.584075 0.584076 0.584077 0.584078 0.584079 0.58408 0.584081 
0.584082 0.584083 0.584085 0.584086 0.584087 0.584088 0.584089 0.58409 0.584091 
0.584092 0.584094 0.584095 0.584096 0.584097 0.584098 0.584099 0.5841 0.584101 
0.584103 0.584104 0.584105 0.584106 0.584107 0.584108 0.58411 0.584111 0.584112 
0.584113 0.584114 0.584115 0.584117 0.584118 0.584119 0.58412 0.584121 0.584122 
0.584124 0.584125 0.584126 0.584127 0.584128 0.584129 0.584131 0.584132 0.584133 
0.584134 0.584135 0.584136 0.584136 0.584137 0.584138 0.584138 0.584138 0.584138 
0.584137 0.584135 0.584134 0.584214 0.584086 0.578574 0.564333 0.54256 0.514615 
0.481834 0.445507 0.40685 0.367043 0.327255 0.288755 0.25313 0.222598 0.198886 
0.184517 0.178095 0.180288 0.186227 0.193258 0.199934 0.205265 0.20953 0.211559 
0.213583 0.216613 0.217676 0.220252 0.22321 0.224089 0.224994 0.226142 0.227138 
0.228373 0.2309 0.237306 0.243243 0.246027 0.247929 0.250957 0.253791 0.256166 
0.259366 0.261444 0.262817 0.264015 0.266124 0.268758 0.271704 0.27318 0.274965 
0.277582 0.282977 0.291388 0.293884 0.296297 0.308063 0.318737 0.33003 0.361949 
0.385013 0.41924 0.459823 0.487687 0.517089 0.546039 0.557827 0.558947 0.55796 
0.619233 0.633173 0.648622 0.61761 0.587472 0.528202 0.503801 0.482046 0.440461 
0.406438 0.374152 0.370723 0.370729 0.370734 0.37074 0.370745 0.370751 0.370756 
0.370762 0.370767 0.370773 0.370778 0.370784 0.370789 0.370795 0.3708 0.370806 
0.370811 0.370816 0.370822 0.370827 0.370833 0.370838 0.370844 0.370849 0.370855 
0.37086 0.370866 0.370871 0.370877 0.370882 0.370888 0.370893 0.370899 0.370904 
0.37091 0.370915 0.370921 0.370926 0.370932 0.370937 0.370943 0.370948 0.370954 
0.370959 0.370965 0.37097 0.370975 0.370981 0.370986 0.370992 0.370997 0.371003 
0.371008 0.371014 0.371019 0.371025 0.37103 0.371036 0.371041 0.371047 0.371052 
0.371058 0.371063 0.371069 0.371074 0.37108 0.371085 0.37109 0.371096 0.371101 
0.371107 0.371112 0.371117 0.371123 0.371128 0.371133 0.371139 0.371144 0.371149 
0.371154 0.371159 0.371164 0.37117 0.371175 0.371176 0.37116 0.370031 0.367451 
0.364119 0.584001 0.584002 0.584003 0.584004 0.584005 0.584006 0.584007 0.584008 
0.58401 0.584011 0.584012 0.584013 0.584014 0.584015 0.584016 0.584017 0.584019 
0.58402 0.584021 0.584022 0.584023 0.584024 0.584025 0.584026 0.584028 0.584029 
0.58403 0.584031 0.584032 0.584033 0.584034 0.584035 0.584036 0.584038 0.584039 
0.58404 0.584041 0.584042 0.584043 0.584044 0.584045 0.584047 0.584048 0.584049 
0.58405 0.584051 0.584052 0.584053 0.584054 0.584055 0.584057 0.584058 0.584059 
0.58406 0.584061 0.584062 0.584063 0.584064 0.584066 0.584067 0.584068 0.584069 
0.58407 0.584071 0.584072 0.584073 0.584075 0.584076 0.584077 0.584078 0.584079 
0.58408 0.584081 0.584082 0.584083 0.584085 0.584086 0.584087 0.584088 0.584089 
0.58409 0.584091 0.584092 0.584094 0.584095 0.584096 0.584097 0.584098 0.584099 
0.5841 0.584101 0.584103 0.584104 0.584105 0.584106 0.584107 0.584108 0.58411 
0.584111 0.584112 0.584113 0.584114 0.584115 0.584117 0.584118 0.584119 0.58412 
0.584121 0.584122 0.584124 0.584125 0.584126 0.584127 0.584128 0.58413 0.584131 
0.584132 0.584133 0.584134 0.584135 0.584136 0.584137 0.584138 0.584139 0.58414 
0.58414 0.58414 0.58414 0.58414 0.584139 0.58422 0.584093 0.578675 0.564685 
0.543286 0.51578 0.483446 0.447529 0.409225 0.369702 0.330127 0.291771 0.256205 
0.225073 0.200242 0.185747 0.180045 0.181951 0.18715 0.193277 0.199842 0.203699 
0.204535 0.205972 0.208018 0.211769 0.213751 0.215997 0.21689 0.218108 0.220069 
0.224599 0.227983 0.230857 0.233259 0.2388 0.243924 0.246673 0.248569 0.250959 
0.253877 0.256428 0.259351 0.264351 0.267554 0.269951 0.272718 0.275359 0.278519 
0.282118 0.286573 0.295455 0.308565 0.309376 0.322518 0.326534 0.32695 0.33914 
0.348766 0.35946 0.383695 0.414908 0.453908 0.481833 0.51118 0.535471 0.541992 
0.543234 0.544925 0.619364 0.633191 0.648564 0.617613 0.587479 0.528207 0.503809 
0.482047 0.440461 0.40644 0.374155 0.370724 0.37073 0.370734 0.37074 0.370745 
0.370751 0.370756 0.370762 0.370767 0.370773 0.370778 0.370784 0.370789 0.370795 
0.3708 0.370805 0.370811 0.370816 0.370822 0.370827 0.370833 0.370838 0.370844 
0.370849 0.370855 0.37086 0.370866 0.370871 0.370877 0.370882 0.370888 0.370893 
0.370899 0.370904 0.37091 0.370915 0.370921 0.370926 0.370932 0.370937 0.370943 
0.370948 0.370954 0.370959 0.370965 0.37097 0.370975 0.370981 0.370986 0.370992 
0.370997 0.371003 0.371008 0.371014 0.371019 0.371025 0.37103 0.371036 0.371041 
0.371047 0.371052 0.371058 0.371063 0.371069 0.371074 0.37108 0.371085 0.371091 
0.371096 0.371101 0.371107 0.371112 0.371118 0.371123 0.371128 0.371134 0.371139 
0.371145 0.37115 0.371155 0.371161 0.371166 0.371172 0.371178 0.371179 0.371163 
0.370034 0.367453 0.364119 0.584001 0.584002 0.584003 0.584004 0.584005 0.584006 
0.584007 0.584008 0.58401 0.584011 0.584012 0.584013 0.584014 0.584015 0.584016 
0.584017 0.584019 0.58402 0.584021 0.584022 0.584023 0.584024 0.584025 0.584026 
0.584028 0.584029 0.58403 0.584031 0.584032 0.584033 0.584034 0.584035 0.584036 
0.584038 0.584039 0.58404 0.584041 0.584042 0.584043 0.584044 0.584045 0.584047 
0.584048 0.584049 0.58405 0.584051 0.584052 0.584053 0.584054 0.584056 0.584057 
0.584058 0.584059 0.58406 0.584061 0.584062 0.584063 0.584064 0.584066 0.584067 
0.584068 0.584069 0.58407 0.584071 0.584072 0.584073 0.584075 0.584076 0.584077 
0.584078 0.584079 0.58408 0.584081 0.584082 0.584083 0.584085 0.584086 0.584087 
0.584088 0.584089 0.58409 0.584091 0.584092 0.584094 0.584095 0.584096 0.584097 
0.584098 0.584099 0.5841 0.584101 0.584103 0.584104 0.584105 0.584106 0.584107 
0.584108 0.58411 0.584111 0.584112 0.584113 0.584114 0.584115 0.584117 0.584118 
0.584119 0.58412 0.584121 0.584122 0.584124 0.584125 0.584126 0.584127 0.584128 
0.58413 0.584131 0.584132 0.584133 0.584135 0.584136 0.584137 0.584138 0.58414 
0.584141 0.584142 0.584143 0.584144 0.584145 0.584145 0.584147 0.584228 0.584104 
0.578794 0.565087 0.544111 0.517124 0.485358 0.450017 0.412276 0.373301 0.334289 
0.296599 0.261945 0.232129 0.208744 0.193637 0.186112 0.185194 0.189093 0.19392 
0.19886 0.202343 0.204141 0.205555 0.207625 0.211168 0.2133 0.215213 0.216079 
0.21627 0.21896 0.224055 0.22743 0.230271 0.233216 0.239114 0.244348 0.246878 
0.248696 0.250632 0.252134 0.256098 0.262161 0.264669 0.268369 0.273025 0.275068 
0.277364 0.281917 0.288774 0.29364 0.29959 0.30898 0.31253 0.323598 0.329472 
0.330765 0.342462 0.35895 0.360174 0.3748 0.397342 0.431796 0.46399 0.493145 
0.51762 0.530894 0.539216 0.544474 0.619438 0.633207 0.648504 0.617614 0.58748 
0.528204 0.503809 0.482049 0.440462 0.406439 0.374152 0.370724 0.37073 0.370734 
0.37074 0.370745 0.370751 0.370756 0.370762 0.370767 0.370773 0.370778 0.370784 
0.370789 0.370795 0.3708 0.370805 0.370811 0.370816 0.370822 0.370827 0.370833 
0.370838 0.370844 0.370849 0.370855 0.37086 0.370866 0.370871 0.370877 0.370882 
0.370888 0.370893 0.370899 0.370904 0.37091 0.370915 0.370921 0.370926 0.370932 
0.370937 0.370943 0.370948 0.370954 0.370959 0.370965 0.37097 0.370975 0.370981 
0.370986 0.370992 0.370997 0.371003 0.371008 0.371014 0.371019 0.371025 0.37103 
0.371036 0.371041 0.371047 0.371052 0.371058 0.371063 0.371069 0.371074 0.37108 
0.371085 0.371091 0.371096 0.371102 0.371107 0.371112 0.371118 0.371123 0.371129 
0.371134 0.37114 0.371145 0.371151 0.371156 0.371162 0.371168 0.371174 0.37118 
0.371181 0.371165 0.370037 0.367454 0.364119 0.584001 0.584002 0.584003 0.584004 
0.584005 0.584006 0.584007 0.584008 0.58401 0.584011 0.584012 0.584013 0.584014 
0.584015 0.584016 0.584017 0.584019 0.58402 0.584021 0.584022 0.584023 0.584024 
0.584025 0.584026 0.584028 0.584029 0.58403 0.584031 0.584032 0.584033 0.584034 
0.584035 0.584036 0.584038 0.584039 0.58404 0.584041 0.584042 0.584043 0.584044 
0.584045 0.584047 0.584048 0.584049 0.58405 0.584051 0.584052 0.584053 0.584054 
0.584056 0.584057 0.584058 0.584059 0.58406 0.584061 0.584062 0.584063 0.584064 
0.584066 0.584067 0.584068 0.584069 0.58407 0.584071 0.584072 0.584073 0.584075 
0.584076 0.584077 0.584078 0.584079 0.58408 0.584081 0.584082 0.584083 0.584085 
0.584086 0.584087 0.584088 0.584089 0.58409 0.584091 0.584092 0.584094 0.584095 
0.584096 0.584097 0.584098 0.584099 0.5841 0.584101 0.584103 0.584104 0.584105 
0.584106 0.584107 0.584108 0.58411 0.584111 0.584112 0.584113 0.584114 0.584115 
0.584117 0.584118 0.584119 0.58412 0.584121 0.584122 0.584124 0.584125 0.584126 
0.584127 0.584129 0.58413 0.584131 0.584133 0.584134 0.584135 0.584137 0.584138 