# vtk DataFile Version 5.1
vtk output
ASCII
DATASET UNSTRUCTURED_GRID
POINTS 10043 double
-10.1 1.4499999993 0 -10.049999999 1.4499999993 0 -10.049999999 1.5 0 
-9.9999999985 1.4499999993 0 -9.9999999985 1.5 0 -9.9499999978 1.4499999993 0 
-9.9499999978 1.5 0 -9.899999997 1.4499999993 0 -9.899999997 1.5 0 
-9.8499999963 1.4499999993 0 -9.8499999963 1.5 0 -9.7999999955 1.4499999993 0 
-9.7999999955 1.5 0 -9.7499999948 1.4499999993 0 -9.7499999948 1.5 0 
-9.699999994 1.4499999993 0 -9.699999994 1.5 0 -9.6499999933 1.4499999993 0 
-9.6499999933 1.5 0 -9.5999999925 1.4499999993 0 -9.5999999925 1.5 0 
-9.5499999918 1.4499999993 0 -9.5499999918 1.5 0 -9.4999999911 1.4499999993 0 
-9.4999999911 1.5 0 -9.4499999903 1.4499999993 0 -9.4499999903 1.5 0 
-9.3999999896 1.4499999993 0 -9.3999999896 1.5 0 -9.3499999888 1.4499999993 0 
-9.3499999888 1.5 0 -9.2999999881 1.4499999993 0 -9.2999999881 1.5 0 
-9.2499999873 1.4499999993 0 -9.2499999873 1.5 0 -9.1999999866 1.4499999993 0 
-9.1999999866 1.5 0 -9.1499999858 1.4499999993 0 -9.1499999858 1.5 0 
-9.0999999851 1.4499999993 0 -9.0999999851 1.5 0 -9.0499999844 1.4499999993 0 
-9.0499999844 1.5 0 -8.9999999836 1.4499999993 0 -8.9999999836 1.5 0 
-8.9499999829 1.4499999993 0 -8.9499999829 1.5 0 -8.8999999821 1.4499999993 0 
-8.8999999821 1.5 0 -8.8499999814 1.4499999993 0 -8.8499999814 1.5 0 
-8.7999999806 1.4499999993 0 -8.7999999806 1.5 0 -8.7499999799 1.4499999993 0 
-8.7499999799 1.5 0 -8.6999999791 1.4499999993 0 -8.6999999791 1.5 0 
-8.6499999784 1.4499999993 0 -8.6499999784 1.5 0 -8.5999999776 1.4499999993 0 
-8.5999999776 1.5 0 -8.5499999769 1.4499999993 0 -8.5499999769 1.5 0 
-8.4999999762 1.4499999993 0 -8.4999999762 1.5 0 -8.4499999754 1.4499999993 0 
-8.4499999754 1.5 0 -8.3999999747 1.4499999993 0 -8.3999999747 1.5 0 
-8.3499999739 1.4499999993 0 -8.3499999739 1.5 0 -8.2999999732 1.4499999993 0 
-8.2999999732 1.5 0 -8.2499999724 1.4499999993 0 -8.2499999724 1.5 0 
-8.1999999717 1.4499999993 0 -8.1999999717 1.5 0 -8.1499999709 1.4499999993 0 
-8.1499999709 1.5 0 -8.0999999702 1.4499999993 0 -8.0999999702 1.5 0 
-8.0499999695 1.4499999993 0 -8.0499999695 1.5 0 -7.9999999687 1.4499999993 0 
-7.9999999687 1.5 0 -7.949999968 1.4499999993 0 -7.949999968 1.5 0 
-7.8999999672 1.4499999993 0 -7.8999999672 1.5 0 -7.8499999665 1.4499999993 0 
-7.8499999665 1.5 0 -7.7999999657 1.4499999993 0 -7.7999999657 1.5 0 
-7.749999965 1.4499999993 0 -7.749999965 1.5 0 -7.6999999642 1.4499999993 0 
-7.6999999642 1.5 0 -7.6499999635 1.4499999993 0 -7.6499999635 1.5 0 
-7.5999999627 1.4499999993 0 -7.5999999627 1.5 0 -7.549999962 1.4499999993 0 
-7.549999962 1.5 0 -7.4999999613 1.4499999993 0 -7.4999999613 1.5 0 
-7.4499999605 1.4499999993 0 -7.4499999605 1.5 0 -7.3999999598 1.4499999993 0 
-7.3999999598 1.5 0 -7.349999959 1.4499999993 0 -7.349999959 1.5 0 
-7.2999999583 1.4499999993 0 -7.2999999583 1.5 0 -7.2499999575 1.4499999993 0 
-7.2499999575 1.5 0 -7.1999999568 1.4499999993 0 -7.1999999568 1.5 0 
-7.149999956 1.4499999993 0 -7.149999956 1.5 0 -7.0999999553 1.4499999993 0 
-7.0999999553 1.5 0 -7.0499999546 1.4499999993 0 -7.0499999546 1.5 0 
-6.9999999538 1.4499999993 0 -6.9999999538 1.5 0 -6.9499999531 1.4499999993 0 
-6.9499999531 1.5 0 -6.8999999523 1.4499999993 0 -6.8999999523 1.5 0 
-6.8499999516 1.4499999993 0 -6.8499999516 1.5 0 -6.7999999508 1.4499999993 0 
-6.7999999508 1.5 0 -6.7499999501 1.4499999993 0 -6.7499999501 1.5 0 
-6.6999999493 1.4499999993 0 -6.6999999493 1.5 0 -6.6499999486 1.4499999993 0 
-6.6499999486 1.5 0 -6.5999999478 1.4499999993 0 -6.5999999478 1.5 0 
-6.5499999471 1.4499999993 0 -6.5499999471 1.5 0 -6.4999999464 1.4499999993 0 
-6.4999999464 1.5 0 -6.4499999456 1.4499999993 0 -6.4499999456 1.5 0 
-6.3999999449 1.4499999993 0 -6.3999999449 1.5 0 -6.3499999441 1.4499999993 0 
-6.3499999441 1.5 0 -6.2999999434 1.4499999993 0 -6.2999999434 1.5 0 
-6.2499999426 1.4499999993 0 -6.2499999426 1.5 0 -6.1999999419 1.4499999993 0 
-6.1999999419 1.5 0 -6.1499999411 1.4499999993 0 -6.1499999411 1.5 0 
-6.0999999404 1.4499999993 0 -6.0999999404 1.5 0 -6.0499999397 1.4499999993 0 
-6.0499999397 1.5 0 -5.9999999389 1.4499999993 0 -5.9999999389 1.5 0 
-5.9499999382 1.4499999993 0 -5.9499999382 1.5 0 -5.8999999374 1.4499999993 0 
-5.8999999374 1.5 0 -5.8499999367 1.4499999993 0 -5.8499999367 1.5 0 
-5.7999999359 1.4499999993 0 -5.7999999359 1.5 0 -5.7499999352 1.4499999993 0 
-5.7499999352 1.5 0 -5.6999999344 1.4499999993 0 -5.6999999344 1.5 0 
-5.6499999337 1.4499999993 0 -5.6499999337 1.5 0 -5.5999999329 1.4499999993 0 
-5.5999999329 1.5 0 -5.5499999322 1.4499999993 0 -5.5499999322 1.5 0 
-5.4999999315 1.4499999993 0 -5.4999999315 1.5 0 -5.4499999307 1.4499999993 0 
-5.4499999307 1.5 0 -5.39999993 1.4499999993 0 -5.39999993 1.5 0 
-5.3499999292 1.4499999993 0 -5.3499999292 1.5 0 -5.2999999285 1.4499999993 0 
-5.2999999285 1.5 0 -5.2499999277 1.4499999993 0 -5.2499999277 1.5 0 
-5.199999927 1.4499999993 0 -5.199999927 1.5 0 -5.1499999262 1.4499999993 0 
-5.1499999262 1.5 0 -5.0999999255 1.4499999993 0 -5.0999999255 1.5 0 
-5.0499999247 1.4499999993 0 -5.0499999247 1.5 0 -4.999999924 1.4499999993 0 
-4.999999924 1.5 0 -4.9499999233 1.4499999993 0 -4.9499999233 1.5 0 
-4.8999999225 1.4499999993 0 -4.8999999225 1.5 0 -4.8499999218 1.4499999993 0 
-4.8499999218 1.5 0 -4.799999921 1.4499999993 0 -4.799999921 1.5 0 
-4.7499999203 1.4499999993 0 -4.7499999203 1.5 0 -4.6999999195 1.4499999993 0 
-4.6999999195 1.5 0 -4.6499999188 1.4499999993 0 -4.6499999188 1.5 0 
-4.599999918 1.4499999993 0 -4.599999918 1.5 0 -4.5499999173 1.4499999993 0 
-4.5499999173 1.5 0 -4.4999999166 1.4499999993 0 -4.4999999166 1.5 0 
-4.4499999158 1.4499999993 0 -4.4499999158 1.5 0 -4.3999999151 1.4499999993 0 
-4.3999999151 1.5 0 -4.3499999143 1.4499999993 0 -4.3499999143 1.5 0 
-4.2999999136 1.4499999993 0 -4.2999999136 1.5 0 -4.2499999128 1.4499999993 0 
-4.2499999128 1.5 0 -4.1999999121 1.4499999993 0 -4.1999999121 1.5 0 
-4.1499999113 1.4499999993 0 -4.1499999113 1.5 0 -4.0999999106 1.4499999993 0 
-4.0999999106 1.5 0 -4.0499999098 1.4499999993 0 -4.0499999098 1.5 0 
-3.9999999091 1.4499999993 0 -3.9999999091 1.5 0 -3.9499999084 1.4499999993 0 
-3.9499999084 1.5 0 -3.8999999076 1.4499999993 0 -3.8999999076 1.5 0 
-3.8499999069 1.4499999993 0 -3.8499999069 1.5 0 -3.7999999061 1.4499999993 0 
-3.7999999061 1.5 0 -3.7499999054 1.4499999993 0 -3.7499999054 1.5 0 
-3.6999999046 1.4499999993 0 -3.6999999046 1.5 0 -3.6499999039 1.4499999993 0 
-3.6499999039 1.5 0 -3.5999999031 1.4499999993 0 -3.5999999031 1.5 0 
-3.5499999024 1.4499999993 0 -3.5499999024 1.5 0 -3.4999999017 1.4499999993 0 
-3.4999999017 1.5 0 -3.4499999009 1.4499999993 0 -3.4499999009 1.5 0 
-3.3999999002 1.4499999993 0 -3.3999999002 1.5 0 -3.3499998994 1.4499999993 0 
-3.3499998994 1.5 0 -3.2999998987 1.4499999993 0 -3.2999998987 1.5 0 
-3.2499998979 1.4499999993 0 -3.2499998979 1.5 0 -3.1999998972 1.4499999993 0 
-3.1999998972 1.5 0 -3.1499998964 1.4499999993 0 -3.1499998964 1.5 0 
-3.0999998957 1.4499999993 0 -3.0999998957 1.5 0 -3.0499998949 1.4499999993 0 
-3.0499998949 1.5 0 -2.9999998942 1.4499999993 0 -2.9999998942 1.5 0 
-2.9499998935 1.4499999993 0 -2.9499998935 1.5 0 -2.8999998927 1.4499999993 0 
-2.8999998927 1.5 0 -2.849999892 1.4499999993 0 -2.849999892 1.5 0 
-2.7999998912 1.4499999993 0 -2.7999998912 1.5 0 -2.7499998905 1.4499999993 0 
-2.7499998905 1.5 0 -2.6999998897 1.4499999993 0 -2.6999998897 1.5 0 
-2.649999889 1.4499999993 0 -2.649999889 1.5 0 -2.5999998882 1.4499999993 0 
-2.5999998882 1.5 0 -2.5499998875 1.4499999993 0 -2.5499998875 1.5 0 
-2.4999998868 1.4499999993 0 -2.4999998868 1.5 0 -2.449999886 1.4499999993 0 
-2.449999886 1.5 0 -2.3999998853 1.4499999993 0 -2.3999998853 1.5 0 
-2.3499998845 1.4499999993 0 -2.3499998845 1.5 0 -2.2999998838 1.4499999993 0 
-2.2999998838 1.5 0 -2.249999883 1.4499999993 0 -2.249999883 1.5 0 
-2.1999998823 1.4499999993 0 -2.1999998823 1.5 0 -2.1499998815 1.4499999993 0 
-2.1499998815 1.5 0 -2.0999998808 1.4499999993 0 -2.0999998808 1.5 0 
-2.04999988 1.4499999993 0 -2.04999988 1.5 0 -1.9999998793 1.4499999993 0 
-1.9999998793 1.5 0 -1.9499998786 1.4499999993 0 -1.9499998786 1.5 0 
-1.8999998778 1.4499999993 0 -1.8999998778 1.5 0 -1.8499998771 1.4499999993 0 
-1.8499998771 1.5 0 -1.7999998763 1.4499999993 0 -1.7999998763 1.5 0 
-1.7499998756 1.4499999993 0 -1.7499998756 1.5 0 -1.6999998748 1.4499999993 0 
-1.6999998748 1.5 0 -1.6499998741 1.4499999993 0 -1.6499998741 1.5 0 
-1.5999998733 1.4499999993 0 -1.5999998733 1.5 0 -1.5499998726 1.4499999993 0 
-1.5499998726 1.5 0 -1.4999998718 1.4499999993 0 -1.4999998718 1.5 0 
-1.4499998711 1.4499999993 0 -1.4499998711 1.5 0 -1.3999998704 1.4499999993 0 
-1.3999998704 1.5 0 -1.3499998696 1.4499999993 0 -1.3499998696 1.5 0 
-1.2999998689 1.4499999993 0 -1.2999998689 1.5 0 -1.2499998681 1.4499999993 0 
-1.2499998681 1.5 0 -1.1999998674 1.4499999993 0 -1.1999998674 1.5 0 
-1.1499998666 1.4499999993 0 -1.1499998666 1.5 0 -1.0999998659 1.4499999993 0 
-1.0999998659 1.5 0 -1.0499998651 1.4499999993 0 -1.0499998651 1.5 0 
-0.9999998644 1.4499999993 0 -0.9999998644 1.5 0 -0.94999986365 1.4499999993 0 
-0.94999986365 1.5 0 -0.89999986291 1.4499999993 0 -0.89999986291 1.5 0 
-0.84999986216 1.4499999993 0 -0.84999986216 1.5 0 -0.79999986142 1.4499999993 0 
-0.79999986142 1.5 0 -0.74999986067 1.4499999993 0 -0.74999986067 1.5 0 
-0.69999985993 1.4499999993 0 -0.69999985993 1.5 0 -0.64999985918 1.4499999993 0 
-0.64999985918 1.5 0 -0.59999985844 1.4499999993 0 -0.59999985844 1.5 0 
-0.54999985769 1.4499999993 0 -0.54999985769 1.5 0 -0.49999985695 1.4499999993 0 
-0.49999985695 1.5 0 -0.4499998562 1.4499999993 0 -0.4499998562 1.5 0 
-0.39999985546 1.4499999993 0 -0.39999985546 1.5 0 -0.34999985471 1.4499999993 0 
-0.34999985471 1.5 0 -0.29999985397 1.4499999993 0 -0.29999985397 1.5 0 
-0.24999985322 1.4499999993 0 -0.24999985322 1.5 0 -0.191663057 1.4499999993 0 
-0.17548248559 1.5 0 0.18862900414 1.4499999993 0 0.25000015423 1.4499999993 0 
[...]
CELL_DATA 9510
FIELD FieldData 4
Water_Depth_m 1 9510 float
0.33999 0.339969 0.339947 0.339927 0.339907 0.33989 0.339876 0.339866 0.33986 
0.339859 0.339863 0.339873 0.33989 0.339913 0.339943 0.33998 0.340024 0.340076 
0.340135 0.3402 0.340273 0.340352 0.340437 0.340528 0.340625 0.340726 0.340831 
0.340939 0.341049 0.341161 0.341274 0.341386 0.341497 0.341607 0.341713 0.341814 
0.341911 0.342003 0.342087 0.342165 0.342234 0.342295 0.342346 0.342388 0.34242 
0.342441 0.342452 0.342452 0.34244 0.342418 0.342384 0.342338 0.342281 0.342211 
0.34213 0.342038 0.341934 0.341819 0.341694 0.341558 0.341413 0.341259 0.341098 
0.340929 0.340754 0.340575 0.340392 0.340208 0.340022 0.339837 0.339654 0.339474 
0.339298 0.339128 0.338965 0.338811 0.338667 0.338534 0.338414 0.338308 0.338219 
0.338147 0.338094 0.338062 0.338051 0.338064 0.3381 0.338159 0.338241 0.338346 
0.338472 0.338618 0.338782 0.338961 0.339154 0.339357 0.339568 0.339783 0.34 
0.340215 0.340427 0.340633 0.340831 0.341018 0.341194 0.341357 0.341507 0.341641 
0.341762 0.341867 0.341958 0.342034 0.342097 0.342148 0.342186 0.342213 0.342231 
0.34224 0.342241 0.342236 0.342226 0.342212 0.342196 0.342178 0.342161 0.342144 
0.342129 0.342116 0.342107 0.342102 0.3421 0.342103 0.342109 0.342118 0.342131 
0.342146 0.342162 0.342179 0.342197 0.342215 0.342232 0.342248 0.342263 0.342278 
0.342291 0.342303 0.342314 0.342324 0.342334 0.342343 0.342352 0.34236 0.342368 
0.342375 0.342382 0.342389 0.342394 0.342399 0.342402 0.342404 0.342404 0.342404 
0.342403 0.3424 0.342397 0.342393 0.34239 0.342389 0.34239 0.342393 0.342399 
0.34241 0.342427 0.342451 0.342482 0.342522 0.342571 0.34263 0.342702 0.342788 
0.342887 0.343 0.343131 0.343282 0.343453 0.343647 0.343865 0.344107 0.34438 
0.344683 0.345017 0.345386 0.345789 0.346225 0.3467 0.347194 0.347721 0.34836 
0.353309 0.353842 0.354283 0.354692 0.355068 0.355411 0.355725 0.356009 0.356267 
0.356501 0.356712 0.356902 0.357074 0.357229 0.35737 0.357497 0.357611 0.357715 
0.357809 0.357895 0.357972 0.358043 0.358108 0.358167 0.35822 0.35827 0.358315 
0.358357 0.358396 0.358432 0.358465 0.358496 0.358525 0.358551 0.358577 0.3586 
0.358623 0.358644 0.358664 0.358683 0.358701 0.358718 0.358734 0.35875 0.358765 
0.35878 0.358794 0.358808 0.358821 0.358834 0.358846 0.358858 0.35887 0.358882 
0.358893 0.358904 0.358915 0.358926 0.358936 0.358947 0.358957 0.358967 0.358977 
0.358986 0.358996 0.359005 0.359015 0.359024 0.359033 0.359042 0.359051 0.35906 
0.359068 0.359077 0.359085 0.359094 0.359102 0.35911 0.359119 0.359127 0.359135 
0.359143 0.359151 0.359158 0.359166 0.359174 0.359181 0.359189 0.359196 0.359203 
0.359211 0.359217 0.359208 0.359186 0.357878 0.355397 0.352199 0.33999 0.339968 
0.339946 0.339924 0.339904 0.339887 0.339872 0.339861 0.339855 0.339853 0.339857 
0.339867 0.339884 0.339907 0.339936 0.339973 0.340017 0.340069 0.340127 0.340193 
0.340266 0.340345 0.340431 0.340522 0.340619 0.34072 0.340825 0.340934 0.341045 
0.341158 0.341271 0.341385 0.341497 0.341607 0.341714 0.341817 0.341915 0.342007 
0.342093 0.342171 0.342241 0.342303 0.342355 0.342398 0.34243 0.342452 0.342463 
0.342463 0.342452 0.342429 0.342395 0.342349 0.342291 0.342221 0.34214 0.342046 
0.341942 0.341826 0.341699 0.341562 0.341416 0.341261 0.341098 0.340927 0.340751 
0.340571 0.340387 0.340201 0.340014 0.339828 0.339643 0.339462 0.339286 0.339115 
0.338951 0.338796 0.338651 0.338517 0.338396 0.338289 0.338199 0.338126 0.338073 
0.33804 0.33803 0.338042 0.338078 0.338137 0.33822 0.338326 0.338453 0.3386 
0.338765 0.338947 0.339142 0.339347 0.33956 0.339777 0.339997 0.340215 0.340429 
0.340637 0.340836 0.341025 0.341203 0.341367 0.341517 0.341653 0.341774 0.341879 
0.34197 0.342046 0.342109 0.342159 0.342196 0.342223 0.342239 0.342247 0.342247 
0.342241 0.34223 0.342215 0.342197 0.342178 0.34216 0.342142 0.342126 0.342113 
0.342103 0.342098 0.342096 0.342099 0.342106 0.342116 0.342129 0.342144 0.342161 
0.342179 0.342197 0.342215 0.342232 0.342249 0.342265 0.342279 0.342292 0.342304 
0.342315 0.342325 0.342335 0.342344 0.342352 0.34236 0.342368 0.342376 0.342383 
0.342389 0.342395 0.3424 0.342403 0.342405 0.342406 0.342405 0.342403 0.3424 
0.342397 0.342393 0.34239 0.342387 0.342387 0.342389 0.342395 0.342406 0.342422 
0.342444 0.342474 0.342513 0.342562 0.342621 0.342691 0.342774 0.342872 0.342985 
0.343116 0.343264 0.343432 0.343622 0.343837 0.344079 0.34435 0.344648 0.34498 
0.345344 0.345743 0.346181 0.346651 0.347149 0.347678 0.3483 0.353315 0.353852 
0.354297 0.354707 0.355084 0.355429 0.355742 0.356026 0.356284 0.356516 0.356726 
0.356916 0.357087 0.357241 0.35738 0.357506 0.35762 0.357723 0.357816 0.357901 
0.357978 0.358048 0.358112 0.358171 0.358224 0.358273 0.358319 0.35836 0.358398 
0.358434 0.358467 0.358498 0.358526 0.358553 0.358578 0.358602 0.358624 0.358645 
0.358665 0.358683 0.358701 0.358719 0.358735 0.358751 0.358766 0.35878 0.358794 
0.358808 0.358821 0.358834 0.358846 0.358859 0.35887 0.358882 0.358893 0.358904 
0.358915 0.358926 0.358936 0.358947 0.358957 0.358967 0.358977 0.358986 0.358996 
0.359005 0.359015 0.359024 0.359033 0.359042 0.359051 0.35906 0.359068 0.359077 
0.359085 0.359094 0.359102 0.35911 0.359119 0.359127 0.359135 0.359143 0.359151 
0.359158 0.359166 0.359174 0.359181 0.359189 0.359196 0.359203 0.359211 0.359217 
0.359208 0.359186 0.357878 0.355397 0.352199 0.339989 0.339966 0.339942 0.339919 
0.339898 0.339879 0.339864 0.339852 0.339845 0.339843 0.339846 0.339855 0.339871 
0.339894 0.339923 0.339959 0.340003 0.340054 0.340113 0.340179 0.340251 0.340331 
0.340417 0.340509 0.340606 0.340708 0.340815 0.340924 0.341037 0.341151 0.341266 
0.341381 0.341495 0.341607 0.341716 0.341821 0.341922 0.342016 0.342103 0.342184 
0.342256 0.342319 0.342373 0.342417 0.34245 0.342473 0.342485 0.342485 0.342474 
0.342451 0.342417 0.34237 0.342312 0.342241 0.342158 0.342063 0.341957 0.341839 
0.34171 0.341571 0.341422 0.341264 0.341098 0.340925 0.340746 0.340562 0.340376 
0.340187 0.339998 0.339809 0.339623 0.339439 0.339261 0.339088 0.338923 0.338766 
0.338619 0.338483 0.33836 0.338252 0.33816 0.338086 0.338031 0.337997 0.337986 
0.337998 0.338034 0.338094 0.338178 0.338285 0.338414 0.338564 0.338733 0.338918 
0.339117 0.339327 0.339544 0.339767 0.339991 0.340213 0.340432 0.340644 0.340847 
0.341039 0.34122 0.341386 0.341539 0.341676 0.341798 0.341904 0.341995 0.342071 
0.342132 0.342181 0.342217 0.342241 0.342256 0.342261 0.342259 0.34225 0.342237 
0.342219 0.3422 0.342179 0.342158 0.342138 0.342121 0.342106 0.342096 0.34209 
0.342089 0.342092 0.342099 0.34211 0.342124 0.342141 0.342159 0.342178 0.342197 
0.342216 0.342234 0.342251 0.342267 0.342281 0.342294 0.342306 0.342316 0.342326 
0.342335 0.342344 0.342353 0.342361 0.342369 0.342377 0.342384 0.342391 0.342397 
0.342402 0.342406 0.342408 0.342408 0.342407 0.342405 0.342402 0.342397 0.342392 
0.342388 0.342384 0.342382 0.342383 0.342387 0.342396 0.34241 0.342431 0.34246 
0.342497 0.342543 0.3426 0.342668 0.34275 0.342845 0.342955 0.343081 0.343225 
0.34339 0.343576 0.343786 0.344022 0.344285 0.344579 0.344905 0.345264 0.34566 
0.346095 0.34656 0.347056 0.347587 0.348212 0.353328 0.353873 0.354324 0.354738 
0.355118 0.355463 0.355777 0.35606 0.356316 0.356547 0.356756 0.356943 0.357112 
0.357264 0.357402 0.357526 0.357638 0.357739 0.357831 0.357914 0.35799 0.358059 
0.358122 0.35818 0.358232 0.358281 0.358325 0.358366 0.358404 0.358439 0.358471 
0.358501 0.35853 0.358556 0.358581 0.358604 0.358626 0.358647 0.358666 0.358685 
0.358703 0.35872 0.358736 0.358752 0.358767 0.358781 0.358795 0.358809 0.358822 
0.358835 0.358847 0.358859 0.358871 0.358882 0.358894 0.358905 0.358916 0.358926 
0.358937 0.358947 0.358957 0.358967 0.358977 0.358986 0.358996 0.359005 0.359015 
0.359024 0.359033 0.359042 0.359051 0.35906 0.359068 0.359077 0.359085 0.359094 
0.359102 0.359111 0.359119 0.359127 0.359135 0.359143 0.359151 0.359158 0.359166 
0.359174 0.359181 0.359189 0.359196 0.359203 0.359211 0.359217 0.359208 0.359186 
0.357878 0.355397 0.352199 0.339988 0.339962 0.339937 0.339912 0.339889 0.339869 
0.339852 0.339839 0.33983 0.339827 0.339829 0.339837 0.339852 0.339874 0.339903 
0.339939 0.339982 0.340033 0.340091 0.340157 0.34023 0.34031 0.340396 0.340489 
0.340587 0.340691 0.340798 0.34091 0.341024 0.341141 0.341258 0.341376 0.341493 
0.341608 0.34172 0.341828 0.341931 0.342029 0.342119 0.342202 0.342277 0.342343 
0.342399 0.342445 0.34248 0.342505 0.342517 0.342518 0.342508 0.342485 0.34245 
0.342403 0.342343 0.34227 0.342186 0.342088 0.341979 0.341858 0.341726 0.341583 
0.34143 0.341267 0.341097 0.34092 0.340737 0.340549 0.340358 0.340166 0.339973 
0.339781 0.339591 0.339405 0.339224 0.339048 0.33888 0.33872 0.33857 0.338432 
0.338306 0.338196 0.338101 0.338024 0.337967 0.337932 0.337919 0.33793 0.337967 
0.338028 0.338113 0.338223 0.338355 0.338509 0.338683 0.338874 0.339079 0.339296 
0.339521 0.33975 0.339981 0.340211 0.340436 0.340654 0.340863 0.341061 0.341246 
0.341416 0.341571 0.341711 0.341834 0.341941 0.342032 0.342107 0.342168 0.342214 
0.342248 0.34227 0.342281 0.342283 0.342277 0.342265 0.342248 0.342226 0.342203 
0.342178 0.342154 0.342132 0.342112 0.342096 0.342084 0.342078 0.342077 0.34208 
0.342089 0.342102 0.342118 0.342136 0.342156 0.342177 0.342198 0.342218 0.342237 
0.342254 0.34227 0.342284 0.342297 0.342308 0.342319 0.342328 0.342337 0.342345 
0.342354 0.342362 0.34237 0.342378 0.342386 0.342393 0.3424 0.342406 0.342409 
0.342412 0.342412 0.342411 0.342408 0.342404 0.342398 0.342392 0.342385 0.342379 
0.342375 0.342373 0.342375 0.342381 0.342392 0.342411 0.342437 0.342471 0.342515 
0.342569 0.342635 0.342713 0.342804 0.34291 0.343031 0.34317 0.343328 0.343507 
0.343709 0.343936 0.344191 0.344476 0.344792 0.345143 0.345533 0.345962 0.346423 
0.346916 0.347447 0.348077 0.353348 0.353907 0.354366 0.354786 0.355169 0.355516 
0.35583 0.356112 0.356366 0.356594 0.3568 0.356984 0.35715 0.357299 0.357433 
0.357555 0.357664 0.357763 0.357853 0.357934 0.358008 0.358075 0.358137 0.358193 
0.358244 0.358291 0.358334 0.358374 0.358411 0.358446 0.358477 0.358507 0.358535 
0.358561 0.358585 0.358608 0.358629 0.35865 0.358669 0.358687 0.358705 0.358722 
0.358738 0.358753 0.358768 0.358783 0.358796 0.35881 0.358823 0.358835 0.358848 
0.35886 0.358871 0.358883 0.358894 0.358905 0.358916 0.358927 0.358937 0.358947 
0.358957 0.358967 0.358977 0.358987 0.358996 0.359006 0.359015 0.359024 0.359033 
0.359042 0.359051 0.35906 0.359068 0.359077 0.359086 0.359094 0.359102 0.359111 
0.359119 0.359127 0.359135 0.359143 0.359151 0.359158 0.359166 0.359174 0.359181 
0.359189 0.359196 0.359203 0.359211 0.359217 0.359208 0.359186 0.357878 0.355397 
0.352199 0.339986 0.339958 0.339929 0.339902 0.339877 0.339854 0.339835 0.33982 
0.33981 0.339805 0.339806 0.339814 0.339827 0.339848 0.339876 0.339911 0.339954 
0.340004 0.340062 0.340128 0.340201 0.340282 0.340369 0.340462 0.340562 0.340667 
0.340777 0.34089 0.341007 0.341127 0.341248 0.341369 0.341489 0.341608 0.341724 
0.341837 0.341944 0.342046 0.34214 0.342227 0.342306 0.342375 0.342434 0.342483 
0.34252 0.342546 0.342561 0.342563 0.342552 0.342529 0.342494 0.342446 0.342384 
0.34231 0.342222 0.342122 0.342009 0.341884 0.341747 0.341599 0.34144 0.341272 
0.341096 0.340913 0.340724 0.340531 0.340335 0.340137 0.33994 0.339743 0.339549 
0.339359 0.339174 0.338995 0.338823 0.338659 0.338506 0.338364 0.338235 0.33812 
0.338022 0.337942 0.337882 0.337843 0.337829 0.33784 0.337876 0.337938 0.338026 
0.338139 0.338275 0.338435 0.338615 0.338814 0.339028 0.339254 0.339489 0.339728 
0.339969 0.340208 0.340442 0.340669 0.340885 0.34109 0.341281 0.341456 0.341616 
0.341758 0.341883 0.341991 0.342082 0.342156 0.342215 0.342259 0.34229 0.342308 
0.342315 0.342312 0.342302 0.342284 0.342262 0.342236 0.342207 0.342178 0.342149 
0.342123 0.3421 0.342081 0.342068 0.342061 0.34206 0.342064 0.342075 0.34209 
0.342108 0.34213 0.342152 0.342176 0.342199 0.342221 0.342241 0.342259 0.342275 
0.342289 0.342301 0.342312 0.342322 0.34233 0.342339 0.342347 0.342355 0.342363 
0.342372 0.34238 0.342389 0.342397 0.342404 0.34241 0.342415 0.342418 0.342418 
0.342417 0.342413 0.342407 0.3424 0.342391 0.342382 0.342373 0.342366 0.342361 
0.342358 0.342361 0.342369 0.342384 0.342407 0.342438 0.342478 0.342529 0.342591 
0.342664 0.342751 0.342851 0.342965 0.343096 0.343246 0.343415 0.343607 0.343823 
0.344065 0.344338 0.344642 0.34498 0.345359 0.345781 0.346235 0.346724 0.347254 
0.347892 0.353377 0.353954 0.354425 0.354853 0.35524 0.355589 0.355902 0.356182 
0.356433 0.356657 0.356858 0.357039 0.3572 0.357345 0.357476 0.357593 0.357699 
0.357795 0.357881 0.35796 0.358031 0.358096 0.358155 0.35821 0.358259 0.358305 
0.358347 0.358386 0.358421 0.358455 0.358485 0.358514 0.358541 0.358566 0.35859 
0.358612 0.358634 0.358654 0.358673 0.358691 0.358708 0.358724 0.35874 0.358755 
0.35877 0.358784 0.358798 0.358811 0.358824 0.358837 0.358849 0.358861 0.358872 
0.358884 0.358895 0.358906 0.358916 0.358927 0.358937 0.358947 0.358958 0.358967 
0.358977 0.358987 0.358996 0.359006 0.359015 0.359024 0.359033 0.359042 0.359051 
0.35906 0.359068 0.359077 0.359086 0.359094 0.359102 0.359111 0.359119 0.359127 
0.359135 0.359143 0.359151 0.359158 0.359166 0.359174 0.359181 0.359189 0.359196 
0.359203 0.359211 0.359217 0.359208 0.359186 0.357878 0.355397 0.352199 0.339984 
0.339952 0.33992 0.339889 0.339861 0.339836 0.339814 0.339797 0.339785 0.339779 
0.339778 0.339784 0.339797 0.339816 0.339843 0.339877 0.339919 0.339969 0.340027 
0.340092 0.340166 0.340247 0.340334 0.340429 0.34053 0.340637 0.340749 0.340866 
0.340986 0.341109 0.341233 0.341359 0.341484 0.341608 0.341729 0.341847 0.34196 
0.342066 0.342166 0.342258 0.342341 0.342414 0.342477 0.342529 0.34257 0.342598 
0.342614 0.342618 0.342608 0.342585 0.342549 0.342499 0.342436 0.342359 0.342268 
0.342164 0.342046 0.341916 0.341773 0.341618 0.341453 0.341278 0.341094 0.340904 
0.340708 0.340507 0.340304 0.3401 0.339897 0.339695 0.339496 0.339301 0.339111 
0.338927 0.338751 0.338583 0.338425 0.338278 0.338144 0.338025 0.337922 0.337837 
0.337773 0.337732 0.337715 0.337724 0.33776 0.337824 0.337915 0.338031 0.338173 
0.33834 0.338529 0.338738 0.338963 0.339201 0.339448 0.3397 0.339954 0.340205 
0.34045 0.340687 0.340913 0.341127 0.341325 0.341507 0.341671 0.341818 0.341945 
0.342054 0.342145 0.342219 0.342275 0.342316 0.342342 0.342355 0.342357 0.342349 
0.342332 0.342309 0.342279 0.342247 0.342212 0.342176 0.342142 0.34211 0.342083 
0.342061 0.342046 0.342038 0.342037 0.342043 0.342056 0.342075 0.342097 0.342122 
0.342148 0.342175 0.342201 0.342225 0.342247 0.342266 0.342282 0.342296 0.342307 
0.342317 0.342326 0.342333 0.34234 0.342348 0.342356 0.342364 0.342373 0.342382 
0.342391 0.342401 0.342409 0.342416 0.342422 0.342425 0.342426 0.342424 0.34242 
0.342412 0.342403 0.342391 0.342379 0.342366 0.342355 0.342345 0.342338 0.342336 
0.34234 0.342351 0.342369 0.342396 0.342433 0.342479 0.342536 0.342605 0.342685 
0.342778 0.342885 0.343007 0.343146 0.343303 0.343482 0.343683 0.34391 0.344166 
0.344454 0.344776 0.345139 0.345547 0.345989 0.346472 0.347002 0.347648 0.353418 
0.354019 0.354504 0.354941 0.355333 0.355682 0.355994 0.356271 0.356517 0.356737 
0.356932 0.357107 0.357263 0.357402 0.357528 0.35764 0.357742 0.357834 0.357917 
0.357992 0.35806 0.358122 0.358179 0.358231 0.358278 0.358322 0.358362 0.358399 
0.358434 0.358466 0.358496 0.358523 0.358549 0.358574 0.358597 0.358618 0.358639 
0.358658 0.358677 0.358694 0.358711 0.358727 0.358743 0.358758 0.358772 0.358786 
0.3588 0.358813 0.358825 0.358838 0.35885 0.358862 0.358873 0.358884 0.358896 
0.358906 0.358917 0.358928 0.358938 0.358948 0.358958 0.358968 0.358978 0.358987 
0.358997 0.359006 0.359015 0.359024 0.359033 0.359042 0.359051 0.35906 0.359069 
0.359077 0.359086 0.359094 0.359102 0.359111 0.359119 0.359127 0.359135 0.359143 
0.359151 0.359158 0.359166 0.359174 0.359181 0.359189 0.359196 0.359203 0.359211 
0.359217 0.359208 0.359186 0.357878 0.355397 0.352199 0.339982 0.339945 0.339908 
0.339874 0.339842 0.339814 0.339789 0.33977 0.339756 0.339747 0.339745 0.339749 
0.33976 0.339778 0.339804 0.339837 0.339878 0.339927 0.339985 0.34005 0.340124 
0.340205 0.340294 0.34039 0.340492 0.340601 0.340716 0.340835 0.340959 0.341086 
0.341216 0.341346 0.341477 0.341607 0.341734 0.341858 0.341977 0.34209 0.342196 
0.342294 0.342382 0.342461 0.342528 0.342584 0.342628 0.34266 0.342678 0.342683 
0.342674 0.342651 0.342614 0.342563 0.342497 0.342417 0.342323 0.342214 0.34209 
0.341953 0.341803 0.341641 0.341467 0.341284 0.341091 0.340892 0.340687 0.340478 
0.340267 0.340055 0.339844 0.339636 0.339431 0.33923 0.339035 0.338846 0.338665 
0.338492 0.338328 0.338176 0.338036 0.33791 0.337801 0.337711 0.337642 0.337596 
0.337576 0.337583 0.337619 0.337685 0.337779 0.3379 0.338048 0.338223 0.338423 
0.338645 0.338884 0.339137 0.3394 0.339667 0.339935 0.340201 0.34046 0.34071 
0.340948 0.341172 0.341379 0.341569 0.341739 0.34189 0.342021 0.342131 0.342222 
0.342294 0.342347 0.342384 0.342405 0.342413 0.342408 0.342393 0.342369 0.342337 
0.3423 0.342259 0.342216 0.342173 0.342131 0.342093 0.342061 0.342035 0.342017 
0.342008 0.342008 0.342016 0.342033 0.342055 0.342083 0.342113 0.342144 0.342175 
0.342205 0.342231 0.342255 0.342275 0.342292 0.342305 0.342315 0.342323 0.34233 
0.342336 0.342342 0.342348 0.342356 0.342364 0.342373 0.342384 0.342394 0.342405 
0.342415 0.342424 0.342431 0.342435 0.342437 0.342434 0.342429 0.342419 0.342407 
0.342392 0.342375 0.342358 0.342341 0.342326 0.342314 0.342306 0.342305 0.342311 
0.342324 0.342346 0.342378 0.34242 0.342473 0.342535 0.342609 0.342694 0.342791 
0.342903 0.343029 0.343172 0.343335 0.343518 0.343726 0.343962 0.344228 0.34453 
0.34487 0.345257 0.345682 0.346153 0.346681 0.347335 0.353475 0.354104 0.354606 
0.355053 0.355449 0.355799 0.356107 0.356379 0.35662 0.356832 0.357021 0.357188 
0.357337 0.357471 0.35759 0.357697 0.357793 0.35788 0.357958 0.358029 0.358094 
0.358153 0.358206 0.358255 0.3583 0.358342 0.35838 0.358416 0.358448 0.358479 
0.358507 0.358534 0.358559 0.358582 0.358604 0.358625 0.358645 0.358664 0.358682 
0.358699 0.358715 0.358731 0.358746 0.358761 0.358775 0.358789 0.358802 0.358815 
0.358827 0.358839 0.358851 0.358863 0.358874 0.358886 0.358896 0.358907 0.358918 
0.358928 0.358938 0.358949 0.358958 0.358968 0.358978 0.358988 0.358997 0.359006 
0.359015 0.359025 0.359034 0.359043 0.359051 0.35906 0.359069 0.359077 0.359086 
0.359094 0.359103 0.359111 0.359119 0.359127 0.359135 0.359143 0.359151 0.359158 
0.359166 0.359174 0.359181 0.359189 0.359196 0.359203 0.359211 0.359217 0.359208 
0.359186 0.357878 0.355397 0.352199 0.339979 0.339936 0.339895 0.339856 0.33982 
0.339788 0.339761 0.339739 0.339722 0.339711 0.339707 0.339709 0.339719 0.339735 
0.339759 0.339791 0.339831 0.33988 0.339937 0.340002 0.340076 0.340157 0.340247 
0.340344 0.340448 0.34056 0.340677 0.3408 0.340928 0.34106 0.341194 0.341331 
0.341468 0.341604 0.341739 0.34187 0.341996 0.342116 0.342229 0.342334 0.342429 
0.342513 0.342586 0.342647 0.342696 0.34273 0.342751 0.342758 0.34275 0.342727 
0.342689 0.342637 0.342569 0.342485 0.342386 0.342271 0.342141 0.341997 0.341838 
0.341667 0.341483 0.341289 0.341086 0.340875 0.34066 0.340441 0.34022 0.34 
0.339781 0.339565 0.339354 0.339147 0.338946 0.338751 0.338564 0.338385 0.338216 
0.338057 0.33791 0.337777 0.33766 0.337563 0.337486 0.337435 0.337411 0.337416 
0.337452 0.337519 0.337618 0.337746 0.337901 0.338086 0.3383 0.338538 0.338794 
0.339065 0.339346 0.339631 0.339917 0.340199 0.340474 0.340738 0.34099 0.341225 
0.341443 0.341641 0.341819 0.341975 0.342109 0.342222 0.342312 0.342382 0.342432 
0.342464 0.342479 0.342479 0.342467 0.342443 0.342411 0.34237 0.342323 0.342273 
0.34222 0.342168 0.342117 0.342071 0.342032 0.342001 0.34198 0.341969 0.341971 
0.341982 0.342004 0.342032 0.342066 0.342102 0.34214 0.342177 0.342211 0.342241 
0.342267 0.342288 0.342304 0.342316 0.342325 0.342331 0.342335 0.342339 0.342343 