# vtk DataFile Version 5.1
vtk output
ASCII
DATASET UNSTRUCTURED_GRID
POINTS 10043 double
-10.1 1.4499999993 8.6074358308e-08 -10.049999999 1.4499999993 1.0829877084e-07 -10.049999999 1.5 -4.2207125261e-07 
-9.9999999985 1.4499999993 1.1536372568e-07 -9.9999999985 1.5 -4.417981927e-07 -9.9499999978 1.4499999993 1.1746647743e-07 
-9.9499999978 1.5 -4.49126901e-07 -9.899999997 1.4499999993 1.1845600767e-07 -9.899999997 1.5 -4.5235742618e-07 
-9.8499999963 1.4499999993 1.1882162454e-07 -9.8499999963 1.5 -4.5398209636e-07 -9.7999999955 1.4499999993 1.1905809316e-07 
-9.7999999955 1.5 -4.5500223678e-07 -9.7499999948 1.4499999993 1.1926728405e-07 -9.7499999948 1.5 -4.5569709073e-07 
-9.699999994 1.4499999993 1.1940552724e-07 -9.699999994 1.5 -4.5634646995e-07 -9.6499999933 1.4499999993 1.1957651225e-07 
-9.6499999933 1.5 -4.570576948e-07 -9.5999999925 1.4499999993 1.1986209358e-07 -9.5999999925 1.5 -4.5790716285e-07 
-9.5499999918 1.4499999993 1.2016040785e-07 -9.5499999918 1.5 -4.5881665756e-07 -9.4999999911 1.4499999993 1.2036777264e-07 
-9.4999999911 1.5 -4.6006812227e-07 -9.4499999903 1.4499999993 1.2068609578e-07 -9.4499999903 1.5 -4.6140507948e-07 
-9.3999999896 1.4499999993 1.2116267101e-07 -9.3999999896 1.5 -4.6286208999e-07 -9.3499999888 1.4499999993 1.2152101192e-07 
-9.3499999888 1.5 -4.6463924264e-07 -9.2999999881 1.4499999993 1.2201759603e-07 -9.2999999881 1.5 -4.6643822316e-07 
-9.2499999873 1.4499999993 1.2262513849e-07 -9.2499999873 1.5 -4.6853006097e-07 -9.1999999866 1.4499999993 1.2313445552e-07 
-9.1999999866 1.5 -4.7071316089e-07 -9.1499999858 1.4499999993 1.2372562708e-07 -9.1499999858 1.5 -4.7313028517e-07 
-9.0999999851 1.4499999993 1.2443685193e-07 -9.0999999851 1.5 -4.7556591198e-07 -9.0499999844 1.4499999993 1.2516626668e-07 
-9.0499999844 1.5 -4.781888947e-07 -8.9999999836 1.4499999993 1.2597207899e-07 -8.9999999836 1.5 -4.8104652706e-07 
-8.9499999829 1.4499999993 1.2671240768e-07 -8.9499999829 1.5 -4.8408060138e-07 -8.8999999821 1.4499999993 1.2747456424e-07 
-8.8999999821 1.5 -4.8717288337e-07 -8.8499999814 1.4499999993 1.2840042984e-07 -8.8499999814 1.5 -4.905489277e-07 
-8.7999999806 1.4499999993 1.2926444981e-07 -8.7999999806 1.5 -4.9403229241e-07 -8.7499999799 1.4499999993 1.3018667744e-07 
-8.7499999799 1.5 -4.976047876e-07 -8.6999999791 1.4499999993 1.3071418437e-07 -8.6999999791 1.5 -4.9949835557e-07 
-8.6499999784 1.4499999993 1.3178556912e-07 -8.6499999784 1.5 -5.034237347e-07 -8.5999999776 1.4499999993 1.3279328925e-07 
-8.5999999776 1.5 -5.0736548474e-07 -8.5499999769 1.4499999993 1.3396108045e-07 -8.5499999769 1.5 -5.1160009207e-07 
-8.4999999762 1.4499999993 1.3501791329e-07 -8.4999999762 1.5 -5.1591109695e-07 -8.4499999754 1.4499999993 1.3617479055e-07 
-8.4499999754 1.5 -5.2056770983e-07 -8.3999999747 1.4499999993 1.3742261729e-07 -8.3999999747 1.5 -5.2525160754e-07 
-8.3499999739 1.4499999993 1.3879049732e-07 -8.3499999739 1.5 -5.2989730648e-07 -8.2999999732 1.4499999993 1.4006742788e-07 
-8.2999999732 1.5 -5.3501230468e-07 -8.2499999724 1.4499999993 1.4137528126e-07 -8.2499999724 1.5 -5.4020370044e-07 
-8.1999999717 1.4499999993 1.4282865379e-07 -8.1999999717 1.5 -5.4558273632e-07 -8.1499999709 1.4499999993 1.4433295803e-07 
-8.1499999709 1.5 -5.5106124819e-07 -8.0999999702 1.4499999993 1.4576814067e-07 -8.0999999702 1.5 -5.5682380662e-07 
-8.0499999695 1.4499999993 1.4738522225e-07 -8.0499999695 1.5 -5.6277190197e-07 -7.9999999687 1.4499999993 1.4905141654e-07 
-7.9999999687 1.5 -5.6889825828e-07 -7.949999968 1.4499999993 1.5059210057e-07 -7.949999968 1.5 -5.7515558183e-07 
-7.8999999672 1.4499999993 1.523037696e-07 -7.8999999672 1.5 -5.816657449e-07 -7.8499999665 1.4499999993 1.5408728871e-07 
-7.8499999665 1.5 -5.8836599237e-07 -7.7999999657 1.4499999993 1.5581805712e-07 -7.7999999657 1.5 -5.9524904827e-07 
-7.749999965 1.4499999993 1.5775800932e-07 -7.749999965 1.5 -6.024022241e-07 -7.6999999642 1.4499999993 1.5962520195e-07 
-7.6999999642 1.5 -6.0980642047e-07 -7.6499999635 1.4499999993 1.615733396e-07 -7.6499999635 1.5 -6.1740433921e-07 
-7.5999999627 1.4499999993 1.6366426792e-07 -7.5999999627 1.5 -6.2521780819e-07 -7.549999962 1.4499999993 1.6573154937e-07 
-7.549999962 1.5 -6.3326075406e-07 -7.4999999613 1.4499999993 1.6792979807e-07 -7.4999999613 1.5 -6.4163509705e-07 
-7.4499999605 1.4499999993 1.7021626775e-07 -7.4499999605 1.5 -6.5012886807e-07 -7.3999999598 1.4499999993 1.7251910833e-07 
-7.3999999598 1.5 -6.58982799e-07 -7.349999959 1.4499999993 1.7488652304e-07 -7.349999959 1.5 -6.6811685429e-07 
-7.2999999583 1.4499999993 1.7737762903e-07 -7.2999999583 1.5 -6.7762744038e-07 -7.2499999575 1.4499999993 1.7987510148e-07 
-7.2499999575 1.5 -6.873235634e-07 -7.1999999568 1.4499999993 1.8252627854e-07 -7.1999999568 1.5 -6.9734073804e-07 
-7.149999956 1.4499999993 1.8526021961e-07 -7.149999956 1.5 -7.0768533078e-07 -7.0999999553 1.4499999993 1.8658262491e-07 
-7.0999999553 1.5 -7.1295403359e-07 -7.0499999546 1.4499999993 1.8945389968e-07 -7.0499999546 1.5 -7.2385614658e-07 
-6.9999999538 1.4499999993 1.9239975302e-07 -6.9999999538 1.5 -7.3503292697e-07 -6.9499999531 1.4499999993 1.9542018492e-07 
-6.9499999531 1.5 -7.4662807492e-07 -6.8999999523 1.4499999993 1.9858795497e-07 -6.8999999523 1.5 -7.5860521065e-07 
-6.8499999516 1.4499999993 2.0181666116e-07 -6.8499999516 1.5 -7.7095160123e-07 -6.7999999508 1.4499999993 2.0516542065e-07 
-6.7999999508 1.5 -7.837791145e-07 -6.7499999501 1.4499999993 2.0862695749e-07 -6.7499999501 1.5 -7.9700043898e-07 
-6.6999999493 1.4499999993 2.1218308177e-07 -6.6999999493 1.5 -8.1070106717e-07 -6.6499999486 1.4499999993 2.1583925047e-07 
-6.6499999486 1.5 -8.248237009e-07 -6.5999999478 1.4499999993 2.1971187891e-07 -6.5999999478 1.5 -8.3951294982e-07 
-6.5499999471 1.4499999993 2.2368728025e-07 -6.5499999471 1.5 -8.5461630306e-07 -6.4999999464 1.4499999993 2.2778546338e-07 
-6.4999999464 1.5 -8.7033299678e-07 -6.4499999456 1.4499999993 2.3204917454e-07 -6.4499999456 1.5 -8.866893495e-07 
-6.3999999449 1.4499999993 2.3647477576e-07 -6.3999999449 1.5 -9.0359958449e-07 -6.3499999441 1.4499999993 2.4112136998e-07 
-6.3499999441 1.5 -9.210891676e-07 -6.2999999434 1.4499999993 2.4580799618e-07 -6.2999999434 1.5 -9.3937637757e-07 
-6.2499999426 1.4499999993 2.507656518e-07 -6.2499999426 1.5 -9.5826294455e-07 -6.1999999419 1.4499999993 2.5593521968e-07 
-6.1999999419 1.5 -9.779780612e-07 -6.1499999411 1.4499999993 2.6132670428e-07 -6.1499999411 1.5 -9.9841759038e-07 
-6.0999999404 1.4499999993 2.6687143873e-07 -6.0999999404 1.5 -1.0197097708e-06 -6.0499999397 1.4499999993 2.7268038139e-07 
-6.0499999397 1.5 -1.0419364571e-06 -5.9999999389 1.4499999993 2.7872988539e-07 -5.9999999389 1.5 -1.0650730928e-06 
-5.9499999382 1.4499999993 2.8504905458e-07 -5.9499999382 1.5 -1.0891874354e-06 -5.8999999374 1.4499999993 2.9164243642e-07 
-5.8999999374 1.5 -1.1144335303e-06 -5.8499999367 1.4499999993 2.9856505535e-07 -5.8499999367 1.5 -1.1407671536e-06 
-5.7999999359 1.4499999993 3.0575733945e-07 -5.7999999359 1.5 -1.1683662251e-06 -5.7499999352 1.4499999993 3.1334025152e-07 
-5.7499999352 1.5 -1.1972440461e-06 -5.6999999344 1.4499999993 3.2123102756e-07 -5.6999999344 1.5 -1.2275293102e-06 
-5.6499999337 1.4499999993 3.2958428164e-07 -5.6499999337 1.5 -1.2593243355e-06 -5.5999999329 1.4499999993 3.3830542634e-07 
-5.5999999329 1.5 -1.2927246189e-06 -5.5499999322 1.4499999993 3.4286426853e-07 -5.5499999322 1.5 -1.3100749356e-06 
-5.4999999315 1.4499999993 3.5229300011e-07 -5.4999999315 1.5 -1.3462024526e-06 -5.4499999307 1.4499999993 3.6226970224e-07 
-5.4499999307 1.5 -1.3843152828e-06 -5.39999993 1.4499999993 3.7282620724e-07 -5.39999993 1.5 -1.4245258626e-06 
-5.3499999292 1.4499999993 3.8394250623e-07 -5.3499999292 1.5 -1.4671311419e-06 -5.2999999285 1.4499999993 3.9573956201e-07 
-5.2999999285 1.5 -1.5123061985e-06 -5.2499999277 1.4499999993 4.083242402e-07 -5.2499999277 1.5 -1.5602452095e-06 
-5.199999927 1.4499999993 4.2166789171e-07 -5.199999927 1.5 -1.6113237962e-06 -5.1499999262 1.4499999993 4.359619652e-07 
-5.1499999262 1.5 -1.6657975266e-06 -5.0999999255 1.4499999993 4.5123510972e-07 -5.0999999255 1.5 -1.724088861e-06 
-5.0499999247 1.4499999993 4.6759600991e-07 -5.0499999247 1.5 -1.7866220787e-06 -4.999999924 1.4499999993 4.8519063967e-07 
-4.999999924 1.5 -1.8539178654e-06 -4.9499999233 1.4499999993 5.0421772357e-07 -4.9499999233 1.5 -1.9265178253e-06 
-4.8999999225 1.4499999993 5.2477912504e-07 -4.8999999225 1.5 -2.0050929379e-06 -4.8499999218 1.4499999993 5.4715542319e-07 
-4.8499999218 1.5 -2.0905376914e-06 -4.799999921 1.4499999993 5.716024134e-07 -4.799999921 1.5 -2.1837604436e-06 
-4.7499999203 1.4499999993 5.983772553e-07 -4.7499999203 1.5 -2.2859858291e-06 -4.6999999195 1.4499999993 6.2787398747e-07 
-4.6999999195 1.5 -2.39858241e-06 -4.6499999188 1.4499999993 6.6055508796e-07 -4.6499999188 1.5 -2.523319381e-06 
-4.599999918 1.4499999993 6.9698558036e-07 -4.599999918 1.5 -2.6622569749e-06 -4.5499999173 1.4499999993 7.3782985055e-07 
-4.5499999173 1.5 -2.8180729714e-06 -4.4999999166 1.4499999993 7.8398761616e-07 -4.4999999166 1.5 -2.9940770219e-06 
-4.4499999158 1.4499999993 8.3654617811e-07 -4.4499999158 1.5 -3.1944391594e-06 -4.3999999151 1.4499999993 8.9692866823e-07 
-4.3999999151 1.5 -3.4245747429e-06 -4.3499999143 1.4499999993 9.6698613561e-07 -4.3499999143 1.5 -3.6914882457e-06 
-4.2999999136 1.4499999993 1.0492428828e-06 -4.2999999136 1.5 -4.0044587877e-06 -4.2499999128 1.4499999993 1.1469021501e-06 
-4.2499999128 1.5 -4.3760551307e-06 -4.1999999121 1.4499999993 1.264614184e-06 -4.1999999121 1.5 -4.8233941925e-06 
-4.1499999113 1.4499999993 1.4087047475e-06 -4.1499999113 1.5 -5.3704866332e-06 -4.0999999106 1.4499999993 1.5884165805e-06 
-4.0999999106 1.5 -6.0518841565e-06 -4.0499999098 1.4499999993 1.8173982426e-06 -4.0499999098 1.5 -6.9186639848e-06 
-3.9999999091 1.4499999993 2.1167159048e-06 -3.9999999091 1.5 -8.0490499386e-06 -3.9499999084 1.4499999993 2.3025834253e-06 
[...]
CELL_DATA 9510
FIELD FieldData 4
Water_Depth_m 1 9510 float
0.584001 0.584002 0.584003 0.584004 0.584005 0.584007 0.584008 0.584009 0.58401 
0.584011 0.584012 0.584013 0.584014 0.584016 0.584017 0.584018 0.584019 0.58402 
0.584021 0.584022 0.584023 0.584025 0.584026 0.584027 0.584028 0.584029 0.58403 
0.584031 0.584032 0.584033 0.584035 0.584036 0.584037 0.584038 0.584039 0.58404 
0.584041 0.584042 0.584044 0.584045 0.584046 0.584047 0.584048 0.584049 0.58405 
0.584051 0.584053 0.584054 0.584055 0.584056 0.584057 0.584058 0.584059 0.58406 
0.584062 0.584063 0.584064 0.584065 0.584066 0.584067 0.584068 0.584069 0.584071 
0.584072 0.584073 0.584074 0.584075 0.584076 0.584077 0.584078 0.58408 0.584081 
0.584082 0.584083 0.584084 0.584085 0.584086 0.584088 0.584089 0.58409 0.584091 
0.584092 0.584093 0.584094 0.584096 0.584097 0.584098 0.584099 0.5841 0.584101 
0.584103 0.584104 0.584105 0.584106 0.584107 0.584108 0.58411 0.584111 0.584112 
0.584113 0.584114 0.584116 0.584117 0.584118 0.584119 0.584121 0.584122 0.584123 
0.584124 0.584126 0.584127 0.584128 0.58413 0.584131 0.584132 0.584133 0.584135 
0.584136 0.584137 0.584138 0.58414 0.584141 0.584142 0.584144 0.584146 0.584148 
0.584152 0.58416 0.584179 0.584252 0.584486 0.584325 0.577715 0.561573 0.537959 
0.508814 0.475606 0.439573 0.401816 0.363417 0.326348 0.290757 0.258034 0.229795 
0.207563 0.192886 0.185135 0.183373 0.187103 0.192413 0.198367 0.2029 0.206412 
0.210437 0.217746 0.226709 0.23393 0.238345 0.240547 0.242459 0.243236 0.240496 
0.234926 0.234484 0.235164 0.238329 0.241838 0.245532 0.248717 0.252327 0.25577 
0.258278 0.261657 0.264322 0.266771 0.269944 0.271879 0.27338 0.274144 0.275437 
0.28105 0.288759 0.293395 0.298208 0.298809 0.30733 0.316475 0.326314 0.341421 
0.361567 0.385163 0.409277 0.445526 0.47468 0.49865 0.527054 0.545665 0.557714 
0.623188 0.585273 0.525657 0.501545 0.479942 0.438326 0.404098 0.371456 0.368482 
0.368479 0.368476 0.36848 0.368486 0.368493 0.368499 0.368505 0.368511 0.368516 
0.368522 0.368527 0.368533 0.368538 0.368544 0.368549 0.368555 0.36856 0.368566 
0.368571 0.368577 0.368582 0.368588 0.368593 0.368599 0.368604 0.36861 0.368615 
0.368621 0.368626 0.368632 0.368637 0.368643 0.368648 0.368654 0.368659 0.368665 
0.36867 0.368676 0.368682 0.368687 0.368693 0.368698 0.368704 0.368709 0.368715 
0.368721 0.368726 0.368732 0.368737 0.368743 0.368748 0.368754 0.36876 0.368765 
0.368771 0.368776 0.368782 0.368787 0.368793 0.368799 0.368804 0.36881 0.368815 
0.368821 0.368826 0.368832 0.368837 0.368843 0.368848 0.368854 0.368859 0.368865 
0.36887 0.368875 0.36888 0.368885 0.36889 0.368895 0.368899 0.368904 0.368907 
0.368909 0.368911 0.368902 0.368873 0.36775 0.365147 0.361896 0.584001 0.584002 
0.584003 0.584004 0.584005 0.584006 0.584007 0.584008 0.58401 0.584011 0.584012 
0.584013 0.584014 0.584015 0.584016 0.584017 0.584018 0.58402 0.584021 0.584022 
0.584023 0.584024 0.584025 0.584026 0.584027 0.584029 0.58403 0.584031 0.584032 
0.584033 0.584034 0.584035 0.584036 0.584037 0.584039 0.58404 0.584041 0.584042 
0.584043 0.584044 0.584045 0.584046 0.584048 0.584049 0.58405 0.584051 0.584052 
0.584053 0.584054 0.584055 0.584056 0.584058 0.584059 0.58406 0.584061 0.584062 
0.584063 0.584064 0.584065 0.584067 0.584068 0.584069 0.58407 0.584071 0.584072 
0.584073 0.584074 0.584075 0.584077 0.584078 0.584079 0.58408 0.584081 0.584082 
0.584083 0.584084 0.584085 0.584087 0.584088 0.584089 0.58409 0.584091 0.584092 
0.584093 0.584094 0.584096 0.584097 0.584098 0.584099 0.5841 0.584101 0.584102 
0.584104 0.584105 0.584106 0.584107 0.584108 0.584109 0.58411 0.584112 0.584113 
0.584114 0.584115 0.584116 0.584117 0.584119 0.58412 0.584121 0.584122 0.584123 
0.584124 0.584125 0.584127 0.584128 0.584129 0.58413 0.584131 0.584132 0.584132 
0.584133 0.584134 0.584134 0.584134 0.584134 0.584134 0.584133 0.584131 0.584129 
0.584127 0.584125 0.584154 0.584074 0.578163 0.562897 0.539892 0.510933 0.477558 
0.4411 0.402746 0.363641 0.325408 0.289044 0.255814 0.227392 0.205563 0.19067 
0.182726 0.181848 0.186454 0.193185 0.200183 0.205318 0.209379 0.2156 0.221787 
0.229194 0.232833 0.238014 0.240791 0.241275 0.241228 0.238725 0.234192 0.233614 
0.236087 0.239658 0.243117 0.245371 0.248179 0.251394 0.254979 0.257733 0.260764 
0.263461 0.266242 0.269471 0.271903 0.273951 0.275593 0.278389 0.283943 0.291331 
0.294846 0.303691 0.306056 0.312303 0.320575 0.329862 0.341048 0.355015 0.381199 
0.412232 0.44958 0.486961 0.512946 0.540634 0.550819 0.55624 0.622922 0.585213 
0.52599 0.50154 0.47979 0.438212 0.404188 0.372028 0.368505 0.368491 0.36848 
0.368481 0.368485 0.36849 0.368495 0.368501 0.368506 0.368512 0.368518 0.368523 
0.368529 0.368534 0.36854 0.368546 0.368551 0.368557 0.368562 0.368568 0.368573 
0.368579 0.368585 0.36859 0.368596 0.368601 0.368607 0.368613 0.368618 0.368624 
0.368629 0.368635 0.368641 0.368646 0.368652 0.368657 0.368663 0.368669 0.368674 
0.36868 0.368685 0.368691 0.368697 0.368702 0.368708 0.368713 0.368719 0.368725 
0.36873 0.368736 0.368741 0.368747 0.368753 0.368758 0.368764 0.368769 0.368775 
0.368781 0.368786 0.368792 0.368797 0.368803 0.368809 0.368814 0.36882 0.368825 
0.368831 0.368836 0.368842 0.368847 0.368853 0.368858 0.368864 0.368869 0.368874 
0.368879 0.368885 0.368889 0.368894 0.368899 0.368903 0.368907 0.36891 0.368911 
0.368908 0.368882 0.367744 0.365176 0.361884 0.584001 0.584002 0.584003 0.584004 
0.584005 0.584006 0.584007 0.584008 0.58401 0.584011 0.584012 0.584013 0.584014 
0.584015 0.584016 0.584017 0.584019 0.58402 0.584021 0.584022 0.584023 0.584024 
0.584025 0.584026 0.584027 0.584029 0.58403 0.584031 0.584032 0.584033 0.584034 
0.584035 0.584036 0.584037 0.584039 0.58404 0.584041 0.584042 0.584043 0.584044 
0.584045 0.584046 0.584048 0.584049 0.58405 0.584051 0.584052 0.584053 0.584054 
0.584055 0.584056 0.584058 0.584059 0.58406 0.584061 0.584062 0.584063 0.584064 
0.584065 0.584067 0.584068 0.584069 0.58407 0.584071 0.584072 0.584073 0.584074 
0.584075 0.584077 0.584078 0.584079 0.58408 0.584081 0.584082 0.584083 0.584084 
0.584086 0.584087 0.584088 0.584089 0.58409 0.584091 0.584092 0.584093 0.584095 
0.584096 0.584097 0.584098 0.584099 0.5841 0.584101 0.584102 0.584104 0.584105 
0.584106 0.584107 0.584108 0.584109 0.58411 0.584112 0.584113 0.584114 0.584115 
0.584116 0.584117 0.584119 0.58412 0.584121 0.584122 0.584123 0.584124 0.584126 
0.584127 0.584128 0.584129 0.58413 0.584131 0.584132 0.584133 0.584134 0.584134 
0.584135 0.584135 0.584135 0.584135 0.584134 0.584134 0.584132 0.584132 0.584135 
0.584221 0.584078 0.578364 0.563572 0.541056 0.512396 0.479081 0.442465 0.403779 
0.364209 0.324964 0.287979 0.254373 0.225803 0.205325 0.189562 0.181159 0.180961 
0.186312 0.193542 0.201213 0.206842 0.211065 0.216213 0.221636 0.22746 0.229868 
0.233546 0.236761 0.236828 0.232951 0.229416 0.229873 0.231698 0.235256 0.239342 
0.243234 0.24518 0.246544 0.248934 0.251816 0.255058 0.258462 0.26103 0.263977 
0.267052 0.270052 0.27295 0.275593 0.278618 0.283738 0.290936 0.296377 0.301216 
0.30609 0.311623 0.318555 0.329116 0.33843 0.353057 0.38537 0.423904 0.451561 
0.491634 0.526716 0.548873 0.556985 0.55895 0.622985 0.585009 0.525667 0.501552 
0.479778 0.438172 0.404096 0.371817 0.368464 0.368469 0.368474 0.368479 0.368484 
0.36849 0.368496 0.368501 0.368507 0.368512 0.368518 0.368523 0.368529 0.368535 
0.36854 0.368546 0.368551 0.368557 0.368562 0.368568 0.368574 0.368579 0.368585 
0.36859 0.368596 0.368602 0.368607 0.368613 0.368618 0.368624 0.36863 0.368635 
0.368641 0.368646 0.368652 0.368658 0.368663 0.368669 0.368674 0.36868 0.368686 
0.368691 0.368697 0.368702 0.368708 0.368714 0.368719 0.368725 0.36873 0.368736 
0.368741 0.368747 0.368753 0.368758 0.368764 0.368769 0.368775 0.368781 0.368786 
0.368792 0.368797 0.368803 0.368809 0.368814 0.36882 0.368825 0.368831 0.368836 
0.368842 0.368847 0.368853 0.368858 0.368864 0.368869 0.368874 0.36888 0.368885 
0.36889 0.368895 0.3689 0.368904 0.368908 0.368913 0.368916 0.368914 0.368896 
0.367748 0.365188 0.361885 0.584001 0.584002 0.584003 0.584004 0.584005 0.584006 
0.584007 0.584008 0.58401 0.584011 0.584012 0.584013 0.584014 0.584015 0.584016 
0.584017 0.584018 0.58402 0.584021 0.584022 0.584023 0.584024 0.584025 0.584026 
0.584027 0.584029 0.58403 0.584031 0.584032 0.584033 0.584034 0.584035 0.584036 
0.584037 0.584039 0.58404 0.584041 0.584042 0.584043 0.584044 0.584045 0.584046 
0.584047 0.584049 0.58405 0.584051 0.584052 0.584053 0.584054 0.584055 0.584056 
0.584058 0.584059 0.58406 0.584061 0.584062 0.584063 0.584064 0.584065 0.584066 
0.584068 0.584069 0.58407 0.584071 0.584072 0.584073 0.584074 0.584075 0.584076 
0.584078 0.584079 0.58408 0.584081 0.584082 0.584083 0.584084 0.584085 0.584087 
0.584088 0.584089 0.58409 0.584091 0.584092 0.584093 0.584094 0.584096 0.584097 
0.584098 0.584099 0.5841 0.584101 0.584102 0.584103 0.584105 0.584106 0.584107 
0.584108 0.584109 0.58411 0.584112 0.584113 0.584114 0.584115 0.584116 0.584117 
0.584118 0.58412 0.584121 0.584122 0.584123 0.584124 0.584125 0.584127 0.584128 
0.584129 0.58413 0.584131 0.584132 0.584133 0.584134 0.584134 0.584135 0.584135 
0.584136 0.584136 0.584135 0.584134 0.584133 0.58413 0.584128 0.584207 0.58408 
0.57848 0.563992 0.541863 0.513541 0.480434 0.44387 0.405085 0.365271 0.325627 
0.287491 0.253333 0.224876 0.204268 0.188921 0.179994 0.180342 0.186185 0.193548 
0.201028 0.206753 0.211378 0.215713 0.219103 0.220065 0.223229 0.226079 0.227581 
0.227789 0.227291 0.227064 0.227856 0.229173 0.231151 0.236142 0.240559 0.243088 
0.24474 0.247534 0.250309 0.253307 0.256892 0.259531 0.262205 0.264954 0.265892 
0.268038 0.271397 0.274499 0.278558 0.284663 0.292328 0.292299 0.296031 0.299986 
0.30343 0.318224 0.329142 0.35227 0.384873 0.422845 0.450123 0.490321 0.52545 
0.549209 0.56028 0.561928 0.623039 0.585014 0.525671 0.501556 0.479781 0.438171 
0.404098 0.371853 0.368465 0.36847 0.368474 0.368479 0.368484 0.36849 0.368495 
0.368501 0.368506 0.368512 0.368517 0.368523 0.368529 0.368534 0.36854 0.368545 
0.368551 0.368557 0.368562 0.368568 0.368573 0.368579 0.368585 0.36859 0.368596 
0.368601 0.368607 0.368613 0.368618 0.368624 0.368629 0.368635 0.368641 0.368646 
0.368652 0.368657 0.368663 0.368669 0.368674 0.36868 0.368685 0.368691 0.368697 
0.368702 0.368708 0.368713 0.368719 0.368725 0.36873 0.368736 0.368741 0.368747 
0.368753 0.368758 0.368764 0.368769 0.368775 0.368781 0.368786 0.368792 0.368797 
0.368803 0.368809 0.368814 0.36882 0.368825 0.368831 0.368836 0.368842 0.368847 
0.368853 0.368858 0.368864 0.368869 0.368875 0.36888 0.368885 0.36889 0.368895 
0.3689 0.368905 0.36891 0.368915 0.36892 0.36892 0.368903 0.367753 0.365193 
0.361885 0.584001 0.584002 0.584003 0.584004 0.584005 0.584006 0.584007 0.584008 
0.58401 0.584011 0.584012 0.584013 0.584014 0.584015 0.584016 0.584017 0.584018 
0.58402 0.584021 0.584022 0.584023 0.584024 0.584025 0.584026 0.584027 0.584029 
0.58403 0.584031 0.584032 0.584033 0.584034 0.584035 0.584036 0.584037 0.584039 
0.58404 0.584041 0.584042 0.584043 0.584044 0.584045 0.584046 0.584047 0.584049 
0.58405 0.584051 0.584052 0.584053 0.584054 0.584055 0.584056 0.584058 0.584059 
0.58406 0.584061 0.584062 0.584063 0.584064 0.584065 0.584066 0.584068 0.584069 
0.58407 0.584071 0.584072 0.584073 0.584074 0.584075 0.584076 0.584078 0.584079 
0.58408 0.584081 0.584082 0.584083 0.584084 0.584085 0.584087 0.584088 0.584089 
0.58409 0.584091 0.584092 0.584093 0.584094 0.584096 0.584097 0.584098 0.584099 
0.5841 0.584101 0.584102 0.584103 0.584105 0.584106 0.584107 0.584108 0.584109 
0.58411 0.584112 0.584113 0.584114 0.584115 0.584116 0.584117 0.584118 0.58412 
0.584121 0.584122 0.584123 0.584124 0.584126 0.584127 0.584128 0.584129 0.58413 
0.584131 0.584132 0.584133 0.584134 0.584135 0.584136 0.584137 0.584137 0.584137 
0.584137 0.584137 0.584137 0.584135 0.584135 0.584215 0.584088 0.578577 0.564335 
0.542562 0.514616 0.481836 0.445508 0.40685 0.367042 0.327253 0.288754 0.25313 
0.2226 0.19889 0.184522 0.178101 0.180294 0.186232 0.193264 0.19994 0.205269 
0.209535 0.211563 0.213587 0.216617 0.21768 0.220257 0.223214 0.224093 0.224964 
0.226147 0.227143 0.228378 0.230904 0.237311 0.243247 0.246032 0.247934 0.250962 
0.253796 0.256171 0.25937 0.261449 0.262821 0.26402 0.266129 0.268762 0.271708 
0.273185 0.274969 0.277586 0.28298 0.291392 0.293887 0.296299 0.308066 0.31874 
0.330033 0.361953 0.384894 0.419241 0.459828 0.487695 0.517095 0.546045 0.557831 
0.558945 0.623092 0.585233 0.525955 0.501546 0.47979 0.4382 0.404176 0.371888 
0.368462 0.368467 0.368473 0.368478 0.368484 0.36849 0.368495 0.368501 0.368506 
0.368512 0.368517 0.368523 0.368529 0.368534 0.36854 0.368545 0.368551 0.368557 
0.368562 0.368568 0.368573 0.368579 0.368585 0.36859 0.368596 0.368601 0.368607 
0.368613 0.368618 0.368624 0.368629 0.368635 0.368641 0.368646 0.368652 0.368657 
0.368663 0.368669 0.368674 0.36868 0.368685 0.368691 0.368697 0.368702 0.368708 
0.368713 0.368719 0.368725 0.36873 0.368736 0.368741 0.368747 0.368753 0.368758 
0.368764 0.368769 0.368775 0.368781 0.368786 0.368792 0.368797 0.368803 0.368809 
0.368814 0.36882 0.368825 0.368831 0.368836 0.368842 0.368847 0.368853 0.368858 
0.368864 0.368869 0.368875 0.36888 0.368886 0.368891 0.368896 0.368902 0.368907 
0.368912 0.368917 0.368923 0.368923 0.368907 0.367758 0.365195 0.361885 0.584001 
0.584002 0.584003 0.584004 0.584005 0.584006 0.584007 0.584008 0.58401 0.584011 
0.584012 0.584013 0.584014 0.584015 0.584016 0.584017 0.584018 0.58402 0.584021 
0.584022 0.584023 0.584024 0.584025 0.584026 0.584027 0.584029 0.58403 0.584031 
0.584032 0.584033 0.584034 0.584035 0.584036 0.584037 0.584039 0.58404 0.584041 
0.584042 0.584043 0.584044 0.584045 0.584046 0.584047 0.584049 0.58405 0.584051 
0.584052 0.584053 0.584054 0.584055 0.584056 0.584058 0.584059 0.58406 0.584061 
0.584062 0.584063 0.584064 0.584065 0.584066 0.584068 0.584069 0.58407 0.584071 
0.584072 0.584073 0.584074 0.584075 0.584076 0.584078 0.584079 0.58408 0.584081 
0.584082 0.584083 0.584084 0.584085 0.584087 0.584088 0.584089 0.58409 0.584091 
0.584092 0.584093 0.584094 0.584096 0.584097 0.584098 0.584099 0.5841 0.584101 
0.584102 0.584103 0.584105 0.584106 0.584107 0.584108 0.584109 0.58411 0.584111 
0.584113 0.584114 0.584115 0.584116 0.584117 0.584118 0.58412 0.584121 0.584122 
0.584123 0.584124 0.584126 0.584127 0.584128 0.584129 0.58413 0.584131 0.584133 
0.584134 0.584135 0.584136 0.584137 0.584138 0.584139 0.584139 0.58414 0.584141 
0.584141 0.584141 0.584141 0.584222 0.584097 0.578678 0.564689 0.543289 0.515783 
0.483449 0.44753 0.409224 0.369699 0.330123 0.291766 0.256201 0.225071 0.200243 
0.18575 0.180049 0.181956 0.187155 0.193282 0.199846 0.203703 0.204535 0.205975 
0.208021 0.211775 0.213756 0.215999 0.216887 0.218112 0.220073 0.2246 0.227984 
0.230859 0.233245 0.238805 0.243929 0.246678 0.248574 0.250964 0.253884 0.256419 
0.259357 0.264355 0.267558 0.269955 0.272722 0.275363 0.278523 0.282122 0.286577 
0.295458 0.308568 0.309379 0.32252 0.326537 0.326952 0.339142 0.348769 0.359463 
0.383699 0.414912 0.453914 0.481839 0.511186 0.535478 0.541932 0.543239 0.623142 
0.585236 0.525964 0.501548 0.479791 0.438201 0.404176 0.371893 0.368462 0.368468 
0.368473 0.368478 0.368484 0.368489 0.368495 0.368501 0.368506 0.368512 0.368517 
0.368523 0.368529 0.368534 0.36854 0.368545 0.368551 0.368557 0.368562 0.368568 
0.368573 0.368579 0.368585 0.36859 0.368596 0.368601 0.368607 0.368613 0.368618 
0.368624 0.368629 0.368635 0.368641 0.368646 0.368652 0.368657 0.368663 0.368669 
0.368674 0.36868 0.368685 0.368691 0.368697 0.368702 0.368708 0.368713 0.368719 
0.368725 0.36873 0.368736 0.368741 0.368747 0.368753 0.368758 0.368764 0.368769 
0.368775 0.368781 0.368786 0.368792 0.368797 0.368803 0.368809 0.368814 0.36882 
0.368825 0.368831 0.368836 0.368842 0.368848 0.368853 0.368859 0.368864 0.36887 
0.368875 0.368881 0.368886 0.368892 0.368897 0.368903 0.368908 0.368914 0.36892 
0.368926 0.368926 0.36891 0.367762 0.365197 0.361886 0.584001 0.584002 0.584003 
0.584004 0.584005 0.584006 0.584007 0.584008 0.58401 0.584011 0.584012 0.584013 
0.584014 0.584015 0.584016 0.584017 0.584018 0.58402 0.584021 0.584022 0.584023 
0.584024 0.584025 0.584026 0.584027 0.584029 0.58403 0.584031 0.584032 0.584033 
0.584034 0.584035 0.584036 0.584037 0.584039 0.58404 0.584041 0.584042 0.584043 
0.584044 0.584045 0.584046 0.584048 0.584049 0.58405 0.584051 0.584052 0.584053 
0.584054 0.584055 0.584056 0.584058 0.584059 0.58406 0.584061 0.584062 0.584063 
0.584064 0.584065 0.584066 0.584068 0.584069 0.58407 0.584071 0.584072 0.584073 
0.584074 0.584075 0.584076 0.584078 0.584079 0.58408 0.584081 0.584082 0.584083 
0.584084 0.584085 0.584087 0.584088 0.584089 0.58409 0.584091 0.584092 0.584093 
0.584094 0.584096 0.584097 0.584098 0.584099 0.5841 0.584101 0.584102 0.584103 
0.584105 0.584106 0.584107 0.584108 0.584109 0.58411 0.584111 0.584113 0.584114 
0.584115 0.584116 0.584117 0.584118 0.58412 0.584121 0.584122 0.584123 0.584124 
0.584126 0.584127 0.584128 0.584129 0.584131 0.584132 0.584133 0.584134 0.584136 
0.584137 0.584138 0.584139 0.584141 0.584142 0.584143 0.584145 0.584146 0.584147 
0.58415 0.584231 0.584108 0.578798 0.565091 0.544115 0.517127 0.485361 0.450018 
0.412275 0.373298 0.334284 0.296593 0.26194 0.232126 0.208743 0.193638 0.186114 
0.185197 0.189097 0.193924 0.198864 0.202347 0.204145 0.205559 0.207629 0.211172 
0.213304 0.215193 0.216083 0.216274 0.218964 0.224059 0.227434 0.230276 0.233211 
0.239117 0.244353 0.246882 0.248701 0.250641 0.252138 0.256073 0.262172 0.264671 
0.268374 0.273028 0.275065 0.277371 0.281914 0.28877 0.293633 0.299593 0.308978 
0.312493 0.323593 0.329477 0.330765 0.342464 0.358956 0.360153 0.374804 0.397347 
0.431802 0.463996 0.493151 0.517627 0.530901 0.540464 0.623191 0.585236 0.525959 
0.501547 0.479795 0.438201 0.404174 0.37189 0.368462 0.368468 0.368472 0.368478 
0.368484 0.368489 0.368495 0.368501 0.368506 0.368512 0.368517 0.368523 0.368529 
0.368534 0.36854 0.368545 0.368551 0.368557 0.368562 0.368568 0.368573 0.368579 
0.368585 0.36859 0.368596 0.368601 0.368607 0.368613 0.368618 0.368624 0.368629 
0.368635 0.368641 0.368646 0.368652 0.368657 0.368663 0.368669 0.368674 0.36868 
0.368685 0.368691 0.368697 0.368702 0.368708 0.368713 0.368719 0.368725 0.36873 
0.368736 0.368741 0.368747 0.368753 0.368758 0.368764 0.368769 0.368775 0.368781 
0.368786 0.368792 0.368797 0.368803 0.368809 0.368814 0.36882 0.368825 0.368831 
0.368836 0.368842 0.368848 0.368853 0.368859 0.368864 0.36887 0.368876 0.368881 
0.368887 0.368892 0.368898 0.368904 0.368909 0.368915 0.368921 0.368928 0.368928 
0.368912 0.367764 0.365198 0.361886 0.584001 0.584002 0.584003 0.584004 0.584005 
0.584006 0.584007 0.584008 0.58401 0.584011 0.584012 0.584013 0.584014 0.584015 
0.584016 0.584017 0.584019 0.58402 0.584021 0.584022 0.584023 0.584024 0.584025 
0.584026 0.584027 0.584029 0.58403 0.584031 0.584032 0.584033 0.584034 0.584035 
0.584036 0.584037 0.584039 0.58404 0.584041 0.584042 0.584043 0.584044 0.584045 
0.584046 0.584048 0.584049 0.58405 0.584051 0.584052 0.584053 0.584054 0.584055 
0.584056 0.584058 0.584059 0.58406 0.584061 0.584062 0.584063 0.584064 0.584065 
0.584067 0.584068 0.584069 0.58407 0.584071 0.584072 0.584073 0.584074 0.584075 
0.584077 0.584078 0.584079 0.58408 0.584081 0.584082 0.584083 0.584084 0.584085 
0.584087 0.584088 0.584089 0.58409 0.584091 0.584092 0.584093 0.584094 0.584096 
0.584097 0.584098 0.584099 0.5841 0.584101 0.584102 0.584103 0.584105 0.584106 
0.584107 0.584108 0.584109 0.58411 0.584111 0.584113 0.584114 0.584115 0.584116 
0.584117 0.584118 0.58412 0.584121 0.584122 0.584123 0.584125 0.584126 0.584127 
0.584128 0.58413 0.584131 0.584132 0.584134 0.584135 0.584136 0.584138 0.58414 
0.584141 0.584143 0.584145 0.584147 0.584149 0.584152 0.584155 0.58416 0.584241 
0.584119 0.578937 0.565554 0.545063 0.518679 0.487595 0.452981 0.415988 0.377768 
0.339531 0.302714 0.26917 0.241086 0.21994 0.204146 0.194171 0.190257 0.192385 