# vtk DataFile Version 5.1
vtk output
ASCII
DATASET UNSTRUCTURED_GRID
POINTS 9359 double
-10.1 1.4499999993 8.6074358308e-08 -10.049999999 1.4499999993 1.0829877084e-07 -10.049999999 1.5 -4.2207125261e-07 
-9.9999999985 1.4499999993 1.1536372568e-07 -9.9999999985 1.5 -4.417981927e-07 -9.9499999978 1.4499999993 1.1746647743e-07 
-9.9499999978 1.5 -4.49126901e-07 -9.899999997 1.4499999993 1.1845600767e-07 -9.899999997 1.5 -4.5235742618e-07 
-9.8499999963 1.4499999993 1.1882162454e-07 -9.8499999963 1.5 -4.5398209636e-07 -9.7999999955 1.4499999993 1.1905809316e-07 
-9.7999999955 1.5 -4.5500223678e-07 -9.7499999948 1.4499999993 1.1926728405e-07 -9.7499999948 1.5 -4.5569709073e-07 
-9.699999994 1.4499999993 1.1940552724e-07 -9.699999994 1.5 -4.5634646995e-07 -9.6499999933 1.4499999993 1.1957651225e-07 
-9.6499999933 1.5 -4.570576948e-07 -9.5999999925 1.4499999993 1.1986209358e-07 -9.5999999925 1.5 -4.5790716285e-07 
-9.5499999918 1.4499999993 1.2016040785e-07 -9.5499999918 1.5 -4.5881665756e-07 -9.4999999911 1.4499999993 1.2036777264e-07 
-9.4999999911 1.5 -4.6006812227e-07 -9.4499999903 1.4499999993 1.2068609578e-07 -9.4499999903 1.5 -4.6140507948e-07 
-9.3999999896 1.4499999993 1.2116267101e-07 -9.3999999896 1.5 -4.6286208999e-07 -9.3499999888 1.4499999993 1.2152101192e-07 
-9.3499999888 1.5 -4.6463924264e-07 -9.2999999881 1.4499999993 1.2201759603e-07 -9.2999999881 1.5 -4.6643822316e-07 
-9.2499999873 1.4499999993 1.2262513849e-07 -9.2499999873 1.5 -4.6853006097e-07 -9.1999999866 1.4499999993 1.2313445552e-07 
-9.1999999866 1.5 -4.7071316089e-07 -9.1499999858 1.4499999993 1.2372562708e-07 -9.1499999858 1.5 -4.7313028517e-07 
-9.0999999851 1.4499999993 1.2443685193e-07 -9.0999999851 1.5 -4.7556591198e-07 -9.0499999844 1.4499999993 1.2516626668e-07 
-9.0499999844 1.5 -4.781888947e-07 -8.9999999836 1.4499999993 1.2597207899e-07 -8.9999999836 1.5 -4.8104652706e-07 
-8.9499999829 1.4499999993 1.2671240768e-07 -8.9499999829 1.5 -4.8408060138e-07 -8.8999999821 1.4499999993 1.2747456424e-07 
-8.8999999821 1.5 -4.8717288337e-07 -8.8499999814 1.4499999993 1.2840042984e-07 -8.8499999814 1.5 -4.905489277e-07 
-8.7999999806 1.4499999993 1.2926444981e-07 -8.7999999806 1.5 -4.9403229241e-07 -8.7499999799 1.4499999993 1.3018667744e-07 
-8.7499999799 1.5 -4.976047876e-07 -8.6999999791 1.4499999993 1.3071418437e-07 -8.6999999791 1.5 -4.9949835557e-07 
-8.6499999784 1.4499999993 1.3178556912e-07 -8.6499999784 1.5 -5.034237347e-07 -8.5999999776 1.4499999993 1.3279328925e-07 
-8.5999999776 1.5 -5.0736548474e-07 -8.5499999769 1.4499999993 1.3396108045e-07 -8.5499999769 1.5 -5.1160009207e-07 
-8.4999999762 1.4499999993 1.3501791329e-07 -8.4999999762 1.5 -5.1591109695e-07 -8.4499999754 1.4499999993 1.3617479055e-07 
-8.4499999754 1.5 -5.2056770983e-07 -8.3999999747 1.4499999993 1.3742261729e-07 -8.3999999747 1.5 -5.2525160754e-07 
-8.3499999739 1.4499999993 1.3879049732e-07 -8.3499999739 1.5 -5.2989730648e-07 -8.2999999732 1.4499999993 1.4006742788e-07 
-8.2999999732 1.5 -5.3501230468e-07 -8.2499999724 1.4499999993 1.4137528126e-07 -8.2499999724 1.5 -5.4020370044e-07 
-8.1999999717 1.4499999993 1.4282865379e-07 -8.1999999717 1.5 -5.4558273632e-07 -8.1499999709 1.4499999993 1.4433295803e-07 
-8.1499999709 1.5 -5.5106124819e-07 -8.0999999702 1.4499999993 1.4576814067e-07 -8.0999999702 1.5 -5.5682380662e-07 
-8.0499999695 1.4499999993 1.4738522225e-07 -8.0499999695 1.5 -5.6277190197e-07 -7.9999999687 1.4499999993 1.4905141654e-07 
-7.9999999687 1.5 -5.6889825828e-07 -7.949999968 1.4499999993 1.5059210057e-07 -7.949999968 1.5 -5.7515558183e-07 
-7.8999999672 1.4499999993 1.523037696e-07 -7.8999999672 1.5 -5.816657449e-07 -7.8499999665 1.4499999993 1.5408728871e-07 
-7.8499999665 1.5 -5.8836599237e-07 -7.7999999657 1.4499999993 1.5581805712e-07 -7.7999999657 1.5 -5.9524904827e-07 
-7.749999965 1.4499999993 1.5775800932e-07 -7.749999965 1.5 -6.024022241e-07 -7.6999999642 1.4499999993 1.5962520195e-07 
-7.6999999642 1.5 -6.0980642047e-07 -7.6499999635 1.4499999993 1.615733396e-07 -7.6499999635 1.5 -6.1740433921e-07 
-7.5999999627 1.4499999993 1.6366426792e-07 -7.5999999627 1.5 -6.2521780819e-07 -7.549999962 1.4499999993 1.6573154937e-07 
-7.549999962 1.5 -6.3326075406e-07 -7.4999999613 1.4499999993 1.6792979807e-07 -7.4999999613 1.5 -6.4163509705e-07 
-7.4499999605 1.4499999993 1.7021626775e-07 -7.4499999605 1.5 -6.5012886807e-07 -7.3999999598 1.4499999993 1.7251910833e-07 
-7.3999999598 1.5 -6.58982799e-07 -7.349999959 1.4499999993 1.7488652304e-07 -7.349999959 1.5 -6.6811685429e-07 
-7.2999999583 1.4499999993 1.7737762903e-07 -7.2999999583 1.5 -6.7762744038e-07 -7.2499999575 1.4499999993 1.7987510148e-07 
-7.2499999575 1.5 -6.873235634e-07 -7.1999999568 1.4499999993 1.8252627854e-07 -7.1999999568 1.5 -6.9734073804e-07 
-7.149999956 1.4499999993 1.8526021961e-07 -7.149999956 1.5 -7.0768533078e-07 -7.0999999553 1.4499999993 1.8658262491e-07 
-7.0999999553 1.5 -7.1295403359e-07 -7.0499999546 1.4499999993 1.8945389968e-07 -7.0499999546 1.5 -7.2385614658e-07 
-6.9999999538 1.4499999993 1.9239975302e-07 -6.9999999538 1.5 -7.3503292697e-07 -6.9499999531 1.4499999993 1.9542018492e-07 
-6.9499999531 1.5 -7.4662807492e-07 -6.8999999523 1.4499999993 1.9858795497e-07 -6.8999999523 1.5 -7.5860521065e-07 
-6.8499999516 1.4499999993 2.0181666116e-07 -6.8499999516 1.5 -7.7095160123e-07 -6.7999999508 1.4499999993 2.0516542065e-07 
-6.7999999508 1.5 -7.837791145e-07 -6.7499999501 1.4499999993 2.0862695749e-07 -6.7499999501 1.5 -7.9700043898e-07 
-6.6999999493 1.4499999993 2.1218308177e-07 -6.6999999493 1.5 -8.1070106717e-07 -6.6499999486 1.4499999993 2.1583925047e-07 
-6.6499999486 1.5 -8.248237009e-07 -6.5999999478 1.4499999993 2.1971187891e-07 -6.5999999478 1.5 -8.3951294982e-07 
-6.5499999471 1.4499999993 2.2368728025e-07 -6.5499999471 1.5 -8.5461630306e-07 -6.4999999464 1.4499999993 2.2778546338e-07 
-6.4999999464 1.5 -8.7033299678e-07 -6.4499999456 1.4499999993 2.3204917454e-07 -6.4499999456 1.5 -8.866893495e-07 
-6.3999999449 1.4499999993 2.3647477576e-07 -6.3999999449 1.5 -9.0359958449e-07 -6.3499999441 1.4499999993 2.4112136998e-07 
-6.3499999441 1.5 -9.210891676e-07 -6.2999999434 1.4499999993 2.4580799618e-07 -6.2999999434 1.5 -9.3937637757e-07 
-6.2499999426 1.4499999993 2.507656518e-07 -6.2499999426 1.5 -9.5826294455e-07 -6.1999999419 1.4499999993 2.5593521968e-07 
-6.1999999419 1.5 -9.779780612e-07 -6.1499999411 1.4499999993 2.6132670428e-07 -6.1499999411 1.5 -9.9841759038e-07 
-6.0999999404 1.4499999993 2.6687143873e-07 -6.0999999404 1.5 -1.0197097708e-06 -6.0499999397 1.4499999993 2.7268038139e-07 
-6.0499999397 1.5 -1.0419364571e-06 -5.9999999389 1.4499999993 2.7872988539e-07 -5.9999999389 1.5 -1.0650730928e-06 
-5.9499999382 1.4499999993 2.8504905458e-07 -5.9499999382 1.5 -1.0891874354e-06 -5.8999999374 1.4499999993 2.9164243642e-07 
-5.8999999374 1.5 -1.1144335303e-06 -5.8499999367 1.4499999993 2.9856505535e-07 -5.8499999367 1.5 -1.1407671536e-06 
-5.7999999359 1.4499999993 3.0575733945e-07 -5.7999999359 1.5 -1.1683662251e-06 -5.7499999352 1.4499999993 3.1334025152e-07 
-5.7499999352 1.5 -1.1972440461e-06 -5.6999999344 1.4499999993 3.2123102756e-07 -5.6999999344 1.5 -1.2275293102e-06 
-5.6499999337 1.4499999993 3.2958428164e-07 -5.6499999337 1.5 -1.2593243355e-06 -5.5999999329 1.4499999993 3.3830542634e-07 
-5.5999999329 1.5 -1.2927246189e-06 -5.5499999322 1.4499999993 3.4286426853e-07 -5.5499999322 1.5 -1.3100749356e-06 
-5.4999999315 1.4499999993 3.5229300011e-07 -5.4999999315 1.5 -1.3462024526e-06 -5.4499999307 1.4499999993 3.6226970224e-07 
-5.4499999307 1.5 -1.3843152828e-06 -5.39999993 1.4499999993 3.7282620724e-07 -5.39999993 1.5 -1.4245258626e-06 
-5.3499999292 1.4499999993 3.8394250623e-07 -5.3499999292 1.5 -1.4671311419e-06 -5.2999999285 1.4499999993 3.9573956201e-07 
-5.2999999285 1.5 -1.5123061985e-06 -5.2499999277 1.4499999993 4.083242402e-07 -5.2499999277 1.5 -1.5602452095e-06 
-5.199999927 1.4499999993 4.2166789171e-07 -5.199999927 1.5 -1.6113237962e-06 -5.1499999262 1.4499999993 4.359619652e-07 
-5.1499999262 1.5 -1.6657975266e-06 -5.0999999255 1.4499999993 4.5123510972e-07 -5.0999999255 1.5 -1.724088861e-06 
-5.0499999247 1.4499999993 4.6759600991e-07 -5.0499999247 1.5 -1.7866220787e-06 -4.999999924 1.4499999993 4.8519063967e-07 
-4.999999924 1.5 -1.8539178654e-06 -4.9499999233 1.4499999993 5.0421772357e-07 -4.9499999233 1.5 -1.9265178253e-06 
-4.8999999225 1.4499999993 5.2477912504e-07 -4.8999999225 1.5 -2.0050929379e-06 -4.8499999218 1.4499999993 5.4715542319e-07 
-4.8499999218 1.5 -2.0905376914e-06 -4.799999921 1.4499999993 5.716024134e-07 -4.799999921 1.5 -2.1837604436e-06 
-4.7499999203 1.4499999993 5.983772553e-07 -4.7499999203 1.5 -2.2859858291e-06 -4.6999999195 1.4499999993 6.2787398747e-07 
-4.6999999195 1.5 -2.39858241e-06 -4.6499999188 1.4499999993 6.6055508796e-07 -4.6499999188 1.5 -2.523319381e-06 
-4.599999918 1.4499999993 6.9698558036e-07 -4.599999918 1.5 -2.6622569749e-06 -4.5499999173 1.4499999993 7.3782985055e-07 
-4.5499999173 1.5 -2.8180729714e-06 -4.4999999166 1.4499999993 7.8398761616e-07 -4.4999999166 1.5 -2.9940770219e-06 
-4.4499999158 1.4499999993 8.3654617811e-07 -4.4499999158 1.5 -3.1944391594e-06 -4.3999999151 1.4499999993 8.9692866823e-07 
-4.3999999151 1.5 -3.4245747429e-06 -4.3499999143 1.4499999993 9.6698613561e-07 -4.3499999143 1.5 -3.6914882457e-06 
-4.2999999136 1.4499999993 1.0492428828e-06 -4.2999999136 1.5 -4.0044587877e-06 -4.2499999128 1.4499999993 1.1469021501e-06 
-4.2499999128 1.5 -4.3760551307e-06 -4.1999999121 1.4499999993 1.264614184e-06 -4.1999999121 1.5 -4.8233941925e-06 
-4.1499999113 1.4499999993 1.4087047475e-06 -4.1499999113 1.5 -5.3704866332e-06 -4.0999999106 1.4499999993 1.5884165805e-06 
-4.0999999106 1.5 -6.0518841565e-06 -4.0499999098 1.4499999993 1.8173982426e-06 -4.0499999098 1.5 -6.9186639848e-06 
-3.9999999091 1.4499999993 2.1167159048e-06 -3.9999999091 1.5 -8.0490499386e-06 -3.9499999084 1.4499999993 2.3025834253e-06 
[...]
CELL_DATA 8990
FIELD FieldData 4
Water_Depth_m 1 8990 float
0.583996 0.583989 0.583981 0.583973 0.583965 0.583958 0.58395 0.583943 0.583936 
0.583929 0.583922 0.583916 0.58391 0.583905 0.5839 0.583895 0.58389 0.583887 
0.583883 0.58388 0.583877 0.583875 0.583873 0.583871 0.58387 0.583869 0.583868 
0.583867 0.583867 0.583867 0.583867 0.583867 0.583868 0.583869 0.58387 0.583871 
0.583872 0.583874 0.583875 0.583877 0.58388 0.583882 0.583885 0.583888 0.583891 
0.583894 0.583898 0.583902 0.583906 0.58391 0.583914 0.583918 0.583922 0.583926 
0.583931 0.583935 0.583939 0.583943 0.583947 0.583951 0.583954 0.583958 0.583962 
0.583965 0.583968 0.583971 0.583974 0.583977 0.58398 0.583983 0.583986 0.583989 
0.583991 0.583994 0.583997 0.584 0.584003 0.584006 0.584009 0.584012 0.584016 
0.584019 0.584023 0.584027 0.584031 0.584035 0.584039 0.584043 0.584047 0.584052 
0.584056 0.584061 0.584066 0.584071 0.584076 0.584081 0.584086 0.584091 0.584096 
0.584101 0.584106 0.584111 0.584116 0.584121 0.584126 0.58413 0.584135 0.584139 
0.584144 0.584148 0.584151 0.584155 0.584158 0.584161 0.584163 0.584165 0.584167 
0.584169 0.584169 0.58417 0.58417 0.58417 0.584169 0.584168 0.584167 0.584166 
0.584167 0.584171 0.584186 0.584254 0.584488 0.584334 0.577748 0.56164 0.538073 
0.508995 0.475878 0.439972 0.402414 0.36431 0.327634 0.292501 0.260158 0.232101 
0.209879 0.195101 0.187207 0.185305 0.188917 0.194119 0.199965 0.204392 0.207804 
0.211746 0.218994 0.227923 0.235143 0.239592 0.241828 0.243746 0.2445 0.241734 
0.236107 0.235611 0.236227 0.239333 0.242788 0.24641 0.249541 0.253105 0.256512 
0.259002 0.262314 0.26491 0.267348 0.270489 0.272404 0.273845 0.27453 0.275756 
0.281302 0.288952 0.293517 0.298245 0.298747 0.307151 0.316168 0.32587 0.340822 
0.360812 0.38425 0.408236 0.444383 0.473463 0.497371 0.525741 0.54433 0.554243 
0.562363 0.586879 0.65946 0.645159 0.616918 0.586401 0.526786 0.502717 0.481154 
0.439539 0.405293 0.372615 0.369606 0.369568 0.369534 0.369508 0.369487 0.369468 
0.36945 0.369434 0.369419 0.369406 0.369394 0.369384 0.369375 0.369367 0.36936 
0.369355 0.36935 0.369346 0.369343 0.369341 0.36934 0.369339 0.369339 0.369339 
0.36934 0.369341 0.369343 0.369345 0.369347 0.36935 0.369353 0.369356 0.369359 
0.369363 0.369367 0.369371 0.369375 0.369379 0.369384 0.369388 0.369393 0.369397 
0.369402 0.369407 0.369412 0.369417 0.369422 0.369427 0.369432 0.369437 0.369442 
0.369448 0.369453 0.369458 0.369463 0.369469 0.369474 0.36948 0.369485 0.36949 
0.369496 0.369501 0.369507 0.369512 0.369517 0.369523 0.369528 0.369534 0.369539 
0.369544 0.36955 0.369555 0.36956 0.369566 0.369571 0.369576 0.369581 0.369586 
0.36959 0.369595 0.369599 0.369602 0.369604 0.369606 0.369596 0.369568 0.368451 
0.365842 0.362585 0.583996 0.583988 0.58398 0.583972 0.583965 0.583957 0.58395 
0.583942 0.583935 0.583928 0.583922 0.583915 0.583909 0.583904 0.583899 0.583894 
0.58389 0.583886 0.583882 0.583879 0.583876 0.583874 0.583872 0.58387 0.583869 
0.583868 0.583867 0.583867 0.583866 0.583866 0.583866 0.583867 0.583867 0.583868 
0.583869 0.58387 0.583871 0.583873 0.583875 0.583877 0.583879 0.583881 0.583884 
0.583887 0.58389 0.583894 0.583897 0.583901 0.583905 0.583909 0.583913 0.583917 
0.583921 0.583926 0.58393 0.583934 0.583938 0.583942 0.583946 0.58395 0.583954 
0.583957 0.583961 0.583964 0.583968 0.583971 0.583974 0.583977 0.583979 0.583982 
0.583985 0.583988 0.583991 0.583993 0.583996 0.583999 0.584002 0.584005 0.584008 
0.584011 0.584015 0.584018 0.584022 0.584025 0.584029 0.584033 0.584037 0.584042 
0.584046 0.58405 0.584055 0.58406 0.584064 0.584069 0.584074 0.584079 0.584084 
0.584089 0.584094 0.584099 0.584104 0.584109 0.584114 0.584119 0.584124 0.584128 
0.584133 0.584137 0.584141 0.584145 0.584149 0.584152 0.584155 0.584158 0.58416 
0.584162 0.584164 0.584165 0.584165 0.584165 0.584164 0.584163 0.584161 0.584158 
0.584155 0.584151 0.584146 0.58414 0.584134 0.584128 0.584158 0.584087 0.578196 
0.562963 0.540005 0.511112 0.477829 0.441497 0.403342 0.364532 0.326692 0.290787 
0.257937 0.229697 0.207874 0.192877 0.184787 0.183768 0.188256 0.194875 0.201768 
0.206805 0.21078 0.216924 0.223048 0.230441 0.234069 0.239275 0.242077 0.242567 
0.242527 0.23996 0.235366 0.234726 0.237164 0.240664 0.244068 0.246273 0.249032 
0.252198 0.255737 0.258446 0.261434 0.264091 0.266834 0.270029 0.272438 0.274411 
0.275978 0.278706 0.284197 0.291522 0.294965 0.303728 0.305995 0.312137 0.32028 
0.329437 0.340449 0.354257 0.380284 0.411187 0.448435 0.48574 0.511666 0.539317 
0.549489 0.553817 0.559467 0.586282 0.658835 0.644711 0.616369 0.586342 0.527114 
0.502715 0.480997 0.439425 0.405384 0.373183 0.369625 0.369578 0.369535 0.369507 
0.369483 0.369463 0.369445 0.369428 0.369413 0.3694 0.369389 0.369378 0.36937 
0.369362 0.369355 0.36935 0.369346 0.369342 0.369339 0.369337 0.369336 0.369335 
0.369335 0.369336 0.369337 0.369338 0.36934 0.369342 0.369345 0.369347 0.36935 
0.369354 0.369357 0.369361 0.369365 0.369369 0.369373 0.369377 0.369382 0.369386 
0.369391 0.369396 0.3694 0.369405 0.36941 0.369415 0.36942 0.369425 0.369431 
0.369436 0.369441 0.369446 0.369452 0.369457 0.369462 0.369468 0.369473 0.369478 
0.369484 0.369489 0.369495 0.3695 0.369505 0.369511 0.369516 0.369522 0.369527 
0.369533 0.369538 0.369543 0.369549 0.369554 0.369559 0.369565 0.36957 0.369575 
0.36958 0.369585 0.36959 0.369594 0.369598 0.369602 0.369605 0.369606 0.369603 
0.369577 0.368445 0.365872 0.362573 0.583996 0.583988 0.58398 0.583972 0.583964 
0.583957 0.583949 0.583942 0.583935 0.583928 0.583921 0.583915 0.583909 0.583903 
0.583898 0.583893 0.583889 0.583885 0.583881 0.583878 0.583876 0.583873 0.583871 
0.58387 0.583869 0.583867 0.583867 0.583866 0.583866 0.583866 0.583866 0.583866 
0.583867 0.583868 0.583869 0.58387 0.583871 0.583873 0.583874 0.583876 0.583879 
0.583881 0.583884 0.583887 0.58389 0.583893 0.583897 0.583901 0.583905 0.583909 
0.583913 0.583917 0.583921 0.583926 0.58393 0.583934 0.583938 0.583943 0.583947 
0.58395 0.583954 0.583958 0.583961 0.583965 0.583968 0.583971 0.583974 0.583977 
0.58398 0.583982 0.583985 0.583988 0.583991 0.583993 0.583996 0.583999 0.584002 
0.584005 0.584008 0.584011 0.584014 0.584018 0.584022 0.584025 0.584029 0.584033 
0.584037 0.584041 0.584046 0.58405 0.584055 0.584059 0.584064 0.584069 0.584074 
0.584079 0.584084 0.584089 0.584094 0.584099 0.584104 0.584109 0.584114 0.584119 
0.584124 0.584129 0.584133 0.584138 0.584142 0.584146 0.584149 0.584153 0.584156 
0.584159 0.584161 0.584163 0.584165 0.584166 0.584166 0.584166 0.584166 0.584165 
0.584163 0.58416 0.584157 0.584153 0.584149 0.584144 0.584139 0.584138 0.584226 
0.584091 0.578397 0.563637 0.541167 0.512573 0.479348 0.442858 0.404371 0.365095 
0.326244 0.289716 0.256492 0.228098 0.207614 0.191823 0.183201 0.182862 0.188093 
0.19521 0.202779 0.208329 0.212481 0.217563 0.222925 0.228724 0.231138 0.234829 
0.238053 0.238122 0.234225 0.230644 0.231036 0.232801 0.236307 0.240342 0.244185 
0.246087 0.247402 0.249741 0.252577 0.25579 0.259133 0.261666 0.264577 0.267611 
0.270571 0.273412 0.275978 0.278928 0.283998 0.291124 0.296497 0.301261 0.306033 
0.311456 0.318266 0.328682 0.337828 0.352289 0.384673 0.422862 0.450424 0.490409 
0.525435 0.547559 0.555659 0.55761 0.557096 0.587078 0.659028 0.644716 0.616474 
0.586344 0.527073 0.502705 0.480995 0.439407 0.405364 0.373014 0.369579 0.369551 
0.369524 0.3695 0.369478 0.369459 0.369441 0.369425 0.36941 0.369397 0.369386 
0.369376 0.369367 0.36936 0.369353 0.369348 0.369344 0.36934 0.369338 0.369336 
0.369335 0.369334 0.369334 0.369335 0.369336 0.369337 0.369339 0.369341 0.369344 
0.369347 0.36935 0.369353 0.369357 0.36936 0.369364 0.369368 0.369373 0.369377 
0.369381 0.369386 0.369391 0.369395 0.3694 0.369405 0.36941 0.369415 0.36942 
0.369425 0.369431 0.369436 0.369441 0.369446 0.369452 0.369457 0.369462 0.369468 
0.369473 0.369478 0.369484 0.369489 0.369495 0.3695 0.369505 0.369511 0.369516 
0.369522 0.369527 0.369533 0.369538 0.369544 0.369549 0.369554 0.36956 0.369565 
0.36957 0.369575 0.36958 0.369585 0.36959 0.369595 0.369599 0.369603 0.369608 
0.36961 0.369609 0.369591 0.368449 0.365884 0.362574 0.583996 0.583988 0.58398 
0.583972 0.583964 0.583956 0.583949 0.583941 0.583934 0.583927 0.58392 0.583914 
0.583908 0.583902 0.583897 0.583892 0.583888 0.583884 0.58388 0.583877 0.583874 
0.583872 0.58387 0.583869 0.583868 0.583867 0.583866 0.583866 0.583865 0.583865 
0.583866 0.583866 0.583866 0.583867 0.583868 0.583869 0.58387 0.583872 0.583874 
0.583876 0.583878 0.58388 0.583883 0.583886 0.583889 0.583893 0.583896 0.5839 
0.583904 0.583908 0.583913 0.583917 0.583921 0.583926 0.58393 0.583934 0.583939 
0.583943 0.583947 0.583951 0.583954 0.583958 0.583962 0.583965 0.583968 0.583971 
0.583974 0.583977 0.58398 0.583982 0.583985 0.583988 0.58399 0.583993 0.583996 
0.583999 0.584001 0.584004 0.584008 0.584011 0.584014 0.584017 0.584021 0.584025 
0.584029 0.584033 0.584037 0.584041 0.584045 0.58405 0.584054 0.584059 0.584064 
0.584069 0.584074 0.584079 0.584084 0.584089 0.584094 0.584099 0.584104 0.584109 
0.584114 0.584119 0.584124 0.584129 0.584134 0.584138 0.584142 0.584146 0.58415 
0.584153 0.584157 0.584159 0.584162 0.584164 0.584166 0.584167 0.584167 0.584167 
0.584167 0.584166 0.584164 0.584162 0.584158 0.584154 0.58415 0.584144 0.584138 
0.584131 0.58421 0.584092 0.578511 0.564055 0.541971 0.513714 0.480697 0.444259 
0.405673 0.366152 0.326904 0.289226 0.255445 0.227158 0.206546 0.191089 0.182013 
0.182219 0.187942 0.1952 0.202592 0.208246 0.212829 0.217088 0.220428 0.221366 
0.224528 0.227379 0.228878 0.229079 0.22856 0.228285 0.22901 0.230269 0.232198 
0.237137 0.241508 0.243992 0.245597 0.248344 0.251073 0.254025 0.257569 0.260174 
0.262809 0.265515 0.266408 0.268498 0.271786 0.274808 0.278817 0.284856 0.292556 
0.292347 0.295984 0.299826 0.30314 0.317787 0.328534 0.351494 0.383955 0.4218 
0.44898 0.489095 0.524165 0.547998 0.558956 0.560579 0.559753 0.586304 0.65904 
0.644716 0.616452 0.586345 0.52707 0.502706 0.480984 0.439401 0.40536 0.373043 
0.369573 0.369545 0.369517 0.369494 0.369472 0.369452 0.369435 0.369419 0.369405 
0.369392 0.369381 0.369371 0.369363 0.369356 0.36935 0.369345 0.369341 0.369338 
0.369335 0.369334 0.369333 0.369332 0.369333 0.369333 0.369334 0.369336 0.369338 
0.36934 0.369343 0.369346 0.369349 0.369352 0.369356 0.36936 0.369364 0.369368 
0.369372 0.369377 0.369381 0.369386 0.36939 0.369395 0.3694 0.369405 0.36941 
0.369415 0.36942 0.369425 0.36943 0.369436 0.369441 0.369446 0.369451 0.369457 
0.369462 0.369467 0.369473 0.369478 0.369484 0.369489 0.369494 0.3695 0.369505 
0.369511 0.369516 0.369522 0.369527 0.369533 0.369538 0.369544 0.369549 0.369554 
0.36956 0.369565 0.36957 0.369576 0.369581 0.369586 0.369591 0.369596 0.369601 
0.369605 0.36961 0.369615 0.369615 0.369598 0.368454 0.365888 0.362574 0.583996 
0.583988 0.58398 0.583972 0.583964 0.583956 0.583948 0.58394 0.583933 0.583926 
0.583919 0.583912 0.583906 0.5839 0.583895 0.58389 0.583886 0.583882 0.583878 
0.583875 0.583873 0.583871 0.583869 0.583868 0.583866 0.583866 0.583865 0.583865 
0.583864 0.583865 0.583865 0.583865 0.583866 0.583866 0.583867 0.583868 0.583869 
0.583871 0.583873 0.583875 0.583877 0.583879 0.583882 0.583885 0.583888 0.583892 
0.583896 0.5839 0.583904 0.583908 0.583912 0.583917 0.583921 0.583926 0.58393 
0.583935 0.583939 0.583943 0.583947 0.583951 0.583955 0.583959 0.583962 0.583965 
0.583968 0.583972 0.583974 0.583977 0.58398 0.583983 0.583985 0.583988 0.58399 
0.583993 0.583996 0.583998 0.584001 0.584004 0.584007 0.58401 0.584014 0.584017 
0.58402 0.584024 0.584028 0.584032 0.584036 0.58404 0.584045 0.584049 0.584054 
0.584059 0.584063 0.584068 0.584073 0.584078 0.584083 0.584089 0.584094 0.584099 
0.584104 0.584109 0.584114 0.58412 0.584125 0.584129 0.584134 0.584139 0.584143 
0.584147 0.584151 0.584155 0.584158 0.584161 0.584163 0.584166 0.584167 0.584169 
0.584169 0.584169 0.584169 0.584168 0.584167 0.584164 0.584161 0.584158 0.584153 
0.584148 0.584142 0.584137 0.584217 0.584097 0.578605 0.564395 0.542667 0.514786 
0.482096 0.445895 0.407435 0.367919 0.328526 0.290487 0.255225 0.224856 0.201137 
0.186659 0.180091 0.182146 0.187971 0.19491 0.201511 0.20678 0.210992 0.21297 
0.214952 0.217958 0.21901 0.221578 0.224522 0.225385 0.226267 0.227363 0.22829 
0.229466 0.231945 0.238302 0.244194 0.246939 0.248797 0.251777 0.254564 0.256897 
0.260056 0.262097 0.26343 0.264587 0.266647 0.269224 0.272111 0.27351 0.275225 
0.277775 0.283105 0.291433 0.293834 0.296137 0.307771 0.318296 0.329429 0.361184 
0.384102 0.418202 0.458686 0.48647 0.515812 0.544729 0.556506 0.557608 0.556583 
0.58642 0.65885 0.644715 0.616456 0.586336 0.527065 0.50269 0.480975 0.439389 
0.405345 0.373023 0.36956 0.369533 0.369507 0.369484 0.369463 0.369444 0.369427 
0.369412 0.369398 0.369386 0.369375 0.369366 0.369358 0.369351 0.369346 0.369341 
0.369337 0.369334 0.369332 0.369331 0.36933 0.36933 0.36933 0.369331 0.369333 
0.369334 0.369337 0.369339 0.369342 0.369345 0.369348 0.369352 0.369355 0.369359 
0.369363 0.369367 0.369372 0.369376 0.369381 0.369385 0.36939 0.369395 0.3694 
0.369405 0.36941 0.369415 0.36942 0.369425 0.36943 0.369435 0.369441 0.369446 
0.369451 0.369457 0.369462 0.369467 0.369473 0.369478 0.369484 0.369489 0.369494 
0.3695 0.369505 0.369511 0.369516 0.369522 0.369527 0.369533 0.369538 0.369544 
0.369549 0.369554 0.36956 0.369565 0.369571 0.369576 0.369581 0.369586 0.369592 
0.369597 0.369602 0.369607 0.369612 0.369618 0.369618 0.369602 0.368459 0.365891 
0.362574 0.583996 0.583988 0.583979 0.583971 0.583963 0.583955 0.583947 0.583939 
0.583932 0.583924 0.583917 0.583911 0.583904 0.583898 0.583893 0.583888 0.583884 
0.58388 0.583876 0.583873 0.583871 0.583869 0.583867 0.583866 0.583865 0.583864 
0.583864 0.583864 0.583864 0.583864 0.583864 0.583864 0.583865 0.583865 0.583866 
0.583867 0.583868 0.58387 0.583871 0.583873 0.583876 0.583878 0.583881 0.583884 
0.583887 0.583891 0.583895 0.583899 0.583903 0.583908 0.583912 0.583917 0.583921 
0.583926 0.583931 0.583935 0.583939 0.583944 0.583948 0.583952 0.583956 0.583959 
0.583963 0.583966 0.583969 0.583972 0.583975 0.583978 0.58398 0.583983 0.583985 
0.583988 0.58399 0.583993 0.583995 0.583998 0.584001 0.584004 0.584006 0.58401 
0.584013 0.584016 0.58402 0.584024 0.584027 0.584031 0.584035 0.58404 0.584044 
0.584049 0.584053 0.584058 0.584063 0.584068 0.584073 0.584078 0.584083 0.584089 
0.584094 0.584099 0.584104 0.58411 0.584115 0.58412 0.584125 0.58413 0.584135 
0.584139 0.584144 0.584148 0.584152 0.584156 0.584159 0.584162 0.584165 0.584168 
0.584169 0.584171 0.584172 0.584172 0.584172 0.584171 0.58417 0.584168 0.584165 
0.584162 0.584158 0.584153 0.584147 0.584142 0.584222 0.584103 0.578704 0.564745 
0.543391 0.515949 0.483705 0.447916 0.409809 0.370573 0.331388 0.293481 0.258262 
0.227285 0.20245 0.187851 0.182011 0.183789 0.188886 0.194932 0.201431 0.205233 
0.206017 0.207408 0.209419 0.213149 0.215117 0.217346 0.218218 0.219413 0.221344 
0.225818 0.229131 0.231944 0.234299 0.239793 0.244877 0.247589 0.249445 0.251789 
0.25466 0.257166 0.260047 0.265009 0.268174 0.270526 0.273248 0.27584 0.278937 
0.282447 0.286844 0.295636 0.308675 0.309413 0.322452 0.326357 0.326651 0.338707 
0.348173 0.358711 0.382795 0.413879 0.452778 0.480621 0.509909 0.534171 0.540678 
0.541902 0.542733 0.587291 0.659017 0.644702 0.61645 0.586334 0.52706 0.502687 
0.480963 0.439377 0.405334 0.373014 0.369548 0.369521 0.369496 0.369473 0.369453 
0.369434 0.369417 0.369403 0.369389 0.369378 0.369368 0.369359 0.369352 0.369345 
0.36934 0.369336 0.369333 0.36933 0.369329 0.369327 0.369327 0.369327 0.369328 
0.369329 0.369331 0.369333 0.369335 0.369337 0.36934 0.369344 0.369347 0.36935 
0.369354 0.369358 0.369362 0.369367 0.369371 0.369375 0.36938 0.369385 0.36939 
0.369394 0.369399 0.369404 0.369409 0.369414 0.36942 0.369425 0.36943 0.369435 
0.369441 0.369446 0.369451 0.369457 0.369462 0.369467 0.369473 0.369478 0.369484 
0.369489 0.369494 0.3695 0.369505 0.369511 0.369516 0.369522 0.369527 0.369533 
0.369538 0.369544 0.369549 0.369555 0.36956 0.369565 0.369571 0.369576 0.369582 
0.369587 0.369592 0.369598 0.369603 0.369609 0.369615 0.369621 0.369621 0.369605 
0.368463 0.365893 0.362574 0.583996 0.583987 0.583979 0.583971 0.583962 0.583954 
0.583946 0.583938 0.58393 0.583922 0.583915 0.583908 0.583902 0.583896 0.58389 
0.583886 0.583881 0.583877 0.583874 0.583871 0.583869 0.583867 0.583865 0.583864 
0.583863 0.583863 0.583863 0.583862 0.583862 0.583863 0.583863 0.583863 0.583864 
0.583864 0.583865 0.583866 0.583867 0.583869 0.58387 0.583872 0.583874 0.583877 
0.58388 0.583883 0.583886 0.58389 0.583894 0.583898 0.583903 0.583907 0.583912 
0.583917 0.583921 0.583926 0.583931 0.583936 0.58394 0.583944 0.583949 0.583953 
0.583956 0.58396 0.583963 0.583967 0.58397 0.583973 0.583975 0.583978 0.583981 
0.583983 0.583985 0.583988 0.58399 0.583992 0.583995 0.583997 0.584 0.584003 
0.584006 0.584009 0.584012 0.584015 0.584019 0.584023 0.584027 0.584031 0.584035 
0.584039 0.584043 0.584048 0.584053 0.584057 0.584062 0.584067 0.584072 0.584078 
0.584083 0.584088 0.584094 0.584099 0.584104 0.58411 0.584115 0.58412 0.584126 
0.584131 0.584136 0.58414 0.584145 0.584149 0.584154 0.584158 0.584161 0.584165 
0.584167 0.58417 0.584172 0.584174 0.584175 0.584175 0.584175 0.584175 0.584174 
0.584172 0.58417 0.584166 0.584163 0.584158 0.584154 0.584149 0.584228 0.584111 
0.57882 0.565144 0.544214 0.517291 0.485615 0.450405 0.412864 0.37417 0.335535 
0.298272 0.263949 0.234284 0.210901 0.195702 0.188054 0.18702 0.190828 0.195583 
0.200463 0.203892 0.205638 0.207008 0.209047 0.212571 0.214689 0.216582 0.217424 
0.217588 0.220241 0.225275 0.228578 0.231358 0.234252 0.240103 0.245303 0.247802 
0.249581 0.251474 0.252934 0.256846 0.26286 0.265333 0.268996 0.273608 0.275604 
0.277857 0.282342 0.289105 0.293921 0.299776 0.309079 0.312559 0.323526 0.329278 
0.330453 0.342032 0.358367 0.359438 0.373906 0.396315 0.430665 0.462777 0.491876 
0.516323 0.529584 0.537881 0.541867 0.586246 0.659004 0.644711 0.616446 0.586326 
0.527046 0.502674 0.480951 0.439363 0.405318 0.372996 0.369533 0.369507 0.369482 
0.36946 0.36944 0.369422 0.369406 0.369392 0.369379 0.369368 0.369359 0.369351 
0.369344 0.369339 0.369334 0.36933 0.369327 0.369325 0.369324 0.369323 0.369323 
0.369324 0.369325 0.369326 0.369328 0.36933 0.369333 0.369336 0.369339 0.369342 
0.369346 0.369349 0.369353 0.369357 0.369361 0.369366 0.36937 0.369375 0.369379 
0.369384 0.369389 0.369394 0.369399 0.369404 0.369409 0.369414 0.369419 0.369425 
0.36943 0.369435 0.36944 0.369446 0.369451 0.369456 0.369462 0.369467 0.369473 
0.369478 0.369483 0.369489 0.369494 0.3695 0.369505 0.369511 0.369516 0.369522 
0.369527 0.369533 0.369538 0.369544 0.369549 0.369555 0.36956 0.369566 0.369571 
0.369577 0.369582 0.369588 0.369593 0.369599 0.369605 0.36961 0.369616 0.369622 
0.369623 0.369607 0.368465 0.365894 0.362575 0.583996 0.583987 0.583979 0.58397 
0.583961 0.583953 0.583944 0.583936 0.583928 0.58392 0.583913 0.583906 0.583899 
0.583893 0.583888 0.583883 0.583878 0.583874 0.583871 0.583868 0.583866 0.583864 
0.583863 0.583862 0.583862 0.583861 0.583861 0.583861 0.583861 0.583861 0.583862 
0.583862 0.583863 0.583863 0.583864 0.583865 0.583866 0.583867 0.583869 0.58387 
0.583872 0.583875 0.583878 0.583881 0.583885 0.583888 0.583893 0.583897 0.583902 
0.583907 0.583911 0.583916 0.583921 0.583926 0.583931 0.583936 0.583941 0.583945 
0.58395 0.583954 0.583957 0.583961 0.583964 0.583968 0.583971 0.583973 0.583976 
0.583978 0.583981 0.583983 0.583985 0.583988 0.58399 0.583992 0.583994 0.583997 
0.583999 0.584002 0.584005 0.584008 0.584011 0.584015 0.584018 0.584022 0.584026 
0.58403 0.584034 0.584038 0.584042 0.584047 0.584052 0.584057 0.584062 0.584067 
0.584072 0.584077 0.584083 0.584088 0.584093 0.584099 0.584104 0.58411 0.584115 
0.584121 0.584126 0.584131 0.584137 0.584142 0.584146 0.584151 0.584155 0.58416 
0.584163 0.584167 0.58417 0.584173 0.584175 0.584177 0.584178 0.584179 0.584179 