# vtk DataFile Version 5.1
vtk output
ASCII
DATASET UNSTRUCTURED_GRID
POINTS 9536 double
-10.1 1.4499999993 0 -10.049999999 1.4499999993 0 -10.049999999 1.5 0 
-9.9999999985 1.4499999993 0 -9.9999999985 1.5 0 -9.9499999978 1.4499999993 0 
-9.9499999978 1.5 0 -9.899999997 1.4499999993 0 -9.899999997 1.5 0 
-9.8499999963 1.4499999993 0 -9.8499999963 1.5 0 -9.7999999955 1.4499999993 0 
-9.7999999955 1.5 0 -9.7499999948 1.4499999993 0 -9.7499999948 1.5 0 
-9.699999994 1.4499999993 0 -9.699999994 1.5 0 -9.6499999933 1.4499999993 0 
-9.6499999933 1.5 0 -9.5999999925 1.4499999993 0 -9.5999999925 1.5 0 
-9.5499999918 1.4499999993 0 -9.5499999918 1.5 0 -9.4999999911 1.4499999993 0 
-9.4999999911 1.5 0 -9.4499999903 1.4499999993 0 -9.4499999903 1.5 0 
-9.3999999896 1.4499999993 0 -9.3999999896 1.5 0 -9.3499999888 1.4499999993 0 
-9.3499999888 1.5 0 -9.2999999881 1.4499999993 0 -9.2999999881 1.5 0 
-9.2499999873 1.4499999993 0 -9.2499999873 1.5 0 -9.1999999866 1.4499999993 0 
-9.1999999866 1.5 0 -9.1499999858 1.4499999993 0 -9.1499999858 1.5 0 
-9.0999999851 1.4499999993 0 -9.0999999851 1.5 0 -9.0499999844 1.4499999993 0 
-9.0499999844 1.5 0 -8.9999999836 1.4499999993 0 -8.9999999836 1.5 0 
-8.9499999829 1.4499999993 0 -8.9499999829 1.5 0 -8.8999999821 1.4499999993 0 
-8.8999999821 1.5 0 -8.8499999814 1.4499999993 0 -8.8499999814 1.5 0 
-8.7999999806 1.4499999993 0 -8.7999999806 1.5 0 -8.7499999799 1.4499999993 0 
-8.7499999799 1.5 0 -8.6999999791 1.4499999993 0 -8.6999999791 1.5 0 
-8.6499999784 1.4499999993 0 -8.6499999784 1.5 0 -8.5999999776 1.4499999993 0 
-8.5999999776 1.5 0 -8.5499999769 1.4499999993 0 -8.5499999769 1.5 0 
-8.4999999762 1.4499999993 0 -8.4999999762 1.5 0 -8.4499999754 1.4499999993 0 
-8.4499999754 1.5 0 -8.3999999747 1.4499999993 0 -8.3999999747 1.5 0 
-8.3499999739 1.4499999993 0 -8.3499999739 1.5 0 -8.2999999732 1.4499999993 0 
-8.2999999732 1.5 0 -8.2499999724 1.4499999993 0 -8.2499999724 1.5 0 
-8.1999999717 1.4499999993 0 -8.1999999717 1.5 0 -8.1499999709 1.4499999993 0 
-8.1499999709 1.5 0 -8.0999999702 1.4499999993 0 -8.0999999702 1.5 0 
-8.0499999695 1.4499999993 0 -8.0499999695 1.5 0 -7.9999999687 1.4499999993 0 
-7.9999999687 1.5 0 -7.949999968 1.4499999993 0 -7.949999968 1.5 0 
-7.8999999672 1.4499999993 0 -7.8999999672 1.5 0 -7.8499999665 1.4499999993 0 
-7.8499999665 1.5 0 -7.7999999657 1.4499999993 0 -7.7999999657 1.5 0 
-7.749999965 1.4499999993 0 -7.749999965 1.5 0 -7.6999999642 1.4499999993 0 
-7.6999999642 1.5 0 -7.6499999635 1.4499999993 0 -7.6499999635 1.5 0 
-7.5999999627 1.4499999993 0 -7.5999999627 1.5 0 -7.549999962 1.4499999993 0 
-7.549999962 1.5 0 -7.4999999613 1.4499999993 0 -7.4999999613 1.5 0 
-7.4499999605 1.4499999993 0 -7.4499999605 1.5 0 -7.3999999598 1.4499999993 0 
-7.3999999598 1.5 0 -7.349999959 1.4499999993 0 -7.349999959 1.5 0 
-7.2999999583 1.4499999993 0 -7.2999999583 1.5 0 -7.2499999575 1.4499999993 0 
-7.2499999575 1.5 0 -7.1999999568 1.4499999993 0 -7.1999999568 1.5 0 
-7.149999956 1.4499999993 0 -7.149999956 1.5 0 -7.0999999553 1.4499999993 0 
-7.0999999553 1.5 0 -7.0499999546 1.4499999993 0 -7.0499999546 1.5 0 
-6.9999999538 1.4499999993 0 -6.9999999538 1.5 0 -6.9499999531 1.4499999993 0 
-6.9499999531 1.5 0 -6.8999999523 1.4499999993 0 -6.8999999523 1.5 0 
-6.8499999516 1.4499999993 0 -6.8499999516 1.5 0 -6.7999999508 1.4499999993 0 
-6.7999999508 1.5 0 -6.7499999501 1.4499999993 0 -6.7499999501 1.5 0 
-6.6999999493 1.4499999993 0 -6.6999999493 1.5 0 -6.6499999486 1.4499999993 0 
-6.6499999486 1.5 0 -6.5999999478 1.4499999993 0 -6.5999999478 1.5 0 
-6.5499999471 1.4499999993 0 -6.5499999471 1.5 0 -6.4999999464 1.4499999993 0 
-6.4999999464 1.5 0 -6.4499999456 1.4499999993 0 -6.4499999456 1.5 0 
-6.3999999449 1.4499999993 0 -6.3999999449 1.5 0 -6.3499999441 1.4499999993 0 
-6.3499999441 1.5 0 -6.2999999434 1.4499999993 0 -6.2999999434 1.5 0 
-6.2499999426 1.4499999993 0 -6.2499999426 1.5 0 -6.1999999419 1.4499999993 0 
-6.1999999419 1.5 0 -6.1499999411 1.4499999993 0 -6.1499999411 1.5 0 
-6.0999999404 1.4499999993 0 -6.0999999404 1.5 0 -6.0499999397 1.4499999993 0 
-6.0499999397 1.5 0 -5.9999999389 1.4499999993 0 -5.9999999389 1.5 0 
-5.9499999382 1.4499999993 0 -5.9499999382 1.5 0 -5.8999999374 1.4499999993 0 
-5.8999999374 1.5 0 -5.8499999367 1.4499999993 0 -5.8499999367 1.5 0 
-5.7999999359 1.4499999993 0 -5.7999999359 1.5 0 -5.7499999352 1.4499999993 0 
-5.7499999352 1.5 0 -5.6999999344 1.4499999993 0 -5.6999999344 1.5 0 
-5.6499999337 1.4499999993 0 -5.6499999337 1.5 0 -5.5999999329 1.4499999993 0 
-5.5999999329 1.5 0 -5.5499999322 1.4499999993 0 -5.5499999322 1.5 0 
-5.4999999315 1.4499999993 0 -5.4999999315 1.5 0 -5.4499999307 1.4499999993 0 
-5.4499999307 1.5 0 -5.39999993 1.4499999993 0 -5.39999993 1.5 0 
-5.3499999292 1.4499999993 0 -5.3499999292 1.5 0 -5.2999999285 1.4499999993 0 
-5.2999999285 1.5 0 -5.2499999277 1.4499999993 0 -5.2499999277 1.5 0 
-5.199999927 1.4499999993 0 -5.199999927 1.5 0 -5.1499999262 1.4499999993 0 
-5.1499999262 1.5 0 -5.0999999255 1.4499999993 0 -5.0999999255 1.5 0 
-5.0499999247 1.4499999993 0 -5.0499999247 1.5 0 -4.999999924 1.4499999993 0 
-4.999999924 1.5 0 -4.9499999233 1.4499999993 0 -4.9499999233 1.5 0 
-4.8999999225 1.4499999993 0 -4.8999999225 1.5 0 -4.8499999218 1.4499999993 0 
-4.8499999218 1.5 0 -4.799999921 1.4499999993 0 -4.799999921 1.5 0 
-4.7499999203 1.4499999993 0 -4.7499999203 1.5 0 -4.6999999195 1.4499999993 0 
-4.6999999195 1.5 0 -4.6499999188 1.4499999993 0 -4.6499999188 1.5 0 
-4.599999918 1.4499999993 0 -4.599999918 1.5 0 -4.5499999173 1.4499999993 0 
-4.5499999173 1.5 0 -4.4999999166 1.4499999993 0 -4.4999999166 1.5 0 
-4.4499999158 1.4499999993 0 -4.4499999158 1.5 0 -4.3999999151 1.4499999993 0 
-4.3999999151 1.5 0 -4.3499999143 1.4499999993 0 -4.3499999143 1.5 0 
-4.2999999136 1.4499999993 0 -4.2999999136 1.5 0 -4.2499999128 1.4499999993 0 
-4.2499999128 1.5 0 -4.1999999121 1.4499999993 0 -4.1999999121 1.5 0 
-4.1499999113 1.4499999993 0 -4.1499999113 1.5 0 -4.0999999106 1.4499999993 0 
-4.0999999106 1.5 0 -4.0499999098 1.4499999993 0 -4.0499999098 1.5 0 
-3.9999999091 1.4499999993 0 -3.9999999091 1.5 0 -3.9499999084 1.4499999993 0 
-3.9499999084 1.5 0 -3.8999999076 1.4499999993 0 -3.8999999076 1.5 0 
-3.8499999069 1.4499999993 0 -3.8499999069 1.5 0 -3.7999999061 1.4499999993 0 
-3.7999999061 1.5 0 -3.7499999054 1.4499999993 0 -3.7499999054 1.5 0 
-3.6999999046 1.4499999993 0 -3.6999999046 1.5 0 -3.6499999039 1.4499999993 0 
-3.6499999039 1.5 0 -3.5999999031 1.4499999993 0 -3.5999999031 1.5 0 
-3.5499999024 1.4499999993 0 -3.5499999024 1.5 0 -3.4999999017 1.4499999993 0 
-3.4999999017 1.5 0 -3.4499999009 1.4499999993 0 -3.4499999009 1.5 0 
-3.3999999002 1.4499999993 0 -3.3999999002 1.5 0 -3.3499998994 1.4499999993 0 
-3.3499998994 1.5 0 -3.2999998987 1.4499999993 0 -3.2999998987 1.5 0 
-3.2499998979 1.4499999993 0 -3.2499998979 1.5 0 -3.1999998972 1.4499999993 0 
-3.1999998972 1.5 0 -3.1499998964 1.4499999993 0 -3.1499998964 1.5 0 
-3.0999998957 1.4499999993 0 -3.0999998957 1.5 0 -3.0499998949 1.4499999993 0 
-3.0499998949 1.5 0 -2.9999998942 1.4499999993 0 -2.9999998942 1.5 0 
-2.9499998935 1.4499999993 0 -2.9499998935 1.5 0 -2.8999998927 1.4499999993 0 
-2.8999998927 1.5 0 -2.849999892 1.4499999993 0 -2.849999892 1.5 0 
-2.7999998912 1.4499999993 0 -2.7999998912 1.5 0 -2.7499998905 1.4499999993 0 
-2.7499998905 1.5 0 -2.6999998897 1.4499999993 0 -2.6999998897 1.5 0 
-2.649999889 1.4499999993 0 -2.649999889 1.5 0 -2.5999998882 1.4499999993 0 
-2.5999998882 1.5 0 -2.5499998875 1.4499999993 0 -2.5499998875 1.5 0 
-2.4999998868 1.4499999993 0 -2.4999998868 1.5 0 -2.449999886 1.4499999993 0 
-2.449999886 1.5 0 -2.3999998853 1.4499999993 0 -2.3999998853 1.5 0 
-2.3499998845 1.4499999993 0 -2.3499998845 1.5 0 -2.2999998838 1.4499999993 0 
-2.2999998838 1.5 0 -2.249999883 1.4499999993 0 -2.249999883 1.5 0 
-2.1999998823 1.4499999993 0 -2.1999998823 1.5 0 -2.1499998815 1.4499999993 0 
-2.1499998815 1.5 0 -2.0999998808 1.4499999993 0 -2.0999998808 1.5 0 
-2.04999988 1.4499999993 0 -2.04999988 1.5 0 -1.9999998793 1.4499999993 0 
-1.9999998793 1.5 0 -1.9499998786 1.4499999993 0 -1.9499998786 1.5 0 
-1.8999998778 1.4499999993 0 -1.8999998778 1.5 0 -1.8499998771 1.4499999993 0 
-1.8499998771 1.5 0 -1.7999998763 1.4499999993 0 -1.7999998763 1.5 0 
-1.7499998756 1.4499999993 0 -1.7499998756 1.5 0 -1.6999998748 1.4499999993 0 
-1.6999998748 1.5 0 -1.6499998741 1.4499999993 0 -1.6499998741 1.5 0 
-1.5999998733 1.4499999993 0 -1.5999998733 1.5 0 -1.5499998726 1.4499999993 0 
-1.5499998726 1.5 0 -1.4999998719 1.4499999993 0 -1.4999998719 1.5 0 
-1.4499998711 1.4499999993 0 -1.4499998711 1.5 0 -1.3999998704 1.4499999993 0 
-1.3999998704 1.5 0 -1.3499998696 1.4499999993 0 -1.3499998696 1.5 0 
-1.2999998689 1.4499999993 0 -1.2999998689 1.5 0 -1.2499998681 1.4499999993 0 
-1.2499998681 1.5 0 -1.1999998674 1.4499999993 0 -1.1999998674 1.5 0 
-1.1499998666 1.4499999993 0 -1.1499998666 1.5 0 -1.0999998659 1.4499999993 0 
-1.0999998659 1.5 0 -1.0499998651 1.4499999993 0 -1.0499998651 1.5 0 
-0.9999998644 1.4499999993 0 -0.9999998644 1.5 0 -0.94999986365 1.4499999993 0 
-0.94999986365 1.5 0 -0.89999986291 1.4499999993 0 -0.89999986291 1.5 0 
-0.84999986216 1.4499999993 0 -0.84999986216 1.5 0 -0.79999986142 1.4499999993 0 
-0.79999986142 1.5 0 -0.74999986067 1.4499999993 0 -0.74999986067 1.5 0 
-0.69999985993 1.4499999993 0 -0.69999985993 1.5 0 -0.64999985918 1.4499999993 0 
-0.64999985918 1.5 0 -0.59999985844 1.4499999993 0 -0.59999985844 1.5 0 
-0.54999985769 1.4499999993 0 -0.54999985769 1.5 0 -0.49999985695 1.4499999993 0 
-0.49999985695 1.5 0 -0.4499998562 1.4499999993 0 -0.4499998562 1.5 0 
-0.39999985546 1.4499999993 0 -0.39999985546 1.5 0 -0.34999985471 1.4499999993 0 
-0.34999985471 1.5 0 -0.29999985397 1.4499999993 0 -0.29999985397 1.5 0 
-0.24999985322 1.4499999993 0 -0.24999985322 1.5 0 -0.19999985248 1.4499999993 0 
-0.19999985248 1.5 0 -0.15611771322 1.4499999993 0 -0.12748126461 1.5 0 
[...]
CELL_DATA 9090
FIELD FieldData 4
Water_Depth_m 1 9090 float
0.340037 0.34011 0.340183 0.340255 0.340326 0.340397 0.340467 0.340537 0.340606 
0.340673 0.340739 0.340803 0.340866 0.340926 0.340983 0.341037 0.341087 0.341134 
0.341177 0.341215 0.341248 0.341276 0.341299 0.341316 0.341327 0.341332 0.341331 
0.341324 0.34131 0.34129 0.341264 0.341231 0.341192 0.341147 0.341096 0.341039 
0.340976 0.340909 0.340836 0.340759 0.340678 0.340594 0.340507 0.340417 0.340326 
0.340234 0.340142 0.340051 0.339961 0.339874 0.33979 0.33971 0.339636 0.339568 
0.339506 0.339453 0.339408 0.339372 0.339346 0.33933 0.339323 0.339327 0.339341 
0.339363 0.339395 0.339434 0.339479 0.33953 0.339586 0.339645 0.339707 0.33977 
0.339834 0.339897 0.339959 0.340019 0.340078 0.340135 0.34019 0.340243 0.340296 
0.34035 0.340405 0.340463 0.340525 0.340594 0.340671 0.340757 0.340855 0.340965 
0.341088 0.341225 0.341376 0.341541 0.341718 0.341907 0.342104 0.342308 0.342516 
0.342726 0.342935 0.34314 0.343339 0.34353 0.34371 0.343878 0.344033 0.344173 
0.344298 0.344407 0.3445 0.344576 0.344637 0.344683 0.344714 0.344731 0.344735 
0.344728 0.34471 0.344682 0.344645 0.344601 0.34455 0.344492 0.344431 0.344365 
0.344295 0.344224 0.34415 0.344075 0.343999 0.343923 0.343846 0.34377 0.343694 
0.343619 0.343545 0.343471 0.343398 0.343326 0.343255 0.343186 0.343118 0.343052 
0.342988 0.342927 0.342869 0.342815 0.342766 0.342722 0.342683 0.34265 0.342623 
0.342602 0.342588 0.34258 0.342577 0.34258 0.342586 0.342597 0.342611 0.342628 
0.342645 0.342663 0.342682 0.342702 0.342722 0.342742 0.342763 0.342785 0.342809 
0.342835 0.342865 0.3429 0.34294 0.342986 0.343041 0.343106 0.343182 0.343272 
0.343376 0.343496 0.343636 0.343797 0.343982 0.344195 0.344438 0.344708 0.345014 
0.345356 0.345735 0.346154 0.346616 0.347109 0.347644 0.348213 0.348821 0.349451 
0.350153 0.352037 0.352778 0.35459 0.355169 0.355693 0.356181 0.35663 0.357042 
0.357417 0.357758 0.358066 0.358343 0.358593 0.358818 0.35902 0.359201 0.359364 
0.35951 0.359641 0.359759 0.359866 0.359961 0.360047 0.360125 0.360195 0.360258 
0.360315 0.360367 0.360415 0.360457 0.360497 0.360532 0.360565 0.360595 0.360622 
0.360648 0.360671 0.360693 0.360713 0.360731 0.360749 0.360765 0.36078 0.360795 
0.360808 0.360821 0.360833 0.360845 0.360856 0.360867 0.360877 0.360887 0.360896 
0.360905 0.360914 0.360923 0.360932 0.36094 0.360948 0.360956 0.360964 0.360972 
0.360979 0.360987 0.360994 0.361001 0.361009 0.361016 0.361023 0.36103 0.361037 
0.361044 0.361051 0.361058 0.361065 0.361072 0.361079 0.361085 0.361092 0.361099 
0.361106 0.361112 0.361119 0.361126 0.361133 0.361139 0.361146 0.361153 0.361159 
0.361166 0.361173 0.361179 0.361186 0.361192 0.361198 0.361189 0.361167 0.359874 
0.357378 0.354158 0.340037 0.34011 0.340183 0.340254 0.340326 0.340397 0.340467 
0.340537 0.340606 0.340674 0.34074 0.340805 0.340867 0.340928 0.340985 0.34104 
0.341091 0.341138 0.341181 0.341219 0.341253 0.341281 0.341304 0.341321 0.341333 
0.341338 0.341337 0.34133 0.341316 0.341296 0.34127 0.341237 0.341197 0.341152 
0.3411 0.341043 0.34098 0.340911 0.340838 0.34076 0.340679 0.340594 0.340506 
0.340416 0.340324 0.340231 0.340138 0.340046 0.339956 0.339868 0.339783 0.339703 
0.339628 0.339559 0.339497 0.339443 0.339398 0.339362 0.339335 0.339319 0.339313 
0.339317 0.339331 0.339355 0.339387 0.339427 0.339473 0.339526 0.339582 0.339643 
0.339705 0.339769 0.339834 0.339897 0.33996 0.340021 0.340079 0.340136 0.34019 
0.340243 0.340295 0.340347 0.340401 0.340457 0.340518 0.340586 0.340661 0.340746 
0.340842 0.340951 0.341074 0.341211 0.341362 0.341527 0.341705 0.341895 0.342094 
0.342299 0.34251 0.342722 0.342933 0.34314 0.343341 0.343534 0.343716 0.343886 
0.344042 0.344183 0.344309 0.344419 0.344512 0.344589 0.34465 0.344695 0.344726 
0.344742 0.344746 0.344738 0.344719 0.34469 0.344653 0.344607 0.344555 0.344497 
0.344434 0.344368 0.344297 0.344225 0.344151 0.344075 0.343999 0.343922 0.343845 
0.343769 0.343693 0.343618 0.343543 0.343469 0.343396 0.343324 0.343253 0.343184 
0.343115 0.343049 0.342984 0.342923 0.342865 0.342811 0.342761 0.342716 0.342677 
0.342644 0.342617 0.342597 0.342582 0.342574 0.342572 0.342576 0.342584 0.342595 
0.342609 0.342626 0.342644 0.342663 0.342683 0.342702 0.342722 0.342741 0.342762 
0.342784 0.342808 0.342833 0.342862 0.342895 0.342934 0.34298 0.343034 0.343097 
0.343172 0.343258 0.34336 0.343479 0.343617 0.343777 0.343959 0.344168 0.344404 
0.344674 0.344977 0.345315 0.345692 0.346108 0.346563 0.34706 0.347594 0.348167 
0.348769 0.349397 0.350056 0.352061 0.352737 0.354609 0.355176 0.355704 0.356195 
0.356647 0.35706 0.357436 0.357777 0.358084 0.358361 0.35861 0.358834 0.359035 
0.359215 0.359377 0.359522 0.359652 0.359769 0.359874 0.359969 0.360054 0.360131 
0.360201 0.360263 0.36032 0.360372 0.360418 0.360461 0.3605 0.360535 0.360567 
0.360597 0.360624 0.360649 0.360673 0.360694 0.360714 0.360732 0.36075 0.360766 
0.360781 0.360795 0.360809 0.360822 0.360834 0.360845 0.360856 0.360867 0.360877 
0.360887 0.360896 0.360906 0.360915 0.360923 0.360932 0.36094 0.360948 0.360956 
0.360964 0.360972 0.360979 0.360987 0.360994 0.361001 0.361009 0.361016 0.361023 
0.36103 0.361037 0.361044 0.361051 0.361058 0.361065 0.361072 0.361079 0.361085 
0.361092 0.361099 0.361106 0.361112 0.361119 0.361126 0.361133 0.361139 0.361146 
0.361153 0.361159 0.361166 0.361173 0.361179 0.361186 0.361192 0.361198 0.361189 
0.361167 0.359874 0.357378 0.354158 0.340037 0.34011 0.340182 0.340254 0.340325 
0.340396 0.340467 0.340537 0.340607 0.340675 0.340742 0.340807 0.340871 0.340932 
0.34099 0.341046 0.341098 0.341146 0.341189 0.341228 0.341263 0.341291 0.341315 
0.341333 0.341344 0.34135 0.341349 0.341341 0.341328 0.341307 0.341281 0.341247 
0.341207 0.341161 0.341108 0.34105 0.340986 0.340916 0.340842 0.340763 0.34068 
0.340594 0.340504 0.340413 0.340319 0.340225 0.340131 0.340037 0.339945 0.339856 
0.339769 0.339688 0.339611 0.339541 0.339478 0.339423 0.339377 0.33934 0.339314 
0.339298 0.339292 0.339297 0.339313 0.339338 0.339371 0.339413 0.339462 0.339516 
0.339575 0.339637 0.339702 0.339768 0.339833 0.339898 0.339962 0.340023 0.340082 
0.340138 0.340191 0.340243 0.340293 0.340343 0.340394 0.340447 0.340505 0.340569 
0.340641 0.340723 0.340817 0.340924 0.341045 0.341182 0.341333 0.341499 0.341679 
0.341871 0.342073 0.342282 0.342497 0.342713 0.342928 0.34314 0.343345 0.343541 
0.343727 0.3439 0.344059 0.344203 0.344331 0.344442 0.344536 0.344614 0.344675 
0.34472 0.34475 0.344766 0.344768 0.344758 0.344738 0.344707 0.344667 0.34462 
0.344566 0.344506 0.344442 0.344373 0.344302 0.344228 0.344152 0.344076 0.343998 
0.343921 0.343844 0.343767 0.343691 0.343615 0.34354 0.343466 0.343393 0.343321 
0.343249 0.343179 0.34311 0.343043 0.342978 0.342915 0.342856 0.342801 0.34275 
0.342705 0.342665 0.342631 0.342604 0.342584 0.342571 0.342564 0.342563 0.342567 
0.342577 0.34259 0.342605 0.342623 0.342642 0.342662 0.342682 0.342702 0.342722 
0.342741 0.342761 0.342782 0.342804 0.342828 0.342855 0.342887 0.342924 0.342967 
0.343018 0.343079 0.34315 0.343234 0.343332 0.343446 0.343579 0.343733 0.34391 
0.344113 0.344343 0.344606 0.344901 0.345232 0.345602 0.346012 0.346462 0.346953 
0.347486 0.348058 0.348663 0.349298 0.349961 0.352011 0.352698 0.354614 0.355191 
0.355728 0.356225 0.356681 0.357097 0.357474 0.357815 0.358121 0.358397 0.358644 
0.358866 0.359065 0.359243 0.359402 0.359545 0.359673 0.359788 0.359892 0.359985 
0.360069 0.360144 0.360212 0.360274 0.36033 0.36038 0.360426 0.360468 0.360506 
0.360541 0.360572 0.360602 0.360628 0.360653 0.360676 0.360697 0.360717 0.360735 
0.360752 0.360768 0.360783 0.360797 0.36081 0.360823 0.360835 0.360846 0.360857 
0.360868 0.360878 0.360888 0.360897 0.360906 0.360915 0.360924 0.360932 0.36094 
0.360948 0.360956 0.360964 0.360972 0.360979 0.360987 0.360994 0.361002 0.361009 
0.361016 0.361023 0.36103 0.361037 0.361044 0.361051 0.361058 0.361065 0.361072 
0.361079 0.361085 0.361092 0.361099 0.361106 0.361113 0.361119 0.361126 0.361133 
0.361139 0.361146 0.361153 0.361159 0.361166 0.361173 0.361179 0.361186 0.361192 
0.361198 0.361189 0.361167 0.359874 0.357378 0.354158 0.340037 0.340109 0.340181 
0.340253 0.340324 0.340396 0.340467 0.340538 0.340608 0.340677 0.340745 0.340811 
0.340876 0.340938 0.340998 0.341055 0.341108 0.341157 0.341202 0.341242 0.341277 
0.341307 0.341331 0.341349 0.341361 0.341367 0.341366 0.341359 0.341345 0.341324 
0.341297 0.341263 0.341222 0.341175 0.341121 0.341061 0.340995 0.340924 0.340848 
0.340767 0.340682 0.340594 0.340502 0.340408 0.340313 0.340216 0.34012 0.340024 
0.339929 0.339837 0.339748 0.339664 0.339586 0.339513 0.339449 0.339392 0.339345 
0.339308 0.339282 0.339266 0.339261 0.339267 0.339284 0.339312 0.339348 0.339392 
0.339444 0.339502 0.339564 0.339629 0.339697 0.339765 0.339834 0.3399 0.339965 
0.340027 0.340086 0.340141 0.340193 0.340242 0.34029 0.340336 0.340383 0.340432 
0.340485 0.340544 0.340611 0.340689 0.340779 0.340883 0.341002 0.341137 0.341289 
0.341456 0.341639 0.341835 0.342041 0.342256 0.342476 0.342699 0.342921 0.343139 
0.34335 0.343553 0.343744 0.343922 0.344086 0.344233 0.344364 0.344478 0.344573 
0.344652 0.344713 0.344758 0.344786 0.344801 0.344801 0.344789 0.344765 0.344732 
0.34469 0.344639 0.344582 0.34452 0.344452 0.344381 0.344308 0.344232 0.344154 
0.344076 0.343998 0.343919 0.343841 0.343764 0.343687 0.343611 0.343536 0.343461 
0.343388 0.343315 0.343243 0.343172 0.343102 0.343034 0.342967 0.342904 0.342843 
0.342786 0.342734 0.342687 0.342646 0.342612 0.342585 0.342565 0.342552 0.342547 
0.342548 0.342554 0.342566 0.342582 0.3426 0.34262 0.342641 0.342662 0.342683 
0.342703 0.342722 0.342741 0.34276 0.342779 0.342799 0.342821 0.342846 0.342874 
0.342908 0.342948 0.342995 0.343051 0.343118 0.343197 0.343289 0.343397 0.343523 
0.343669 0.343837 0.344031 0.344252 0.344503 0.344788 0.345108 0.345467 0.345866 
0.346308 0.346792 0.347321 0.347891 0.3485 0.349143 0.349817 0.35193 0.352639 
0.354621 0.355214 0.355764 0.356271 0.356734 0.357154 0.357532 0.357873 0.358178 
0.358451 0.358696 0.358914 0.359109 0.359284 0.35944 0.35958 0.359705 0.359817 
0.359918 0.360008 0.36009 0.360163 0.36023 0.36029 0.360344 0.360393 0.360438 
0.360478 0.360515 0.360549 0.36058 0.360608 0.360634 0.360658 0.360681 0.360701 
0.360721 0.360738 0.360755 0.360771 0.360785 0.360799 0.360812 0.360825 0.360837 
0.360848 0.360859 0.360869 0.360879 0.360889 0.360898 0.360907 0.360916 0.360924 
0.360933 0.360941 0.360949 0.360957 0.360965 0.360972 0.36098 0.360987 0.360995 
0.361002 0.361009 0.361016 0.361023 0.36103 0.361037 0.361044 0.361051 0.361058 
0.361065 0.361072 0.361079 0.361086 0.361092 0.361099 0.361106 0.361113 0.361119 
0.361126 0.361133 0.361139 0.361146 0.361153 0.361159 0.361166 0.361173 0.361179 
0.361186 0.361192 0.361198 0.361189 0.361167 0.359874 0.357378 0.354158 0.340036 
0.340108 0.34018 0.340251 0.340323 0.340395 0.340466 0.340538 0.340609 0.340679 
0.340749 0.340817 0.340883 0.340947 0.341008 0.341066 0.341121 0.341172 0.341218 
0.34126 0.341296 0.341327 0.341353 0.341372 0.341384 0.34139 0.34139 0.341382 
0.341368 0.341347 0.341319 0.341284 0.341242 0.341193 0.341138 0.341076 0.341008 
0.340935 0.340856 0.340773 0.340685 0.340594 0.340499 0.340402 0.340304 0.340204 
0.340104 0.340005 0.339907 0.339812 0.33972 0.339633 0.339551 0.339477 0.33941 
0.339351 0.339303 0.339265 0.339238 0.339222 0.339219 0.339227 0.339246 0.339276 
0.339316 0.339365 0.33942 0.339482 0.339549 0.339619 0.339691 0.339763 0.339834 
0.339904 0.33997 0.340033 0.340092 0.340147 0.340197 0.340243 0.340287 0.340328 
0.340369 0.340412 0.340458 0.34051 0.340571 0.340642 0.340727 0.340826 0.340942 
0.341076 0.341227 0.341397 0.341584 0.341785 0.341998 0.34222 0.342449 0.34268 
0.342911 0.343137 0.343357 0.343568 0.343767 0.343952 0.344121 0.344274 0.344409 
0.344525 0.344623 0.344703 0.344764 0.344808 0.344835 0.344847 0.344845 0.344829 
0.344802 0.344765 0.344719 0.344665 0.344604 0.344537 0.344466 0.344392 0.344315 
0.344237 0.344157 0.344077 0.343996 0.343916 0.343837 0.343759 0.343682 0.343605 
0.34353 0.343455 0.343381 0.343308 0.343235 0.343163 0.343092 0.343022 0.342954 
0.342888 0.342825 0.342766 0.342712 0.342663 0.342621 0.342586 0.342558 0.342539 
0.342528 0.342524 0.342528 0.342537 0.342552 0.342571 0.342592 0.342615 0.342639 
0.342662 0.342684 0.342705 0.342724 0.342742 0.342759 0.342776 0.342793 0.342812 
0.342834 0.342858 0.342888 0.342923 0.342965 0.343016 0.343076 0.343148 0.343233 
0.343333 0.343449 0.343585 0.343742 0.343923 0.344131 0.344367 0.344637 0.344942 
0.345286 0.345671 0.3461 0.346573 0.347095 0.347663 0.348275 0.348928 0.349617 
0.351815 0.352558 0.354632 0.355248 0.355816 0.356336 0.356807 0.357232 0.357612 
0.357952 0.358254 0.358524 0.358764 0.358978 0.359169 0.359339 0.35949 0.359626 
0.359747 0.359855 0.359952 0.36004 0.360118 0.360189 0.360252 0.36031 0.360362 
0.36041 0.360453 0.360492 0.360527 0.36056 0.36059 0.360617 0.360642 0.360666 
0.360687 0.360707 0.360726 0.360743 0.360759 0.360774 0.360789 0.360802 0.360815 
0.360827 0.360839 0.36085 0.360861 0.360871 0.360881 0.36089 0.360899 0.360908 
0.360917 0.360925 0.360934 0.360942 0.36095 0.360957 0.360965 0.360973 0.36098 
0.360988 0.360995 0.361002 0.361009 0.361016 0.361023 0.361031 0.361038 0.361044 
0.361051 0.361058 0.361065 0.361072 0.361079 0.361086 0.361092 0.361099 0.361106 
0.361113 0.361119 0.361126 0.361133 0.361139 0.361146 0.361153 0.361159 0.361166 
0.361173 0.361179 0.361186 0.361192 0.361198 0.361189 0.361167 0.359874 0.357378 
0.354158 0.340036 0.340107 0.340178 0.340249 0.340321 0.340393 0.340465 0.340537 
0.34061 0.340682 0.340753 0.340823 0.340891 0.340957 0.34102 0.341081 0.341138 
0.341191 0.341239 0.341283 0.341321 0.341353 0.34138 0.3414 0.341413 0.34142 
0.341419 0.341412 0.341397 0.341376 0.341347 0.34131 0.341267 0.341216 0.341159 
0.341095 0.341024 0.340948 0.340866 0.34078 0.340689 0.340594 0.340496 0.340395 
0.340292 0.340189 0.340085 0.339982 0.33988 0.33978 0.339685 0.339594 0.339508 
0.33943 0.33936 0.339299 0.339249 0.339209 0.339182 0.339167 0.339165 0.339175 
0.339198 0.339232 0.339276 0.339329 0.339391 0.339458 0.339531 0.339606 0.339683 
0.339761 0.339836 0.339909 0.339978 0.340043 0.340102 0.340155 0.340203 0.340246 
0.340284 0.340319 0.340353 0.340387 0.340424 0.340468 0.34052 0.340583 0.340661 
0.340754 0.340866 0.340997 0.341149 0.341321 0.341512 0.34172 0.341942 0.342175 
0.342414 0.342656 0.342898 0.343136 0.343366 0.343587 0.343796 0.343989 0.344166 
0.344325 0.344465 0.344585 0.344686 0.344766 0.344828 0.344871 0.344896 0.344905 
0.344899 0.34488 0.344848 0.344806 0.344755 0.344695 0.344629 0.344558 0.344483 
0.344405 0.344324 0.344242 0.344159 0.344076 0.343994 0.343912 0.343832 0.343753 
0.343675 0.343598 0.343522 0.343448 0.343373 0.343299 0.343226 0.343153 0.34308 
0.343008 0.342937 0.342868 0.342803 0.342741 0.342684 0.342632 0.342588 0.342552 
0.342524 0.342505 0.342496 0.342495 0.342502 0.342515 0.342535 0.342558 0.342584 
0.342611 0.342637 0.342663 0.342687 0.342709 0.342727 0.342743 0.342759 0.342773 
0.342787 0.342802 0.342819 0.342839 0.342863 0.342892 0.342928 0.342972 0.343026 
0.343089 0.343165 0.343255 0.34336 0.343482 0.343625 0.343791 0.343981 0.3442 
0.34445 0.344735 0.345059 0.345424 0.345836 0.346294 0.346804 0.347367 0.347981 
0.348644 0.349353 0.351661 0.352449 0.354648 0.355294 0.355886 0.356422 0.356904 
0.357333 0.357714 0.358052 0.358352 0.358617 0.358851 0.359059 0.359243 0.359407 
0.359553 0.359682 0.359798 0.359902 0.359995 0.360078 0.360153 0.36022 0.360281 
0.360335 0.360385 0.36043 0.360471 0.360508 0.360542 0.360573 0.360602 0.360628 
0.360652 0.360674 0.360695 0.360714 0.360732 0.360749 0.360764 0.360779 0.360793 
0.360806 0.360819 0.36083 0.360842 0.360852 0.360863 0.360873 0.360882 0.360892 
0.360901 0.360909 0.360918 0.360926 0.360934 0.360942 0.36095 0.360958 0.360966 
0.360973 0.360981 0.360988 0.360995 0.361002 0.36101 0.361017 0.361024 0.361031 
0.361038 0.361045 0.361052 0.361058 0.361065 0.361072 0.361079 0.361086 0.361092 
0.361099 0.361106 0.361113 0.361119 0.361126 0.361133 0.361139 0.361146 0.361153 
0.361159 0.361166 0.361173 0.361179 0.361186 0.361192 0.361198 0.361189 0.361167 
0.359874 0.357378 0.354158 0.340035 0.340105 0.340175 0.340246 0.340317 0.34039 
0.340463 0.340536 0.34061 0.340684 0.340757 0.340829 0.3409 0.340969 0.341035 
0.341098 0.341157 0.341213 0.341264 0.341309 0.34135 0.341384 0.341412 0.341433 
0.341448 0.341455 0.341455 0.341447 0.341433 0.34141 0.34138 0.341342 0.341297 
0.341244 0.341184 0.341117 0.341043 0.340964 0.340878 0.340788 0.340693 0.340594 
0.340491 0.340386 0.340279 0.34017 0.340062 0.339953 0.339847 0.339742 0.339642 
0.339546 0.339456 0.339373 0.339299 0.339235 0.339182 0.339142 0.339114 0.339099 
0.339099 0.339112 0.339138 0.339177 0.339227 0.339287 0.339355 0.33943 0.339509 
0.339592 0.339676 0.339759 0.33984 0.339917 0.33999 0.340056 0.340116 0.340168 
0.340213 0.340251 0.340283 0.340311 0.340335 0.340359 0.340385 0.340417 0.340458 
0.340511 0.340579 0.340665 0.340771 0.340899 0.341051 0.341228 0.341426 0.341643 
0.341875 0.342119 0.342371 0.342627 0.342883 0.343134 0.343378 0.343611 0.34383 
0.344034 0.34422 0.344387 0.344533 0.344657 0.344761 0.344843 0.344905 0.344947 
0.34497 0.344975 0.344965 0.34494 0.344902 0.344854 0.344797 0.344731 0.344659 
0.344582 0.344502 0.344418 0.344333 0.344247 0.34416 0.344075 0.34399 0.343906 
0.343824 0.343744 0.343666 0.343589 0.343513 0.343438 0.343364 0.34329 0.343215 
0.343141 0.343066 0.342991 0.342918 0.342845 0.342776 0.34271 0.342649 0.342595 
0.342548 0.34251 0.342481 0.342463 0.342456 0.342458 0.342469 0.342489 0.342514 
0.342543 0.342575 0.342607 0.342638 0.342667 0.342692 0.342713 0.342732 0.342747 
0.34276 0.34277 0.34278 0.34279 0.342802 0.342816 0.342834 0.342857 0.342886 
0.342922 0.342967 0.343021 0.343086 0.343164 0.343255 0.343363 0.343489 0.343636 
0.343806 0.344002 0.344229 0.344488 0.344786 0.345127 0.345513 0.34595 0.346442 
0.346994 0.347606 0.34828 0.349012 0.351459 0.352309 0.354673 0.355358 0.355979 
0.356534 0.357026 0.35746 0.357842 0.358176 0.35847 0.358729 0.358956 0.359156 
0.359332 0.359488 0.359627 0.35975 0.35986 0.359957 0.360045 0.360123 0.360193 
0.360257 0.360314 0.360365 0.360412 0.360454 0.360493 0.360528 0.36056 0.360589 
0.360616 0.360641 0.360664 0.360685 0.360704 0.360723 0.36074 0.360756 0.360771 
0.360785 0.360798 0.360811 0.360822 0.360834 0.360845 0.360855 0.360865 0.360875 
0.360884 0.360893 0.360902 0.360911 0.360919 0.360928 0.360936 0.360943 0.360951 
0.360959 0.360966 0.360974 0.360981 0.360988 0.360996 0.361003 0.36101 0.361017 
0.361024 0.361031 0.361038 0.361045 0.361052 0.361059 0.361065 0.361072 0.361079 
0.361086 0.361093 0.361099 0.361106 0.361113 0.361119 0.361126 0.361133 0.361139 
0.361146 0.361153 0.361159 0.361166 0.361173 0.361179 0.361186 0.361192 0.361198 
0.361189 0.361167 0.359874 0.357378 0.354158 0.340034 0.340102 0.340171 0.340241 
0.340313 0.340385 0.34046 0.340535 0.34061 0.340686 0.340762 0.340837 0.34091 
0.340982 0.341051 0.341117 0.34118 0.341238 0.341292 0.341341 0.341383 0.34142 
0.34145 0.341472 0.341488 0.341496 0.341496 0.341489 0.341474 0.34145 0.341419 
0.341379 0.341332 0.341276 0.341213 0.341143 0.341066 0.340982 0.340892 0.340797 
0.340697 0.340593 0.340486 0.340375 0.340263 0.340149 0.340034 0.33992 0.339807 
0.339697 0.339591 0.339489 0.339393 0.339306 0.339227 0.339159 0.339103 0.33906 
0.339032 0.339018 0.339019 0.339036 0.339067 0.339112 0.339169 0.339237 0.339313 
0.339396 0.339485 0.339576 0.339668 0.339759 0.339846 0.339929 0.340006 0.340074 
0.340135 0.340186 0.340228 0.340261 0.340286 0.340303 0.340316 0.340328 0.34034 
0.340358 0.340385 0.340425 0.340483 0.340561 0.34066 0.340785 0.34094 0.341122 
0.341329 0.341557 0.341803 0.342061 0.342328 0.342598 0.342869 0.343135 0.343393 
0.343639 0.343872 0.344087 0.344283 0.344458 0.344611 0.344741 0.344848 0.344932 