# vtk DataFile Version 5.1
vtk output
ASCII
DATASET UNSTRUCTURED_GRID
POINTS 10043 double
-10.1 1.4499999993 -6.5110748437e-07 -10.049999999 1.4499999993 -4.742580586e-07 -10.049999999 1.5 1.7679119537e-06 
-9.9999999985 1.4499999993 -4.035521215e-07 -9.9999999985 1.5 1.5303246528e-06 -9.9499999978 1.4499999993 -3.6664664549e-07 
-9.9499999978 1.5 1.3956757812e-06 -9.899999997 1.4499999993 -3.4299978324e-07 -9.899999997 1.5 1.3077440144e-06 
-9.8499999963 1.4499999993 -3.2643606573e-07 -9.8499999963 1.5 1.2454199805e-06 -9.7999999955 1.4499999993 -3.1417971513e-07 
-9.7999999955 1.5 1.1994832221e-06 -9.7499999948 1.4499999993 -3.0487740332e-07 -9.7499999948 1.5 1.1643348898e-06 
-9.699999994 1.4499999993 -2.9767784326e-07 -9.699999994 1.5 1.1368626929e-06 -9.6499999933 1.4499999993 -2.9196075957e-07 
-9.6499999933 1.5 1.1152694697e-06 -9.5999999925 1.4499999993 -2.8744966585e-07 -9.5999999925 1.5 1.0980974139e-06 
-9.5499999918 1.4499999993 -2.8384442885e-07 -9.5499999918 1.5 1.084492169e-06 -9.4999999911 1.4499999993 -2.8108138395e-07 
-9.4999999911 1.5 1.0737182947e-06 -9.4499999903 1.4499999993 -2.7887858778e-07 -9.4499999903 1.5 1.065432798e-06 
-9.3999999896 1.4499999993 -2.7716146178e-07 -9.3999999896 1.5 1.0590517832e-06 -9.3499999888 1.4499999993 -2.7598093766e-07 
-9.3499999888 1.5 1.0543515145e-06 -9.2999999881 1.4499999993 -2.7515329748e-07 -9.2999999881 1.5 1.0511701021e-06 
-9.2499999873 1.4499999993 -2.7466580832e-07 -9.2499999873 1.5 1.0493238278e-06 -9.1999999866 1.4499999993 -2.7437295103e-07 
-9.1999999866 1.5 1.0485216535e-06 -9.1499999858 1.4499999993 -2.7442388273e-07 -9.1499999858 1.5 1.048774493e-06 
-9.0999999851 1.4499999993 -2.7480405151e-07 -9.0999999851 1.5 1.0498367828e-06 -9.0499999844 1.4499999993 -2.7528062674e-07 
-9.0499999844 1.5 1.0519904663e-06 -8.9999999836 1.4499999993 -2.7602095543e-07 -8.9999999836 1.5 1.0547626061e-06 
-8.9499999829 1.4499999993 -2.7695955396e-07 -8.9499999829 1.5 1.0582023151e-06 -8.8999999821 1.4499999993 -2.7799637792e-07 
-8.8999999821 1.5 1.062340516e-06 -8.8499999814 1.4499999993 -2.7923329071e-07 -8.8499999814 1.5 1.0671772088e-06 
-8.7999999806 1.4499999993 -2.8065028346e-07 -8.7999999806 1.5 1.0724395452e-06 -8.7499999799 1.4499999993 -2.8220915738e-07 
-8.7499999799 1.5 1.078471314e-06 -8.6999999791 1.4499999993 -2.8303134059e-07 -8.6999999791 1.5 1.0816945633e-06 
-8.6499999784 1.4499999993 -2.8484123504e-07 -8.6499999784 1.5 1.0884848507e-06 -8.5999999776 1.4499999993 -2.8673844099e-07 
-8.5999999776 1.5 1.0957735412e-06 -8.5499999769 1.4499999993 -2.8880026548e-07 -8.5499999769 1.5 1.1035178886e-06 
-8.4999999762 1.4499999993 -2.9096577236e-07 -8.4999999762 1.5 1.1117933809e-06 -8.4499999754 1.4499999993 -2.9324132811e-07 
-8.4499999754 1.5 1.1205809187e-06 -8.3999999747 1.4499999993 -2.9567786441e-07 -8.3999999747 1.5 1.1297249785e-06 
-8.3499999739 1.4499999993 -2.9820262171e-07 -8.3499999739 1.5 1.1394256489e-06 -8.2999999732 1.4499999993 -3.0080650504e-07 
-8.2999999732 1.5 1.1496074421e-06 -8.2499999724 1.4499999993 -3.0361775316e-07 -8.2499999724 1.5 1.1601848655e-06 
-8.1999999717 1.4499999993 -3.0648629945e-07 -8.1999999717 1.5 1.1712370451e-06 -8.1499999709 1.4499999993 -3.0947944651e-07 
-8.1499999709 1.5 1.1827439721e-06 -8.0999999702 1.4499999993 -3.1259810385e-07 -8.0999999702 1.5 1.1947211078e-06 
-8.0499999695 1.4499999993 -3.1591321203e-07 -8.0499999695 1.5 1.2071129731e-06 -7.9999999687 1.4499999993 -3.19266519e-07 
-7.9999999687 1.5 1.2200305264e-06 -7.949999968 1.4499999993 -3.2275534068e-07 -7.949999968 1.5 1.2334264738e-06 
-7.8999999672 1.4499999993 -3.2638240555e-07 -7.8999999672 1.5 1.2472471553e-06 -7.8499999665 1.4499999993 -3.3012861422e-07 
-7.8499999665 1.5 1.2616045524e-06 -7.7999999657 1.4499999993 -3.3401397559e-07 -7.7999999657 1.5 1.2764364783e-06 
-7.749999965 1.4499999993 -3.3799665289e-07 -7.749999965 1.5 1.2917814729e-06 -7.6999999642 1.4499999993 -3.4214758671e-07 
-7.6999999642 1.5 1.3075584775e-06 -7.6499999635 1.4499999993 -3.4645495361e-07 -7.6499999635 1.5 1.3239803138e-06 
-7.5999999627 1.4499999993 -3.5084690353e-07 -7.5999999627 1.5 1.3407868664e-06 -7.549999962 1.4499999993 -3.5546349864e-07 
-7.549999962 1.5 1.3582655356e-06 -7.4999999613 1.4499999993 -3.6018104765e-07 -7.4999999613 1.5 1.376303544e-06 
-7.4499999605 1.4499999993 -3.6505957723e-07 -7.4499999605 1.5 1.3948972537e-06 -7.3999999598 1.4499999993 -3.7002450881e-07 
-7.3999999598 1.5 1.4140202893e-06 -7.349999959 1.4499999993 -3.7520044316e-07 -7.349999959 1.5 1.4338718302e-06 
-7.2999999583 1.4499999993 -3.8055918594e-07 -7.2999999583 1.5 1.4542872577e-06 -7.2499999575 1.4499999993 -3.8607890929e-07 
-7.2499999575 1.5 1.475349336e-06 -7.1999999568 1.4499999993 -3.9182418732e-07 -7.1999999568 1.5 1.4971562905e-06 
-7.149999956 1.4499999993 -3.9767678572e-07 -7.149999956 1.5 1.5195507785e-06 -7.0999999553 1.4499999993 -4.0066356632e-07 
-7.0999999553 1.5 1.5310176877e-06 -7.0499999546 1.4499999993 -4.0681811697e-07 -7.0499999546 1.5 1.5546127088e-06 
-6.9999999538 1.4499999993 -4.1320640776e-07 -6.9999999538 1.5 1.578864385e-06 -6.9499999531 1.4499999993 -4.1973021325e-07 
-6.9499999531 1.5 1.6039928141e-06 -6.8999999523 1.4499999993 -4.2655142352e-07 -6.8999999523 1.5 1.6298988612e-06 
-6.8499999516 1.4499999993 -4.3358090807e-07 -6.8499999516 1.5 1.6566116301e-06 -6.7999999508 1.4499999993 -4.4074954531e-07 
-6.7999999508 1.5 1.6843084722e-06 -6.7499999501 1.4499999993 -4.4825105761e-07 -6.7499999501 1.5 1.7128643321e-06 
-6.6999999493 1.4499999993 -4.5597448661e-07 -6.6999999493 1.5 1.7424297312e-06 -6.6499999486 1.4499999993 -4.6396485232e-07 
-6.6499999486 1.5 1.7729564661e-06 -6.5999999478 1.4499999993 -4.7226171773e-07 -6.5999999478 1.5 1.8045377601e-06 
-6.5499999471 1.4499999993 -4.8081324167e-07 -6.5499999471 1.5 1.837251375e-06 -6.4999999464 1.4499999993 -4.8966717259e-07 
-6.4999999464 1.5 1.8710959466e-06 -6.4499999456 1.4499999993 -4.9884579312e-07 -6.4499999456 1.5 1.906130592e-06 
-6.3999999449 1.4499999993 -5.0834864851e-07 -6.3999999449 1.5 1.9424294351e-06 -6.3499999441 1.4499999993 -5.1820029512e-07 
-6.3499999441 1.5 1.9800402242e-06 -6.2999999434 1.4499999993 -5.2840118769e-07 -6.2999999434 1.5 2.0190702799e-06 
-6.2499999426 1.4499999993 -5.3899043451e-07 -6.2499999426 1.5 2.0595432488e-06 -6.1999999419 1.4499999993 -5.5000532484e-07 
-6.1999999419 1.5 2.1015418952e-06 -6.1499999411 1.4499999993 -5.6141448113e-07 -6.1499999411 1.5 2.1452076453e-06 
-6.0999999404 1.4499999993 -5.7329748415e-07 -6.0999999404 1.5 2.1905323138e-06 -6.0499999397 1.4499999993 -5.8564523897e-07 
-6.0499999397 1.5 2.2376837023e-06 -5.9999999389 1.4499999993 -5.9848593992e-07 -5.9999999389 1.5 2.2867909593e-06 
-5.9499999382 1.4499999993 -6.1184687183e-07 -5.9499999382 1.5 2.3378609058e-06 -5.8999999374 1.4499999993 -6.2579488258e-07 
-5.8999999374 1.5 2.3911131848e-06 -5.8499999367 1.4499999993 -6.4033088165e-07 -5.8499999367 1.5 2.4466351078e-06 
-5.7999999359 1.4499999993 -6.5552035267e-07 -5.7999999359 1.5 2.5046058454e-06 -5.7499999352 1.4499999993 -6.7138785198e-07 
-5.7499999352 1.5 2.5651422675e-06 -5.6999999344 1.4499999993 -6.8796202868e-07 -5.6999999344 1.5 2.6284953947e-06 
-5.6499999337 1.4499999993 -7.052865385e-07 -5.6499999337 1.5 2.6947529932e-06 -5.5999999329 1.4499999993 -7.2349553193e-07 
-5.5999999329 1.5 2.7641897304e-06 -5.5499999322 1.4499999993 -7.3291926128e-07 -5.5499999322 1.5 2.8001702503e-06 
-5.4999999315 1.4499999993 -7.5245293374e-07 -5.4999999315 1.5 2.8747879242e-06 -5.4499999307 1.4499999993 -7.7296976997e-07 
-5.4499999307 1.5 2.9531895507e-06 -5.39999993 1.4499999993 -7.9458595792e-07 -5.39999993 1.5 3.0356638945e-06 
-5.3499999292 1.4499999993 -8.173299193e-07 -5.3499999292 1.5 3.1225681596e-06 -5.2999999285 1.4499999993 -8.413278465e-07 
-5.2999999285 1.5 3.2142240798e-06 -5.2499999277 1.4499999993 -8.6668546828e-07 -5.2499999277 1.5 3.3110475215e-06 
-5.199999927 1.4499999993 -8.9354170996e-07 -5.199999927 1.5 3.4135091482e-06 -5.1499999262 1.4499999993 -9.2199002211e-07 
-5.1499999262 1.5 3.5221303278e-06 -5.0999999255 1.4499999993 -9.5219229479e-07 -5.0999999255 1.5 3.6374453884e-06 
-5.0499999247 1.4499999993 -9.8431746665e-07 -5.0499999247 1.5 3.7601485019e-06 -4.999999924 1.4499999993 -1.0185947303e-06 
-4.999999924 1.5 3.8909161049e-06 -4.9499999233 1.4499999993 -1.0551846117e-06 -4.9499999233 1.5 4.0306472329e-06 
-4.8999999225 1.4499999993 -1.0943685993e-06 -4.8999999225 1.5 4.1802341002e-06 -4.8499999218 1.4499999993 -1.1364654711e-06 
-4.8499999218 1.5 4.3407562771e-06 -4.799999921 1.4499999993 -1.1817196537e-06 -4.799999921 1.5 4.5135006985e-06 
-4.7499999203 1.4499999993 -1.2305599739e-06 -4.7499999203 1.5 4.6998593461e-06 -4.6999999195 1.4499999993 -1.283410711e-06 
-4.6999999195 1.5 4.9014583965e-06 -4.6499999188 1.4499999993 -1.3407670849e-06 -4.6499999188 1.5 5.1202009672e-06 
-4.599999918 1.4499999993 -1.4031663795e-06 -4.599999918 1.5 5.3582434703e-06 -4.5499999173 1.4499999993 -1.4712975371e-06 
-4.5499999173 1.5 5.6180747379e-06 -4.4999999166 1.4499999993 -1.5458783764e-06 -4.4999999166 1.5 5.9025178416e-06 
-4.4499999158 1.4499999993 -1.627789743e-06 -4.4499999158 1.5 6.2148028519e-06 -4.3999999151 1.4499999993 -1.7179445422e-06 
-4.3999999151 1.5 6.5585095399e-06 -4.3499999143 1.4499999993 -1.8173378749e-06 -4.3499999143 1.5 6.9374714258e-06 
-4.2999999136 1.4499999993 -1.9269762106e-06 -4.2999999136 1.5 7.3554924711e-06 -4.2499999128 1.4499999993 -2.0476709324e-06 
-4.2499999128 1.5 7.8158309407e-06 -4.1999999121 1.4499999993 -2.1797031877e-06 -4.1999999121 1.5 8.3197892309e-06 
-4.1499999113 1.4499999993 -2.3220243293e-06 -4.1499999113 1.5 8.8640254035e-06 -4.0999999106 1.4499999993 -2.4705921078e-06 
-4.0999999106 1.5 9.4343968158e-06 -4.0499999098 1.4499999993 -2.6144921321e-06 -4.0499999098 1.5 9.9926628536e-06 
-3.9999999091 1.4499999993 -2.7268406484e-06 -3.9999999091 1.5 1.0444807231e-05 -3.9499999084 1.4499999993 -2.7532391869e-06 
[...]
CELL_DATA 9510
FIELD FieldData 4
Water_Depth_m 1 9510 float
0.640004 0.640013 0.640021 0.64003 0.640039 0.640049 0.64006 0.640071 0.640084 
0.640098 0.640112 0.640128 0.640144 0.640161 0.640178 0.640195 0.640212 0.64023 
0.640246 0.640263 0.640278 0.640293 0.640306 0.640318 0.640329 0.640337 0.640344 
0.640349 0.640352 0.640353 0.640351 0.640347 0.640341 0.640332 0.64032 0.640306 
0.640289 0.640269 0.640246 0.64022 0.640192 0.64016 0.640126 0.640088 0.640049 
0.640007 0.639962 0.639916 0.639869 0.639821 0.639772 0.639724 0.639676 0.63963 
0.639587 0.639547 0.639512 0.639482 0.639457 0.639439 0.639429 0.639426 0.639431 
0.639444 0.639465 0.639494 0.639531 0.639574 0.639624 0.639679 0.639738 0.639801 
0.639867 0.639934 0.640001 0.640068 0.640134 0.640198 0.640259 0.640316 0.640371 
0.640421 0.640467 0.640509 0.640546 0.64058 0.640608 0.640633 0.640653 0.64067 
0.640684 0.640694 0.640701 0.640706 0.640708 0.640708 0.640707 0.640704 0.640701 
0.640697 0.640692 0.640689 0.640685 0.640683 0.640683 0.640685 0.640689 0.640696 
0.640706 0.64072 0.640739 0.640762 0.64079 0.640824 0.640863 0.640908 0.640959 
0.641016 0.641079 0.641147 0.64122 0.641297 0.641377 0.641459 0.641541 0.64162 
0.641711 0.641872 0.642299 0.641704 0.623973 0.586282 0.540422 0.494495 0.455986 
0.42406 0.394748 0.364355 0.329087 0.292017 0.258352 0.232125 0.217113 0.213671 
0.218784 0.225739 0.23266 0.238882 0.246527 0.251673 0.255318 0.260597 0.266429 
0.273916 0.28292 0.292989 0.305176 0.315198 0.325321 0.33737 0.343004 0.342645 
0.336794 0.32473 0.321428 0.32984 0.336526 0.341447 0.347173 0.353567 0.360634 
0.367361 0.373587 0.380213 0.387057 0.394648 0.402126 0.409493 0.416362 0.423967 
0.433175 0.442629 0.449578 0.455904 0.462121 0.468625 0.475556 0.482968 0.488388 
0.493405 0.497443 0.503661 0.512985 0.515917 0.517215 0.519521 0.519777 0.517048 
0.479535 0.464125 0.451502 0.438887 0.427018 0.407844 0.384714 0.367786 0.364471 
0.365303 0.36526 0.36381 0.363689 0.363688 0.360239 0.356523 0.356551 0.356583 
0.356616 0.35665 0.356682 0.356713 0.356743 0.356771 0.356797 0.356822 0.356845 
0.356866 0.356886 0.356905 0.356922 0.356938 0.356953 0.356967 0.35698 0.356992 
0.357003 0.357013 0.357023 0.357032 0.35704 0.357048 0.357056 0.357063 0.357069 
0.357075 0.357081 0.357087 0.357092 0.357097 0.357102 0.357107 0.357111 0.357116 
0.35712 0.357124 0.357128 0.357132 0.357135 0.357139 0.357142 0.357146 0.357149 
0.357152 0.357155 0.357158 0.357161 0.357164 0.357167 0.35717 0.357173 0.357176 
0.357179 0.357181 0.357184 0.357187 0.35719 0.357192 0.357195 0.357197 0.3572 
0.357202 0.357205 0.357208 0.35721 0.357213 0.357215 0.357217 0.35722 0.357222 
0.357224 0.357226 0.35721 0.357181 0.355771 0.353323 0.35017 0.640005 0.640012 
0.64002 0.640029 0.640038 0.640048 0.640059 0.64007 0.640083 0.640096 0.640111 
0.640126 0.640143 0.640159 0.640177 0.640194 0.640212 0.640229 0.640246 0.640263 
0.640279 0.640294 0.640307 0.640319 0.64033 0.640339 0.640346 0.640351 0.640354 
0.640355 0.640354 0.64035 0.640344 0.640335 0.640323 0.640308 0.640291 0.640271 
0.640248 0.640222 0.640193 0.640161 0.640126 0.640089 0.640048 0.640006 0.639961 
0.639914 0.639866 0.639817 0.639768 0.639719 0.639671 0.639625 0.639581 0.639541 
0.639505 0.639474 0.639449 0.639431 0.639421 0.639418 0.639423 0.639436 0.639458 
0.639487 0.639524 0.639568 0.639618 0.639674 0.639734 0.639798 0.639864 0.639931 
0.639999 0.640067 0.640133 0.640198 0.640259 0.640317 0.640372 0.640423 0.640469 
0.640511 0.640549 0.640582 0.640611 0.640636 0.640656 0.640673 0.640686 0.640696 
0.640703 0.640708 0.64071 0.64071 0.640708 0.640705 0.640701 0.640697 0.640693 
0.640688 0.640685 0.640682 0.640682 0.640683 0.640686 0.640693 0.640703 0.640717 
0.640735 0.640758 0.640786 0.640819 0.640858 0.640903 0.640954 0.641011 0.641074 
0.641142 0.641215 0.641293 0.641375 0.641458 0.641543 0.641625 0.641702 0.64176 
0.64192 0.64148 0.623825 0.584726 0.535083 0.485456 0.445716 0.414091 0.385732 
0.356082 0.321989 0.285732 0.252772 0.228846 0.214902 0.220928 0.231676 0.238456 
0.242207 0.246356 0.250356 0.256241 0.263194 0.269278 0.274692 0.280557 0.28672 
0.292034 0.302491 0.31373 0.326914 0.349219 0.386823 0.412599 0.392024 0.342459 
0.333674 0.343776 0.350272 0.354432 0.356603 0.359996 0.364991 0.371353 0.379975 
0.388161 0.395799 0.40393 0.410154 0.417512 0.421726 0.427557 0.43456 0.442511 
0.451945 0.4602 0.462931 0.467245 0.469197 0.47391 0.481464 0.4895 0.493189 
0.496616 0.503653 0.510019 0.510629 0.50972 0.512715 0.514346 0.47447 0.463953 
0.458199 0.449687 0.441352 0.428445 0.408531 0.385671 0.367732 0.366875 0.366802 
0.36476 0.36373 0.363722 0.360159 0.356521 0.356554 0.356585 0.356618 0.356652 
0.356685 0.356716 0.356746 0.356774 0.3568 0.356825 0.356848 0.356869 0.356889 
0.356908 0.356925 0.356941 0.356955 0.356969 0.356982 0.356994 0.357004 0.357015 
0.357024 0.357033 0.357042 0.357049 0.357057 0.357064 0.35707 0.357076 0.357082 
0.357088 0.357093 0.357098 0.357103 0.357108 0.357112 0.357116 0.357121 0.357125 
0.357128 0.357132 0.357136 0.357139 0.357143 0.357146 0.357149 0.357153 0.357156 
0.357159 0.357162 0.357165 0.357168 0.357171 0.357174 0.357176 0.357179 0.357182 
0.357185 0.357187 0.35719 0.357193 0.357195 0.357198 0.3572 0.357203 0.357205 
0.357208 0.35721 0.357213 0.357215 0.357218 0.35722 0.357223 0.357225 0.357227 
0.357211 0.357182 0.355771 0.353324 0.35017 0.640004 0.640011 0.640019 0.640027 
0.640036 0.640045 0.640055 0.640067 0.64008 0.640093 0.640108 0.640123 0.64014 
0.640157 0.640174 0.640192 0.64021 0.640228 0.640246 0.640263 0.640279 0.640295 
0.640309 0.640322 0.640333 0.640342 0.64035 0.640355 0.640359 0.64036 0.640359 
0.640355 0.640348 0.640339 0.640328 0.640313 0.640295 0.640275 0.640251 0.640225 
0.640195 0.640162 0.640127 0.640088 0.640047 0.640003 0.639957 0.639909 0.63986 
0.63981 0.639759 0.639709 0.639659 0.639612 0.639567 0.639526 0.639489 0.639457 
0.639432 0.639414 0.639403 0.6394 0.639405 0.639419 0.639441 0.639471 0.639509 
0.639553 0.639605 0.639662 0.639724 0.639789 0.639856 0.639925 0.639995 0.640064 
0.640131 0.640197 0.640259 0.640319 0.640374 0.640425 0.640472 0.640515 0.640553 
0.640586 0.640616 0.64064 0.640661 0.640678 0.640691 0.640701 0.640707 0.640711 
0.640713 0.640712 0.64071 0.640706 0.640702 0.640697 0.640691 0.640686 0.640682 
0.640678 0.640676 0.640677 0.640679 0.640685 0.640694 0.640707 0.640724 0.640746 
0.640773 0.640806 0.640844 0.640888 0.640939 0.640995 0.641058 0.641127 0.641201 
0.64128 0.641364 0.641451 0.64154 0.641629 0.641717 0.641792 0.64205 0.6415 
0.623095 0.58218 0.529883 0.478421 0.436378 0.404217 0.376571 0.348348 0.315868 
0.280799 0.249153 0.225339 0.220325 0.228734 0.239152 0.246171 0.250312 0.254557 
0.259325 0.265553 0.272974 0.280281 0.287048 0.291754 0.294493 0.297028 0.300691 
0.309677 0.326232 0.34782 0.379121 0.397134 0.381854 0.343416 0.347929 0.355918 
0.362684 0.366803 0.36695 0.370303 0.376949 0.385377 0.394801 0.40369 0.410847 
0.417753 0.423187 0.428707 0.436113 0.443224 0.450609 0.459241 0.466838 0.473167 
0.474425 0.475958 0.483811 0.492842 0.499372 0.505325 0.513301 0.521643 0.525322 
0.527148 0.527317 0.530797 0.53439 0.53476 0.500179 0.486185 0.475415 0.465787 
0.455536 0.444876 0.429794 0.412403 0.386104 0.367952 0.367098 0.365953 0.364249 
0.364226 0.360116 0.356513 0.356544 0.35658 0.356616 0.35665 0.356684 0.356716 
0.356746 0.356774 0.3568 0.356825 0.356848 0.356869 0.356889 0.356908 0.356925 
0.356941 0.356955 0.356969 0.356981 0.356993 0.357004 0.357014 0.357024 0.357033 
0.357041 0.357049 0.357056 0.357063 0.357069 0.357076 0.357082 0.357087 0.357092 
0.357097 0.357102 0.357107 0.357111 0.357116 0.35712 0.357124 0.357128 0.357131 
0.357135 0.357138 0.357142 0.357145 0.357149 0.357152 0.357155 0.357158 0.357161 
0.357164 0.357167 0.35717 0.357173 0.357176 0.357178 0.357181 0.357184 0.357187 
0.357189 0.357192 0.357195 0.357197 0.3572 0.357202 0.357205 0.357207 0.35721 
0.357212 0.357215 0.357217 0.35722 0.357222 0.357224 0.357226 0.35721 0.357181 
0.355771 0.353323 0.350169 0.640003 0.64001 0.640017 0.640024 0.640032 0.640041 
0.640051 0.640062 0.640075 0.640088 0.640103 0.640119 0.640136 0.640153 0.640171 
0.64019 0.640209 0.640227 0.640246 0.640264 0.640281 0.640297 0.640312 0.640326 
0.640338 0.640348 0.640356 0.640362 0.640366 0.640367 0.640366 0.640363 0.640357 
0.640348 0.640336 0.640321 0.640303 0.640281 0.640257 0.64023 0.640199 0.640165 
0.640128 0.640088 0.640045 0.64 0.639952 0.639902 0.639851 0.639799 0.639746 
0.639693 0.639642 0.639592 0.639546 0.639502 0.639464 0.639431 0.639405 0.639386 
0.639375 0.639372 0.639377 0.639392 0.639415 0.639446 0.639485 0.639531 0.639585 
0.639644 0.639708 0.639775 0.639845 0.639917 0.639989 0.64006 0.640129 0.640196 
0.640261 0.640321 0.640378 0.640431 0.640479 0.640522 0.640561 0.640595 0.640624 
0.640649 0.64067 0.640687 0.6407 0.640709 0.640715 0.640719 0.640719 0.640718 
0.640715 0.64071 0.640704 0.640698 0.640691 0.640685 0.640679 0.640674 0.640671 
0.640669 0.64067 0.640675 0.640682 0.640693 0.640709 0.64073 0.640756 0.640787 
0.640824 0.640868 0.640917 0.640974 0.641037 0.641106 0.641181 0.641263 0.64135 
0.641441 0.641537 0.641635 0.641733 0.641805 0.642069 0.64152 0.62241 0.579928 
0.525261 0.470061 0.427525 0.3949 0.367516 0.341377 0.311237 0.280738 0.258783 
0.243345 0.234987 0.237117 0.242489 0.249861 0.257339 0.263538 0.269677 0.276453 
0.283934 0.291519 0.298087 0.302247 0.304234 0.30606 0.309807 0.316317 0.324272 
0.334779 0.336525 0.337871 0.345948 0.354541 0.361094 0.366137 0.367848 0.369587 
0.375277 0.381989 0.390793 0.400358 0.408901 0.416715 0.422721 0.42888 0.436628 
0.444551 0.452109 0.46024 0.4668 0.472824 0.480112 0.485987 0.48848 0.492982 
0.505333 0.517634 0.524134 0.528264 0.537265 0.545159 0.546278 0.549295 0.551928 
0.555442 0.556002 0.554968 0.531322 0.52239 0.510152 0.492248 0.475747 0.46094 
0.445468 0.429967 0.407396 0.379449 0.367538 0.366651 0.364769 0.364574 0.360043 
0.356506 0.356541 0.35658 0.356617 0.356653 0.356688 0.35672 0.35675 0.356779 
0.356805 0.35683 0.356853 0.356874 0.356893 0.356911 0.356928 0.356944 0.356958 
0.356972 0.356984 0.356996 0.357006 0.357016 0.357026 0.357034 0.357042 0.35705 
0.357057 0.357064 0.357071 0.357077 0.357082 0.357088 0.357093 0.357098 0.357103 
0.357107 0.357112 0.357116 0.35712 0.357124 0.357128 0.357132 0.357135 0.357139 
0.357142 0.357145 0.357149 0.357152 0.357155 0.357158 0.357161 0.357164 0.357167 
0.35717 0.357173 0.357176 0.357179 0.357181 0.357184 0.357187 0.357189 0.357192 
0.357195 0.357197 0.3572 0.357202 0.357205 0.357207 0.35721 0.357212 0.357215 
0.357217 0.35722 0.357222 0.357224 0.357226 0.35721 0.357181 0.355771 0.353323 
0.35017 0.640003 0.640008 0.640014 0.64002 0.640027 0.640035 0.640045 0.640056 
0.640068 0.640082 0.640097 0.640113 0.64013 0.640148 0.640167 0.640186 0.640206 
0.640226 0.640245 0.640265 0.640283 0.6403 0.640317 0.640331 0.640344 0.640356 
0.640365 0.640372 0.640376 0.640378 0.640378 0.640375 0.640368 0.640359 0.640347 
0.640332 0.640313 0.640291 0.640266 0.640237 0.640205 0.64017 0.640131 0.640089 
0.640044 0.639996 0.639945 0.639893 0.639838 0.639783 0.639727 0.639672 0.639617 
0.639565 0.639515 0.63947 0.639429 0.639395 0.639367 0.639347 0.639335 0.639332 
0.639339 0.639354 0.639378 0.639411 0.639452 0.6395 0.639557 0.639619 0.639686 
0.639757 0.63983 0.639905 0.63998 0.640054 0.640126 0.640196 0.640263 0.640325 
0.640384 0.640438 0.640487 0.640532 0.640571 0.640606 0.640636 0.640661 0.640682 
0.640699 0.640712 0.640721 0.640727 0.640729 0.640729 0.640727 0.640722 0.640716 
0.640708 0.6407 0.640692 0.640683 0.640675 0.640668 0.640663 0.640659 0.640658 
0.64066 0.640665 0.640675 0.640688 0.640707 0.640731 0.64076 0.640796 0.640838 
0.640887 0.640943 0.641006 0.641076 0.641153 0.641236 0.641327 0.641425 0.641528 
0.641637 0.641749 0.641835 0.642111 0.641539 0.621932 0.578412 0.5228 0.467868 
0.421785 0.386554 0.357922 0.331994 0.306217 0.283852 0.268892 0.258842 0.251641 
0.248064 0.252192 0.258603 0.26608 0.273233 0.279833 0.286826 0.294279 0.301618 
0.308135 0.312092 0.313795 0.315587 0.31865 0.323603 0.329895 0.336299 0.343306 
0.350389 0.357316 0.364335 0.370691 0.374814 0.376086 0.379524 0.385732 0.393856 
0.403077 0.412125 0.420151 0.427332 0.434087 0.441183 0.449863 0.458708 0.466222 
0.474296 0.483865 0.491607 0.494789 0.497519 0.506941 0.5184 0.529766 0.542785 
0.551325 0.559344 0.563855 0.566016 0.569277 0.577255 0.578129 0.57922 0.58049 
0.581783 0.553755 0.548622 0.538718 0.521805 0.500454 0.481012 0.462862 0.445062 
0.424805 0.400076 0.376253 0.366385 0.365087 0.364668 0.359968 0.3565 0.356538 
0.35658 0.35662 0.356657 0.356693 0.356726 0.356756 0.356785 0.356811 0.356836 
0.356858 0.356879 0.356898 0.356916 0.356933 0.356948 0.356962 0.356975 0.356987 
0.356998 0.357009 0.357019 0.357028 0.357036 0.357044 0.357052 0.357059 0.357065 
0.357072 0.357078 0.357083 0.357089 0.357094 0.357099 0.357103 0.357108 0.357112 
0.357116 0.357121 0.357124 0.357128 0.357132 0.357135 0.357139 0.357142 0.357146 
0.357149 0.357152 0.357155 0.357158 0.357161 0.357164 0.357167 0.35717 0.357173 
0.357176 0.357179 0.357181 0.357184 0.357187 0.357189 0.357192 0.357195 0.357197 
0.3572 0.357202 0.357205 0.357207 0.35721 0.357212 0.357215 0.357217 0.35722 
0.357222 0.357224 0.357226 0.35721 0.357181 0.355771 0.353323 0.35017 0.640002 
0.640005 0.64001 0.640015 0.640021 0.640028 0.640037 0.640047 0.640059 0.640073 
0.640088 0.640105 0.640122 0.640141 0.640161 0.640182 0.640203 0.640224 0.640245 
0.640266 0.640286 0.640305 0.640323 0.640339 0.640354 0.640366 0.640377 0.640385 
0.64039 0.640393 0.640393 0.64039 0.640384 0.640375 0.640363 0.640347 0.640327 
0.640304 0.640278 0.640248 0.640214 0.640176 0.640135 0.64009 0.640042 0.63999 
0.639937 0.63988 0.639822 0.639763 0.639703 0.639643 0.639585 0.639529 0.639476 
0.639427 0.639384 0.639347 0.639318 0.639297 0.639284 0.639281 0.639288 0.639305 
0.63933 0.639365 0.639409 0.639461 0.639521 0.639587 0.639659 0.639734 0.639812 
0.639891 0.639969 0.640047 0.640123 0.640196 0.640265 0.640331 0.640392 0.640448 
0.640499 0.640545 0.640585 0.640621 0.640652 0.640678 0.640699 0.640715 0.640728 
0.640736 0.640741 0.640743 0.640742 0.640738 0.640732 0.640723 0.640714 0.640703 
0.640692 0.640681 0.640671 0.640661 0.640653 0.640646 0.640643 0.640642 0.640644 
0.640651 0.640662 0.640678 0.640699 0.640727 0.64076 0.640801 0.640848 0.640903 
0.640965 0.641035 0.641114 0.6412 0.641295 0.641398 0.64151 0.64163 0.641756 
0.641853 0.642139 0.641552 0.621472 0.576954 0.520077 0.462399 0.415636 0.378994 
0.349735 0.324403 0.30302 0.285733 0.274412 0.268168 0.262459 0.259182 0.262747 
0.268919 0.276242 0.283429 0.290503 0.296932 0.302902 0.308995 0.315211 0.319105 
0.321016 0.323811 0.327627 0.332172 0.337317 0.343411 0.350864 0.358694 0.36596 
0.371612 0.374251 0.377509 0.383904 0.390316 0.397387 0.405299 0.414529 0.42324 
0.430488 0.437688 0.446252 0.454845 0.46299 0.471264 0.480463 0.489288 0.499744 
0.508927 0.512109 0.517688 0.529133 0.542017 0.551725 0.559355 0.574535 0.586735 
0.590493 0.592033 0.597953 0.602513 0.604214 0.60859 0.612216 0.612484 0.567591 
0.564819 0.557468 0.546445 0.527865 0.506784 0.485583 0.463034 0.439708 0.419381 
0.391641 0.368934 0.365498 0.36514 0.359921 0.356493 0.356536 0.356582 0.356624 
0.356663 0.3567 0.356733 0.356764 0.356793 0.356819 0.356843 0.356866 0.356886 
0.356905 0.356922 0.356938 0.356953 0.356967 0.35698 0.356991 0.357002 0.357012 
0.357022 0.357031 0.357039 0.357047 0.357054 0.357061 0.357067 0.357073 0.357079 
0.357085 0.35709 0.357095 0.3571 0.357104 0.357109 0.357113 0.357117 0.357121 
0.357125 0.357129 0.357132 0.357136 0.357139 0.357143 0.357146 0.357149 0.357152 
0.357155 0.357159 0.357161 0.357164 0.357167 0.35717 0.357173 0.357176 0.357179 
0.357181 0.357184 0.357187 0.357189 0.357192 0.357195 0.357197 0.3572 0.357202 
0.357205 0.357207 0.35721 0.357212 0.357215 0.357217 0.35722 0.357222 0.357224 
0.357226 0.35721 0.357181 0.355771 0.353323 0.35017 0.640001 0.640002 0.640004 
0.640008 0.640012 0.640019 0.640027 0.640037 0.640048 0.640062 0.640077 0.640094 
0.640113 0.640133 0.640154 0.640176 0.640199 0.640222 0.640244 0.640267 0.640289 
0.64031 0.64033 0.640349 0.640365 0.64038 0.640392 0.640401 0.640408 0.640412 
0.640413 0.64041 0.640405 0.640395 0.640383 0.640366 0.640346 0.640322 0.640294 
0.640261 0.640225 0.640185 0.64014 0.640092 0.64004 0.639985 0.639926 0.639865 
0.639803 0.639738 0.639673 0.639609 0.639546 0.639485 0.639428 0.639375 0.639328 
0.639289 0.639257 0.639234 0.639221 0.639219 0.639226 0.639244 0.639273 0.63931 
0.639357 0.639414 0.639478 0.63955 0.639627 0.639707 0.63979 0.639874 0.639958 
0.64004 0.64012 0.640197 0.64027 0.640338 0.640402 0.64046 0.640513 0.640561 
0.640603 0.640639 0.640671 0.640697 0.640719 0.640735 0.640747 0.640755 0.64076 
0.64076 0.640757 0.640752 0.640743 0.640733 0.640721 0.640708 0.640694 0.640679 
0.640666 0.640653 0.640641 0.640631 0.640624 0.640619 0.640618 0.640621 0.640629 
0.640642 0.64066 0.640685 0.640716 0.640754 0.6408 0.640853 0.640915 0.640984 
0.641063 0.641152 0.64125 0.641359 0.641479 0.641611 0.64175 0.641859 0.642163 
0.641554 0.62079 0.574817 0.516529 0.459356 0.409401 0.371603 0.343567 0.322033 
0.302337 0.285977 0.275132 0.269255 0.2648 0.268294 0.274628 0.280356 0.285756 
0.292132 0.298881 0.304429 0.308796 0.31292 0.316495 0.320401 0.324846 0.329442 
0.334826 0.339466 0.343333 0.348581 0.355118 0.362785 0.370661 0.376248 0.379784 
0.384614 0.391998 0.40036 0.408042 0.416586 0.424354 0.432703 0.441518 0.449844 
0.458751 0.467781 0.477217 0.487291 0.4977 0.506271 0.512804 0.518576 0.526945 
0.537918 0.551045 0.56489 0.575549 0.586357 0.596925 0.606799 0.612875 0.618421 
0.625923 0.630096 0.63276 0.639252 0.641349 0.641533 0.575826 0.574212 0.572498 
0.567538 0.555698 0.538086 0.512803 0.485593 0.456971 0.432989 0.407931 0.378694 
0.365597 0.365156 0.359883 0.356489 0.356537 0.356586 0.356631 0.356672 0.356709 
0.356744 0.356775 0.356803 0.356829 0.356853 0.356875 0.356895 0.356913 0.35693 
0.356945 0.35696 0.356973 0.356985 0.356996 0.357007 0.357016 0.357025 0.357034 
0.357042 0.357049 0.357056 0.357063 0.357069 0.357075 0.357081 0.357086 0.357091 
0.357096 0.357101 0.357105 0.35711 0.357114 0.357118 0.357122 0.357126 0.357129 
0.357133 0.357136 0.35714 0.357143 0.357146 0.357149 0.357153 0.357156 0.357159 
0.357162 0.357165 0.357168 0.35717 0.357173 0.357176 0.357179 0.357181 0.357184 
0.357187 0.357189 0.357192 0.357195 0.357197 0.3572 0.357202 0.357205 0.357207 
0.35721 0.357212 0.357215 0.357217 0.35722 0.357222 0.357224 0.357226 0.35721 
0.357181 0.355771 0.353323 0.35017 0.639999 0.639998 0.639998 0.64 0.640003 
0.640008 0.640015 0.640024 0.640035 0.640049 0.640065 0.640082 0.640102 0.640123 
0.640145 0.640169 0.640193 0.640219 0.640244 0.640269 0.640293 0.640317 0.640339 
0.64036 0.640379 0.640396 0.64041 0.640421 0.64043 0.640435 0.640437 0.640435 
0.64043 0.64042 0.640407 0.64039 0.640369 0.640343 0.640313 0.640279 0.640239 
0.640196 0.640148 0.640095 0.640039 0.639978 0.639915 0.639848 0.63978 0.639709 
0.639638 0.639568 0.639499 0.639432 0.63937 0.639313 0.639262 0.639219 0.639185 
0.639161 0.639147 0.639145 0.639154 0.639175 0.639206 0.639247 0.639299 0.639361 
0.639432 0.63951 0.639594 0.639681 0.63977 0.639859 0.639948 0.640036 0.64012 
0.640201 0.640277 0.640348 0.640415 0.640476 0.640531 0.64058 0.640624 0.640661 
0.640694 0.64072 0.640742 0.640759 0.640771 0.640778 0.640781 0.64078 0.640776 
0.640768 0.640757 0.640744 0.640729 0.640713 0.640695 0.640677 0.64066 0.640643 
0.640627 0.640613 0.640602 0.640593 0.640588 0.640587 0.640591 0.6406 0.640614 
0.640636 0.640664 0.640699 0.640742 0.640793 0.640853 0.640922 0.641 0.64109 
0.641191 0.641304 0.641431 0.641573 0.641725 0.641844 0.642166 0.64154 0.619921 
0.571975 0.510337 0.447946 0.399528 0.363527 0.336369 0.315535 0.298233 0.284332 
0.274222 0.267851 0.268236 0.273696 0.279978 0.286285 0.292137 0.297856 0.30332 