# vtk DataFile Version 5.1
vtk output
ASCII
DATASET UNSTRUCTURED_GRID
POINTS 616 double
-10.1 1.299999997 1.4949910199e-09 -9.899999997 1.299999997 -2.0684092217e-09 -9.899999997 1.5 -4.5235742618e-07 
-9.699999994 1.299999997 -2.1921005011e-09 -9.699999994 1.5 -4.5634646995e-07 -9.4999999911 1.299999997 -2.1866435329e-09 
-9.4999999911 1.5 -4.6006812227e-07 -9.2999999881 1.299999997 -2.2484891726e-09 -9.2999999881 1.5 -4.6643822316e-07 
-9.0999999851 1.299999997 -2.2430322044e-09 -9.0999999851 1.5 -4.7556591198e-07 -8.8999999821 1.299999997 -2.2830499713e-09 
-8.8999999821 1.5 -4.8717288337e-07 -8.6999999791 1.299999997 -2.3339816746e-09 -8.6999999791 1.5 -4.9949835557e-07 
-8.4999999762 1.299999997 -2.4194741766e-09 -8.4999999762 1.5 -5.1591109695e-07 -8.2999999732 1.299999997 -2.4813198163e-09 
-8.2999999732 1.5 -5.3501230468e-07 -8.0999999702 1.299999997 -2.5086046573e-09 -8.0999999702 1.5 -5.5682380662e-07 
-7.8999999672 1.299999997 -2.6641282513e-09 -7.8999999672 1.5 -5.816657449e-07 -7.6999999642 1.299999997 -2.8596696122e-09 
-7.6999999642 1.5 -6.0980642047e-07 -7.4999999613 1.299999997 -2.9942748281e-09 -7.4999999613 1.5 -6.4163509705e-07 
-7.2999999583 1.299999997 -3.1834497261e-09 -7.2999999583 1.5 -6.7762744038e-07 -7.0999999553 1.299999997 -3.3935430022e-09 
-7.0999999553 1.5 -7.1295403359e-07 -6.8999999523 1.299999997 -3.5827179001e-09 -6.8999999523 1.5 -7.5860521065e-07 
-6.6999999493 1.299999997 -3.8564760274e-09 -6.6999999493 1.5 -8.1070106717e-07 -6.4999999464 1.299999997 -4.1184105015e-09 
-6.4999999464 1.5 -8.7033299678e-07 -6.2999999434 1.299999997 -4.4567425306e-09 -6.2999999434 1.5 -9.3937637757e-07 
-6.0999999404 1.299999997 -4.821449906e-09 -6.0999999404 1.5 -1.0197097708e-06 -5.8999999374 1.299999997 -5.2930229089e-09 
-5.8999999374 1.5 -1.1144335303e-06 -5.6999999344 1.299999997 -5.8241678147e-09 -5.6999999344 1.5 -1.2275293102e-06 
-5.4999999315 1.299999997 -6.3798686334e-09 -5.4999999315 1.5 -1.3462024526e-06 -5.2999999285 1.299999997 -7.1734032048e-09 
-5.2999999285 1.5 -1.5123061985e-06 -5.0999999255 1.299999997 -8.1692999032e-09 -5.0999999255 1.5 -1.724088861e-06 
-4.8999999225 1.299999997 -9.5310408454e-09 -4.8999999225 1.5 -2.0050929379e-06 -4.6999999195 1.299999997 -1.1407555789e-08 
-4.6999999195 1.5 -2.39858241e-06 -4.4999999166 1.299999997 -1.4254956326e-08 -4.4999999166 1.5 -2.9940770219e-06 
-4.2999999136 1.299999997 -1.9111203287e-08 -4.2999999136 1.5 -4.0044587877e-06 -4.0999999106 1.299999997 -2.9104503696e-08 
-4.0999999106 1.5 -6.0518841565e-06 -3.8999999076 1.299999997 -5.1690097536e-08 -3.8999999076 1.5 -1.0533799468e-05 
-3.6999999046 1.299999997 -2.0434389114e-07 -3.6999999046 1.5 -3.4330492781e-05 -3.4999999017 1.299999997 0.0068589402363 
-3.4999999017 1.5 0.0088126640767 -3.2999998987 1.299999997 0.1096861437 -3.2999998987 1.5 0.11663929373 
-3.0999998957 1.299999997 0.26454496384 -3.0999998957 1.5 0.2638117671 -2.8999998927 1.299999997 0.38358619809 
-2.8999998927 1.5 0.3738129735 -2.6999998897 1.299999997 0.39428371191 -2.6999998897 1.5 0.39200666547 
-2.4999998868 1.299999997 0.37126836181 -2.4999998868 1.5 0.37408801913 -2.2999998838 1.299999997 0.36549088359 
-2.2999998838 1.5 0.35320535302 -2.0999998808 1.299999997 0.35611820221 -2.0999998808 1.5 0.33721387386 
-1.8999998778 1.299999997 0.35067871213 -1.8999998778 1.5 0.34439873695 -1.6999998748 1.299999997 0.33812379837 
-1.6999998748 1.5 0.33537003398 -1.4999998719 1.299999997 0.32722067833 -1.4999998719 1.5 0.32372161746 
-1.2999998689 1.299999997 0.32111296058 -1.2999998689 1.5 0.31457415223 -1.0999998659 1.299999997 0.31309133768 
-1.0999998659 1.5 0.31051751971 -0.89999986291 1.299999997 0.30368283391 -0.89999986291 1.5 0.29313313961 
-0.69999985993 1.299999997 0.27815389633 -0.69999985993 1.5 0.25954470038 -0.49999985695 1.299999997 0.16365168989 
-0.49999985695 1.5 0.17629602551 -0.29999985397 1.299999997 0.04021961987 -0.29999985397 1.5 0.06570379436 
-0.099999850988 1.299999997 0.0016053718282 -0.099999850988 1.5 -0.00038850589772 0.10000015199 1.299999997 0.00047017700854 
0.10000015199 1.5 -8.5574312834e-05 0.30000015497 1.299999997 0.15029922128 0.30000015497 1.5 0.15094338357 
0.50000015795 1.299999997 0.26656749845 0.50000015795 1.5 0.26703482866 0.70000016093 1.299999997 0.28700011969 
0.70000016093 1.5 0.28701210022 0.90000016391 1.299999997 0.28700000048 0.90000016391 1.5 0.28699684143 
1.1000001669 1.299999997 0.28699997067 1.1000001669 1.5 0.28699561954 1.3000001699 1.299999997 0.28699997067 
1.3000001699 1.5 0.28699597716 1.5000001729 1.299999997 0.28699997067 1.5000001729 1.5 0.28699651361 
1.7000001758 1.299999997 0.28700000048 1.7000001758 1.5 0.28699696064 1.9000001788 1.299999997 0.28700000048 
1.9000001788 1.5 0.28699734807 2.1000001818 1.299999997 0.28700000048 2.1000001818 1.5 0.2869976759 
2.3000001848 1.299999997 0.28700000048 2.3000001848 1.5 0.28699794412 2.5000001878 1.299999997 0.28700000048 
2.5000001878 1.5 0.28699812293 2.7000001907 1.299999997 0.28700000048 2.7000001907 1.5 0.28699830174 
2.9000001937 1.299999997 0.28700000048 2.9000001937 1.5 0.28699845076 3.1000001967 1.299999997 0.28700000048 
3.1000001967 1.5 0.28699859977 3.3000001997 1.299999997 0.28700000048 3.3000001997 1.5 0.28699868917 
3.5000002027 1.299999997 0.28700000048 3.5000002027 1.5 0.28699877858 3.7000002056 1.299999997 0.28700000048 
3.7000002056 1.5 0.28699883819 3.9000002086 1.299999997 0.28700000048 3.9000002086 1.5 0.28699889779 
4.1000002116 1.299999997 0.28700000048 4.1000002116 1.5 0.28699892759 4.3000002146 1.299999997 0.28700000048 
4.3000002146 1.5 0.28699892759 4.5000002176 1.299999997 0.28700000048 4.5000002176 1.5 0.28699892759 
4.7000002205 1.299999997 0.28700000048 4.7000002205 1.5 0.28699883819 4.9000002235 1.299999997 0.28700000048 
4.9000002235 1.5 0.28699856997 5.08 1.299999997 0.28700011969 -9.899999997 1.099999994 -3.6598057918e-11 
-10.1 1.099999994 2.7246278567e-09 -9.699999994 1.099999994 4.7075454646e-11 -9.4999999911 1.099999994 -6.9339867181e-11 
-9.2999999881 1.099999994 -1.8408163882e-11 -9.0999999851 1.099999994 -5.6752380573e-12 -8.8999999821 1.099999994 -5.6752380573e-12 
-8.6999999791 1.099999994 1.2514655978e-11 -8.4999999762 1.099999994 -2.0227153286e-11 -8.2999999732 1.099999994 6.8903327488e-11 
-8.0999999702 1.099999994 -7.4942274608e-12 -7.8999999672 1.099999994 6.5265348681e-11 -7.6999999642 1.099999994 7.1631811593e-11 
-7.4999999613 1.099999994 3.1614044715e-11 -7.2999999583 1.099999994 3.4197089605e-12 -7.0999999553 1.099999994 1.1605161276e-11 
-6.8999999523 1.099999994 -4.7657433555e-12 -6.6999999493 1.099999994 1.4333645382e-11 -6.4999999464 1.099999994 -5.7516436058e-11 
-6.2999999434 1.099999994 1.7971624189e-11 -6.0999999404 1.099999994 1.3878898031e-11 -5.8999999374 1.099999994 -4.2509773479e-11 
-5.6999999344 1.099999994 -4.5693004935e-11 -5.4999999315 1.099999994 -2.4319879444e-11 -5.2999999285 1.099999994 -2.8867352952e-11 
-5.0999999255 1.099999994 -4.5238257584e-11 -4.8999999225 1.099999994 -5.0240478444e-11 -4.6999999195 1.099999994 -7.1840977611e-11 
-4.4999999166 1.099999994 -1.025364238e-10 -4.2999999136 1.099999994 -1.0662914995e-10 -4.0999999106 1.099999994 -1.7302226318e-10 
-3.8999999076 1.099999994 -2.6033375455e-10 -3.6999999046 1.099999994 -1.0500025294e-09 -3.4999999017 1.099999994 0.006303764414 
-3.2999998987 1.099999994 0.10153471678 -3.0999998957 1.099999994 0.2483843863 -2.8999998927 1.099999994 0.3582958281 
-2.6999998897 1.099999994 0.38364216685 -2.4999998868 1.099999994 0.37670785189 -2.2999998838 1.099999994 0.37173762918 
-2.0999998808 1.099999994 0.36578851938 -1.8999998778 1.099999994 0.35988759995 -1.6999998748 1.099999994 0.3433214128 
-1.4999998719 1.099999994 0.33270776272 -1.2999998689 1.099999994 0.31566593051 -1.0999998659 1.099999994 0.30317398906 
-0.89999986291 1.099999994 0.28527548909 -0.69999985993 1.099999994 0.26121684909 -0.49999985695 1.099999994 0.18513220549 
-0.29999985397 1.099999994 0.069437615573 -0.099999850988 1.099999994 0.0010859225877 0.10000015199 1.099999994 0.00047170781181 
0.30000015497 1.099999994 0.15029907227 0.50000015795 1.099999994 0.26656609774 0.70000016093 1.099999994 0.28700000048 
0.90000016391 1.099999994 0.28700000048 1.1000001669 1.099999994 0.28700000048 1.3000001699 1.099999994 0.28700000048 
1.5000001729 1.099999994 0.28700000048 1.7000001758 1.099999994 0.28700000048 1.9000001788 1.099999994 0.28700000048 
2.1000001818 1.099999994 0.28700000048 2.3000001848 1.099999994 0.28700000048 2.5000001878 1.099999994 0.28700000048 
2.7000001907 1.099999994 0.28700000048 2.9000001937 1.099999994 0.28700000048 3.1000001967 1.099999994 0.28700000048 
3.3000001997 1.099999994 0.28700000048 3.5000002027 1.099999994 0.28700000048 3.7000002056 1.099999994 0.28700000048 
3.9000002086 1.099999994 0.28700000048 4.1000002116 1.099999994 0.28700000048 4.3000002146 1.099999994 0.28700000048 
4.5000002176 1.099999994 0.28700000048 4.7000002205 1.099999994 0.28700000048 4.9000002235 1.099999994 0.28700000048 
5.08 1.099999994 0.28700008988 -9.899999997 0.89999999106 -6.3882898971e-11 -10.1 0.89999999106 2.7137139202e-09 
-9.699999994 0.89999999106 9.9826147348e-11 -9.4999999911 0.89999999106 -2.5684121496e-11 -9.2999999881 0.89999999106 -7.1158856585e-11 
-9.0999999851 0.89999999106 -6.3882898971e-11 -8.8999999821 0.89999999106 -4.5693004935e-11 -8.6999999791 0.89999999106 2.888556061e-11 
-8.4999999762 0.89999999106 3.7980507628e-11 -8.2999999732 0.89999999106 -1.2390954929e-10 -8.0999999702 0.89999999106 7.0576877675e-12 
-7.8999999672 0.89999999106 1.342415068e-11 -7.6999999642 0.89999999106 4.0708991733e-11 -7.4999999613 0.89999999106 3.3433034119e-11 
-7.2999999583 0.89999999106 -1.1277645484e-12 -7.0999999553 0.89999999106 -4.7511994339e-11 -6.8999999523 0.89999999106 1.6152634785e-11 
-6.6999999493 0.89999999106 1.6007195569e-12 -6.4999999464 0.89999999106 1.9790613592e-11 -6.2999999434 0.89999999106 -2.8412605602e-11 
[...]
CELL_DATA 532
FIELD FieldData 4
Water_Depth_m 1 532 float
0.584003 0.584007 0.584012 0.584016 0.584021 0.584026 0.58403 0.584035 0.58404 
0.584044 0.584049 0.584054 0.584058 0.584063 0.584067 0.584072 0.584077 0.584081 
0.584086 0.584091 0.584095 0.5841 0.584105 0.584109 0.584114 0.584119 0.584123 
0.584128 0.584133 0.584138 0.584145 0.584167 0.584472 0.578089 0.479307 0.32402 
0.207616 0.206502 0.228842 0.242505 0.243213 0.245194 0.257959 0.269668 0.278107 
0.30323 0.329204 0.423429 0.549167 0.583142 0.627434 0.659702 0.52729 0.406315 
0.370633 0.370652 0.370674 0.370695 0.370717 0.370738 0.370759 0.370781 0.370803 
0.370824 0.370846 0.370868 0.37089 0.370912 0.370933 0.370955 0.370977 0.370998 
0.371018 0.371037 0.37105 0.363751 0.584002 0.584007 0.584011 0.584016 0.584021 
0.584025 0.58403 0.584035 0.584039 0.584044 0.584048 0.584053 0.584058 0.584062 
0.584067 0.584072 0.584076 0.584081 0.584085 0.58409 0.584095 0.584099 0.584104 
0.584108 0.584113 0.584117 0.584121 0.584126 0.58413 0.584134 0.584137 0.58414 
0.584211 0.578519 0.486469 0.337187 0.219677 0.204983 0.216214 0.223915 0.230521 
0.246652 0.256082 0.272783 0.288331 0.312026 0.341791 0.41873 0.545907 0.579807 
0.627023 0.659266 0.527276 0.406307 0.370626 0.370648 0.37067 0.370691 0.370713 
0.370735 0.370757 0.370779 0.370801 0.370823 0.370845 0.370867 0.370889 0.37091 
0.370932 0.370954 0.370976 0.370997 0.371019 0.37104 0.37106 0.36374 0.584002 
0.584007 0.584012 0.584016 0.584021 0.584026 0.58403 0.584035 0.58404 0.584044 
0.584049 0.584053 0.584058 0.584063 0.584067 0.584072 0.584076 0.584081 0.584086 
0.58409 0.584095 0.584099 0.584104 0.584109 0.584113 0.584117 0.584122 0.584126 
0.584131 0.584135 0.58414 0.584146 0.584213 0.579123 0.4972 0.366093 0.261033 
0.2335 0.23137 0.214655 0.221664 0.238263 0.248238 0.266748 0.281709 0.303189 
0.324256 0.402406 0.525377 0.581322 0.627021 0.65927 0.527279 0.406302 0.370626 
0.370647 0.370669 0.370691 0.370713 0.370735 0.370757 0.370779 0.370801 0.370823 
0.370845 0.370867 0.370889 0.370911 0.370932 0.370954 0.370976 0.370998 0.371021 
0.371044 0.371067 0.363739 0.584002 0.584007 0.584012 0.584017 0.584021 0.584026 
0.584031 0.584035 0.58404 0.584044 0.584049 0.584054 0.584058 0.584063 0.584067 
0.584072 0.584077 0.584081 0.584086 0.584091 0.584095 0.5841 0.584104 0.584109 
0.584113 0.584118 0.584123 0.584127 0.584132 0.584137 0.584143 0.58415 0.584205 
0.579425 0.503046 0.38344 0.291092 0.256819 0.253439 0.233556 0.226152 0.217196 
0.214832 0.222124 0.229792 0.26194 0.317014 0.441634 0.533529 0.585642 0.626887 
0.65927 0.527266 0.406307 0.370625 0.370647 0.370669 0.370691 0.370713 0.370735 
0.370757 0.370779 0.370801 0.370823 0.370845 0.370867 0.370889 0.370911 0.370933 
0.370955 0.370977 0.370999 0.371022 0.371046 0.37107 0.36374 0.584002 0.584007 
0.584012 0.584017 0.584021 0.584026 0.584031 0.584035 0.58404 0.584044 0.584049 
0.584054 0.584058 0.584063 0.584068 0.584072 0.584077 0.584081 0.584086 0.584091 
0.584095 0.5841 0.584104 0.584109 0.584114 0.584118 0.584123 0.584128 0.584133 
0.584138 0.584144 0.584151 0.584204 0.579414 0.502999 0.383342 0.291283 0.2568 
0.253591 0.243994 0.239598 0.241333 0.242841 0.246644 0.256153 0.268099 0.322213 
0.433069 0.537691 0.585606 0.626309 0.659266 0.527277 0.406306 0.370624 0.370646 
0.370668 0.370691 0.370713 0.370735 0.370757 0.370779 0.370801 0.370823 0.370845 
0.370867 0.370889 0.370911 0.370933 0.370955 0.370977 0.370999 0.371022 0.371046 
0.37107 0.36374 0.584002 0.584007 0.584012 0.584016 0.584021 0.584026 0.58403 
0.584035 0.58404 0.584044 0.584049 0.584054 0.584058 0.584063 0.584067 0.584072 
0.584077 0.584081 0.584086 0.58409 0.584095 0.5841 0.584104 0.584109 0.584114 
0.584119 0.584123 0.584128 0.584134 0.584139 0.584145 0.584151 0.584216 0.579131 
0.497969 0.369135 0.268216 0.246235 0.247731 0.25202 0.260492 0.26913 0.281898 
0.29645 0.309026 0.321033 0.345531 0.454442 0.551485 0.585535 0.626311 0.659263 
0.527266 0.406304 0.370623 0.370646 0.370668 0.37069 0.370712 0.370735 0.370757 
0.370779 0.370801 0.370823 0.370845 0.370867 0.370889 0.370911 0.370933 0.370955 
0.370977 0.370999 0.371021 0.371044 0.371067 0.36374 0.584003 0.584007 0.584012 
0.584016 0.584021 0.584025 0.58403 0.584035 0.584039 0.584044 0.584048 0.584053 
0.584058 0.584062 0.584067 0.584072 0.584076 0.584081 0.584085 0.58409 0.584095 
0.584099 0.584104 0.584109 0.584114 0.584118 0.584123 0.584129 0.584134 0.584139 
0.584145 0.584167 0.584453 0.578524 0.48728 0.341335 0.23147 0.232108 0.237878 
0.251323 0.257308 0.267542 0.280893 0.292901 0.30777 0.320291 0.345498 0.458287 
0.553499 0.584682 0.6266 0.659623 0.527037 0.406237 0.370632 0.370647 0.370669 
0.370691 0.370713 0.370735 0.370757 0.370779 0.370801 0.370823 0.370845 0.370867 
0.370889 0.370911 0.370933 0.370955 0.370977 0.370999 0.37102 0.371041 0.37106 
0.363745 
Water_Elev_m 1 532 float
0.584002 0.584007 0.584011 0.584016 0.584021 0.584025 0.58403 0.584034 0.584039 
0.584044 0.584048 0.584053 0.584058 0.584062 0.584067 0.584071 0.584076 0.584081 
0.584085 0.58409 0.584094 0.584099 0.584103 0.584108 0.584112 0.584117 0.584121 
0.584125 0.584129 0.584132 0.584135 0.584135 0.584104 0.583614 0.582048 0.577681 
0.57539 0.577164 0.578047 0.578333 0.578265 0.579118 0.579822 0.580532 0.581106 
0.582177 0.583525 0.585836 0.587264 0.587777 0.62615 0.659239 0.658179 0.657607 
0.657627 0.657648 0.65767 0.657691 0.657713 0.657735 0.657757 0.657779 0.657801 
0.657823 0.657845 0.657867 0.657888 0.65791 0.657932 0.657954 0.657975 0.657997 
0.658017 0.658036 0.658049 0.650748 0.584002 0.584007 0.584011 0.584016 0.584021 
0.584025 0.58403 0.584035 0.584039 0.584044 0.584048 0.584053 0.584058 0.584062 
0.584067 0.584072 0.584076 0.584081 0.584085 0.58409 0.584095 0.584099 0.584104 
0.584108 0.584113 0.584117 0.584121 0.584126 0.58413 0.584134 0.584137 0.584139 
0.584118 0.583625 0.582059 0.577764 0.57572 0.577185 0.577621 0.577984 0.578348 
0.579154 0.579712 0.58042 0.581062 0.582164 0.583555 0.585803 0.58726 0.587813 
0.626185 0.65925 0.658182 0.657605 0.657626 0.657648 0.65767 0.657691 0.657713 
0.657735 0.657757 0.657779 0.657801 0.657823 0.657845 0.657867 0.657889 0.65791 
0.657932 0.657954 0.657976 0.657997 0.658019 0.65804 0.65806 0.65074 0.584002 
0.584007 0.584012 0.584016 0.584021 0.584026 0.58403 0.584035 0.58404 0.584044 
0.584049 0.584053 0.584058 0.584063 0.584067 0.584072 0.584076 0.584081 0.584086 
0.58409 0.584095 0.584099 0.584104 0.584109 0.584113 0.584117 0.584122 0.584126 
0.584131 0.584135 0.58414 0.584146 0.584129 0.583606 0.582017 0.578239 0.576318 
0.576976 0.577229 0.57768 0.578119 0.578928 0.579507 0.580233 0.580779 0.581965 
0.583608 0.586063 0.587325 0.587853 0.626185 0.659256 0.658184 0.657604 0.657626 
0.657647 0.657669 0.657691 0.657713 0.657735 0.657757 0.657779 0.657801 0.657823 
0.657845 0.657867 0.657889 0.657911 0.657932 0.657954 0.657976 0.657998 0.658021 
0.658044 0.658067 0.650739 0.584002 0.584007 0.584012 0.584017 0.584021 0.584026 
0.584031 0.584035 0.58404 0.584044 0.584049 0.584054 0.584058 0.584063 0.584067 
0.584072 0.584077 0.584081 0.584086 0.584091 0.584095 0.5841 0.584104 0.584109 
0.584113 0.584118 0.584123 0.584127 0.584132 0.584137 0.584143 0.58415 0.584132 
0.583565 0.58194 0.578744 0.576708 0.57725 0.577239 0.577382 0.577906 0.578603 
0.579278 0.579871 0.580438 0.581825 0.583861 0.58632 0.587338 0.587846 0.626084 
0.659255 0.658184 0.657603 0.657625 0.657647 0.657669 0.657691 0.657713 0.657735 
0.657757 0.657779 0.657801 0.657823 0.657845 0.657867 0.657889 0.657911 0.657933 
0.657955 0.657977 0.657999 0.658022 0.658046 0.65807 0.65074 0.584002 0.584007 
0.584012 0.584017 0.584021 0.584026 0.584031 0.584035 0.58404 0.584044 0.584049 
0.584054 0.584058 0.584063 0.584068 0.584072 0.584077 0.584081 0.584086 0.584091 
0.584095 0.5841 0.584104 0.584109 0.584114 0.584118 0.584123 0.584128 0.584133 
0.584138 0.584144 0.584151 0.584132 0.583554 0.581893 0.578646 0.576738 0.577271 
0.57739 0.577687 0.578101 0.578655 0.579149 0.579816 0.580409 0.581594 0.583778 
0.586376 0.587351 0.58781 0.625967 0.659252 0.658181 0.657601 0.657624 0.657646 
0.657668 0.657691 0.657713 0.657735 0.657757 0.657779 0.657801 0.657823 0.657845 
0.657867 0.657889 0.657911 0.657933 0.657955 0.657977 0.657999 0.658022 0.658046 
0.65807 0.65074 0.584002 0.584007 0.584012 0.584016 0.584021 0.584026 0.58403 
0.584035 0.58404 0.584044 0.584049 0.584054 0.584058 0.584063 0.584067 0.584072 
0.584077 0.584081 0.584086 0.58409 0.584095 0.5841 0.584104 0.584109 0.584114 
0.584119 0.584123 0.584128 0.584134 0.584139 0.584145 0.584151 0.584132 0.583571 
0.581875 0.578151 0.576409 0.577495 0.577741 0.578063 0.578383 0.57881 0.579252 
0.580018 0.58063 0.581691 0.583564 0.586198 0.587256 0.587723 0.625936 0.659248 
0.658178 0.6576 0.657623 0.657646 0.657668 0.65769 0.657712 0.657735 0.657757 
0.657779 0.657801 0.657823 0.657845 0.657867 0.657889 0.657911 0.657933 0.657955 
0.657977 0.657999 0.658021 0.658044 0.658067 0.65074 0.584002 0.584007 0.584011 
0.584016 0.584021 0.584025 0.58403 0.584034 0.584039 0.584044 0.584048 0.584053 
0.584058 0.584062 0.584067 0.584071 0.584076 0.584081 0.584085 0.58409 0.584095 
0.584099 0.584104 0.584109 0.584113 0.584118 0.584123 0.584128 0.584133 0.584139 
0.584144 0.58415 0.584126 0.583599 0.581934 0.577436 0.576169 0.577666 0.578234 
0.578545 0.578418 0.578878 0.579305 0.579878 0.580668 0.581832 0.583745 0.586257 
0.58723 0.587675 0.625936 0.659241 0.658174 0.6576 0.657623 0.657645 0.657668 
0.65769 0.657712 0.657735 0.657757 0.657779 0.657801 0.657823 0.657845 0.657867 
0.657889 0.657911 0.657933 0.657955 0.657977 0.657999 0.65802 0.658041 0.65806 
0.650745 
Velocity_cell_m_p_s 3 532 double
-0.14527660608 3.7112629798e-05 -0 -0.14519785345 4.0225120756e-05 -0 -0.14511471987 4.1765342758e-05 -0 
-0.14502936602 4.2454143113e-05 -0 -0.14494301379 4.2751977162e-05 -0 -0.14485615492 4.2973988457e-05 -0 
-0.1447687 4.3327770982e-05 -0 -0.14468032122 4.3911870307e-05 -0 -0.14459057152 4.4699823775e-05 -0 
-0.1444991827 4.5544176828e-05 -0 -0.14440628886 4.6210774599e-05 -0 -0.14431248605 4.6453591494e-05 -0 
-0.14421878755 4.6110617404e-05 -0 -0.14412634075 4.5195552957e-05 -0 -0.14403606951 4.3945747166e-05 -0 
-0.14394819736 4.2794014007e-05 -0 -0.14386200905 4.2256095185e-05 -0 -0.14377588034 4.275543688e-05 -0 
-0.14368756115 4.4432235882e-05 -0 -0.14359499514 4.7004556109e-05 -0 -0.14349713922 4.9731617764e-05 -0 
-0.14339475334 5.1525028539e-05 -0 -0.14329090714 5.1219594752e-05 -0 -0.14319059253 4.7972254833e-05 -0 
-0.14309987426 4.1665469325e-05 -0 -0.14302399755 3.3123527828e-05 -0 -0.14296589792 2.3927843358e-05 -0 
-0.14292533696 1.5635308955e-05 -0 -0.14290058613 8.1677890194e-06 -0 -0.14289429784 -2.685450454e-06 -0 
-0.14292494953 -2.8507945899e-05 -0 -0.14304848015 -9.5964991488e-05 -0 -0.14424869418 -0.00027313450119 -0 
-0.16158655286 -0.00085325451801 -0 -0.22034263611 -0.0017061526887 -0 -0.34451326728 -0.0031218482181 -0 
-0.45730224252 -0.0038729324006 -0 -0.47069811821 -0.0082593467087 -0 -0.44405251741 -0.011191915721 -0 
-0.43273070455 -0.0074312877841 -0 -0.43315267563 -0.0013763788156 -0 -0.42746961117 -0.0017673096154 -0 
-0.41179317236 -0.0025668290909 -0 -0.39701783657 -0.0012424560264 -0 -0.38308173418 0.00068931025453 -0 
-0.36369654536 0.0015338178491 -0 -0.33256727457 0.0018262873637 -0 -0.27906879783 0.00059322552988 -0 
-0.21523343027 0.0007707568584 -0 -0.17356047034 0.00097230257234 -0 -0.15534558892 8.3838058345e-05 -0 
-0.16878753901 0.00028035670402 -0 -0.21507504582 1.4820524484e-05 -0 -0.2548609972 -5.5903805332e-05 -0 
-0.26675152779 -2.6394605811e-05 -0 -0.26677343249 -1.2979557141e-05 -0 -0.26677709818 -6.2958843046e-06 -0 
-0.26677039266 -2.5905151233e-06 -0 -0.26675778627 -3.7800782593e-07 -0 -0.2667414844 9.8483189959e-07 -0 
-0.26672297716 1.8520975118e-06 -0 -0.26670295 2.4344815301e-06 -0 -0.26668199897 2.7744945328e-06 -0 
-0.26666051149 2.9656403058e-06 -0 -0.2666387856 3.0318710742e-06 -0 -0.26661702991 2.9734894724e-06 -0 
-0.26659557223 2.7612659323e-06 -0 -0.26657480001 2.3025074825e-06 -0 -0.2665553987 1.4570005078e-06 -0 
-0.26653856039 -1.4032336537e-07 -0 -0.26652657986 -3.2570715121e-06 -0 -0.2665245831 -9.668592611e-06 -0 
-0.26654374599 -2.3444448743e-05 -0 -0.26661303639 -5.7223624026e-05 -0 -0.26679760218 -0.00013211171608 -0 
-0.39489731193 -0.00044285933836 -0 -0.15739282966 9.5555158623e-05 -0 -0.15734647214 0.00010393530101 -0 
-0.15729725361 0.0001080210568 -0 -0.15724657476 0.00010983601533 -0 -0.15719529986 0.00011062625708 -0 
-0.15714363754 0.00011123139848 -0 -0.15709157288 0.00011220302986 -0 -0.15703882277 0.00011380034266 -0 
-0.15698504448 0.00011594941316 -0 -0.1569301039 0.00011824943067 -0 -0.15687406063 0.00012006575707 -0 
-0.15681736171 0.00012072838581 -0 -0.1567607224 0.00011979270494 -0 -0.15670502186 0.00011728874961 -0 
-0.15665094554 0.00011385433027 -0 -0.15659867227 0.00011066576553 -0 -0.1565477252 0.00010914011364 -0 
-0.15649691224 0.0001104635885 -0 -0.15644453466 0.00011507034651 -0 -0.15638887882 0.00012223886733 -0 
-0.15632894635 0.00012995432189 -0 -0.15626512468 0.00013517201296 -0 -0.15619967878 0.00013454645523 -0 
-0.15613676608 0.00012554970453 -0 -0.15608164668 0.00010765113984 -0 -0.15603937209 8.3029786765e-05 -0 
-0.15601308644 5.6221597333e-05 -0 -0.15600280464 3.2080093661e-05 -0 -0.15600593388 1.1318660654e-05 -0 
-0.15602079034 -1.6149042494e-05 -0 -0.15605187416 -7.8150915215e-05 -0 -0.15611329675 -0.00023265072377 -0 
-0.15694275498 -0.00061464682221 -0 -0.1729939431 -0.0016150814481 -0 -0.22878029943 -0.002041160129 -0 
-0.34765073657 -0.0024531134404 -0 -0.45362961292 -0.0089018149301 -0 -0.46601945162 -0.024210043252 -0 
-0.44764977694 -0.027213970199 -0 -0.44206899405 -0.020041864365 -0 -0.43743133545 -0.011381827295 -0 
-0.42716872692 -0.0099992137402 -0 -0.41378891468 -0.008562781848 -0 -0.40100747347 -0.0047242906876 -0 
-0.38643947244 -0.0010851782281 -0 -0.36595389247 0.0033028421458 -0 -0.33403369784 0.0071488483809 -0 
-0.2811537087 0.0068190828897 -0 -0.21780614555 0.0026836618781 -0 -0.17454488575 0.0019109688001 -0 
-0.15533266962 9.1026107839e-05 -0 -0.16925691068 0.00040690251626 -0 -0.21617762744 1.3856821397e-06 -0 
-0.25615394115 -0.00010827185906 -0 -0.26807567477 -6.166726962e-05 -0 -0.26807805896 -3.5120701796e-05 -0 
-0.2680785358 -1.9598781364e-05 -0 -0.2680747509 -1.0159950762e-05 -0 -0.26806741953 -4.2538081289e-06 -0 
-0.26805758476 -5.1575358384e-07 -0 -0.26804608107 1.8401203761e-06 -0 -0.26803344488 3.5154716898e-06 -0 
-0.26802006364 4.4281259761e-06 -0 -0.26800629497 4.9509130804e-06 -0 -0.26799234748 5.1226074902e-06 -0 
-0.26797842979 4.9547766139e-06 -0 -0.26796472073 4.3782474677e-06 -0 -0.2679515481 3.1199390378e-06 -0 
-0.26793926954 8.9753967814e-07 -0 -0.2679284811 -3.200865649e-06 -0 -0.26792019606 -1.0969706636e-05 -0 
-0.26791617274 -2.6350910048e-05 -0 -0.26791876554 -5.7840963564e-05 -0 -0.26792913675 -0.0001286308252 -0 
-0.2679438889 -0.00027190175024 -0 -0.39540752769 -0.00074405613123 -0 -0.17448966205 0.00011261906911 -0 
-0.17449721694 0.00012237783812 -0 -0.17450624704 0.00012713276374 -0 -0.17451576889 0.00012923964823 -0 
-0.17452554405 0.00013011656119 -0 -0.17453558743 0.00013072266302 -0 -0.17454604805 0.00013170918101 -0 
-0.1745570749 0.00013341091108 -0 -0.17456875741 0.00013579244842 -0 -0.17458106577 0.00013843970373 -0 
-0.17459371686 0.00014065450523 -0 -0.17460627854 0.00014167003974 -0 -0.17461819947 0.00014094657672 -0 
-0.17462897301 0.00013845798094 -0 -0.17463828623 0.00013485124509 -0 -0.17464624345 0.00013138058421 -0 
-0.17465342581 0.00012958537263 -0 -0.17466087639 0.00013077248877 -0 -0.1746699959 0.00013543952082 -0 
-0.17468211055 0.00014281168114 -0 -0.174698174 0.00015066638298 -0 -0.17471827567 0.00015560684551 -0 
-0.17474137247 0.00015387736494 -0 -0.17476533353 0.00014262041077 -0 -0.17478731275 0.0001211851195 -0 
-0.1748046875 9.1875815997e-05 -0 -0.17481645942 5.9436351876e-05 -0 -0.17482447624 2.8718272006e-05 -0 
-0.17483370006 -7.013389336e-08 -0 -0.17485015094 -3.8382055209e-05 -0 -0.17487414181 -0.00011335421732 -0 
-0.17488403618 -0.00027007702738 -0 -0.1755027473 -0.00057969393674 -0 -0.1909108907 -0.0010168968001 -0 
-0.24380970001 0.00075774686411 -0 -0.34812450409 0.0054167937487 -0 -0.43931540847 -0.0072503280826 -0 
-0.45813021064 -0.022738302127 -0 -0.45115154982 -0.026959042996 -0 -0.44697874784 -0.026666156948 -0 
-0.44078862667 -0.021760059521 -0 -0.43008458614 -0.01959736459 -0 -0.41691344976 -0.014018966816 -0 
-0.40413630009 -0.010136433877 -0 -0.39108103514 -0.0043509355746 -0 -0.37147167325 0.0043566180393 -0 
-0.33591943979 0.012656869367 -0 -0.27663183212 0.011309017427 -0 -0.21316795051 0.0020004704129 -0 
-0.17383779585 0.00059489475098 -0 -0.15530125797 -0.00020045976271 -0 -0.1693495661 5.0629274483e-05 -0 
-0.21637445688 -8.1905272964e-05 -0 -0.25641280413 -0.0001152092882 -0 -0.26836678386 -7.7793403761e-05 -0 
-0.26836407185 -5.0111197197e-05 -0 -0.26835873723 -3.125105286e-05 -0 -0.26835119724 -1.8815035219e-05 -0 
-0.26834195852 -1.0694016055e-05 -0 -0.2683314383 -5.4134657148e-06 -0 -0.26831996441 -2.0348059024e-06 -0 
-0.26830792427 3.0757649938e-07 -0 -0.26829558611 1.613910058e-06 -0 -0.26828297973 2.3940117444e-06 -0 
-0.26827022433 2.6270815852e-06 -0 -0.26825746894 2.3927611892e-06 -0 -0.26824474335 1.6674871404e-06 -0 
-0.26823219657 -1.3120435938e-07 -0 -0.26821991801 -2.9179013836e-06 -0 -0.26820757985 -7.861260201e-06 -0 
-0.26819467545 -1.6688551113e-05 -0 -0.26817941666 -3.289524102e-05 -0 -0.2681568861 -6.3184343162e-05 -0 
-0.26811406016 -0.00012242392404 -0 -0.26802915335 -0.00022351913503 -0 -0.39541828632 -0.00044540446834 -0 
-0.18936730921 8.0283964053e-05 -0 -0.18942564726 8.5136809503e-05 -0 -0.18949063122 8.7450527644e-05 -0 
-0.18955883384 8.8300090283e-05 -0 -0.18962877989 8.8452943601e-05 -0 -0.18969972432 8.8514265371e-05 -0 
-0.1897713542 8.8950917416e-05 -0 -0.18984358013 9.0033507149e-05 -0 -0.1899164319 9.1760695796e-05 -0 
-0.18998987973 9.3828799436e-05 -0 -0.1900639236 9.5692070317e-05 -0 -0.1901383996 9.6725874755e-05 -0 
-0.19021303952 9.6459589258e-05 -0 -0.19028753042 9.4804636319e-05 -0 -0.1903616637 9.2182512162e-05 -0 
-0.19043539464 8.9477776783e-05 -0 -0.19050905108 8.77959028e-05 -0 -0.19058321416 8.8077838882e-05 -0 
-0.19065868855 9.0674693638e-05 -0 -0.19073626399 9.5008479548e-05 -0 -0.19081635773 9.9448821857e-05 -0 
-0.19089868665 0.00010152826144 -0 -0.19098211825 9.8556607554e-05 -0 -0.19106471539 8.8523083832e-05 -0 
-0.19114424288 7.0959322329e-05 -0 -0.19121874869 4.7368193918e-05 -0 -0.19128771126 2.0390227292e-05 -0 
-0.19135256112 -7.9467690739e-06 -0 -0.19141632318 -3.9279399061e-05 -0 -0.19147959352 -8.1999824033e-05 -0 
-0.1915332675 -0.00015098163567 -0 -0.1915499568 -0.00026103059645 -0 -0.19218674302 -0.00040472691762 -0 
-0.20772905648 -0.00040698214434 -0 -0.25929310918 0.0011697141454 -0 -0.3499147892 0.0053252433427 -0 
-0.4298466742 0.00014523135906 -0 -0.45028781891 -0.0049989549443 -0 -0.44613859057 -0.0088028954342 -0 
-0.44774740934 -0.012072739191 -0 -0.44386619329 -0.012886114419 -0 -0.43343800306 -0.014731515199 -0 
-0.42073509097 -0.012945204042 -0 -0.40872183442 -0.010158393532 -0 -0.39759290218 -0.0054023563862 -0 
-0.37588101625 -0.0017219632864 -0 -0.33290562034 0.0056715542451 -0 -0.26763096452 0.0050008702092 -0 
-0.20778137445 -0.0009932393441 -0 -0.17322906852 -0.0015851217322 -0 -0.15532107651 -0.00045565571054 -0 
-0.16951073706 -0.0002626660571 -0 -0.2164516151 -0.00018610899861 -0 -0.25647744536 -0.0001338555594 -0 
-0.26843738556 -8.7577434897e-05 -0 -0.26842549443 -5.7438657677e-05 -0 -0.26841250062 -3.7331861677e-05 -0 
-0.26839950681 -2.3982869607e-05 -0 -0.2683865726 -1.514894393e-05 -0 -0.26837366819 -9.3247635959e-06 -0 
-0.26836073399 -5.5141217672e-06 -0 -0.26834774017 -3.0137221074e-06 -0 -0.26833474636 -1.5113990912e-06 -0 