# vtk DataFile Version 5.1
vtk output
ASCII
DATASET UNSTRUCTURED_GRID
POINTS 9536 double
-10.1 1.4499999993 8.6074358308e-08 -10.049999999 1.4499999993 1.0829877084e-07 -10.049999999 1.5 -4.2207125261e-07 
-9.9999999985 1.4499999993 1.1536372568e-07 -9.9999999985 1.5 -4.417981927e-07 -9.9499999978 1.4499999993 1.1746647743e-07 
-9.9499999978 1.5 -4.49126901e-07 -9.899999997 1.4499999993 1.1845600767e-07 -9.899999997 1.5 -4.5235742618e-07 
-9.8499999963 1.4499999993 1.1882162454e-07 -9.8499999963 1.5 -4.5398209636e-07 -9.7999999955 1.4499999993 1.1905809316e-07 
-9.7999999955 1.5 -4.5500223678e-07 -9.7499999948 1.4499999993 1.1926728405e-07 -9.7499999948 1.5 -4.5569709073e-07 
-9.699999994 1.4499999993 1.1940552724e-07 -9.699999994 1.5 -4.5634646995e-07 -9.6499999933 1.4499999993 1.1957651225e-07 
-9.6499999933 1.5 -4.570576948e-07 -9.5999999925 1.4499999993 1.1986209358e-07 -9.5999999925 1.5 -4.5790716285e-07 
-9.5499999918 1.4499999993 1.2016040785e-07 -9.5499999918 1.5 -4.5881665756e-07 -9.4999999911 1.4499999993 1.2036777264e-07 
-9.4999999911 1.5 -4.6006812227e-07 -9.4499999903 1.4499999993 1.2068609578e-07 -9.4499999903 1.5 -4.6140507948e-07 
-9.3999999896 1.4499999993 1.2116267101e-07 -9.3999999896 1.5 -4.6286208999e-07 -9.3499999888 1.4499999993 1.2152101192e-07 
-9.3499999888 1.5 -4.6463924264e-07 -9.2999999881 1.4499999993 1.2201759603e-07 -9.2999999881 1.5 -4.6643822316e-07 
-9.2499999873 1.4499999993 1.2262513849e-07 -9.2499999873 1.5 -4.6853006097e-07 -9.1999999866 1.4499999993 1.2313445552e-07 
-9.1999999866 1.5 -4.7071316089e-07 -9.1499999858 1.4499999993 1.2372562708e-07 -9.1499999858 1.5 -4.7313028517e-07 
-9.0999999851 1.4499999993 1.2443685193e-07 -9.0999999851 1.5 -4.7556591198e-07 -9.0499999844 1.4499999993 1.2516626668e-07 
-9.0499999844 1.5 -4.781888947e-07 -8.9999999836 1.4499999993 1.2597207899e-07 -8.9999999836 1.5 -4.8104652706e-07 
-8.9499999829 1.4499999993 1.2671240768e-07 -8.9499999829 1.5 -4.8408060138e-07 -8.8999999821 1.4499999993 1.2747456424e-07 
-8.8999999821 1.5 -4.8717288337e-07 -8.8499999814 1.4499999993 1.2840042984e-07 -8.8499999814 1.5 -4.905489277e-07 
-8.7999999806 1.4499999993 1.2926444981e-07 -8.7999999806 1.5 -4.9403229241e-07 -8.7499999799 1.4499999993 1.3018667744e-07 
-8.7499999799 1.5 -4.976047876e-07 -8.6999999791 1.4499999993 1.3071418437e-07 -8.6999999791 1.5 -4.9949835557e-07 
-8.6499999784 1.4499999993 1.3178556912e-07 -8.6499999784 1.5 -5.034237347e-07 -8.5999999776 1.4499999993 1.3279328925e-07 
-8.5999999776 1.5 -5.0736548474e-07 -8.5499999769 1.4499999993 1.3396108045e-07 -8.5499999769 1.5 -5.1160009207e-07 
-8.4999999762 1.4499999993 1.3501791329e-07 -8.4999999762 1.5 -5.1591109695e-07 -8.4499999754 1.4499999993 1.3617479055e-07 
-8.4499999754 1.5 -5.2056770983e-07 -8.3999999747 1.4499999993 1.3742261729e-07 -8.3999999747 1.5 -5.2525160754e-07 
-8.3499999739 1.4499999993 1.3879049732e-07 -8.3499999739 1.5 -5.2989730648e-07 -8.2999999732 1.4499999993 1.4006742788e-07 
-8.2999999732 1.5 -5.3501230468e-07 -8.2499999724 1.4499999993 1.4137528126e-07 -8.2499999724 1.5 -5.4020370044e-07 
-8.1999999717 1.4499999993 1.4282865379e-07 -8.1999999717 1.5 -5.4558273632e-07 -8.1499999709 1.4499999993 1.4433295803e-07 
-8.1499999709 1.5 -5.5106124819e-07 -8.0999999702 1.4499999993 1.4576814067e-07 -8.0999999702 1.5 -5.5682380662e-07 
-8.0499999695 1.4499999993 1.4738522225e-07 -8.0499999695 1.5 -5.6277190197e-07 -7.9999999687 1.4499999993 1.4905141654e-07 
-7.9999999687 1.5 -5.6889825828e-07 -7.949999968 1.4499999993 1.5059210057e-07 -7.949999968 1.5 -5.7515558183e-07 
-7.8999999672 1.4499999993 1.523037696e-07 -7.8999999672 1.5 -5.816657449e-07 -7.8499999665 1.4499999993 1.5408728871e-07 
-7.8499999665 1.5 -5.8836599237e-07 -7.7999999657 1.4499999993 1.5581805712e-07 -7.7999999657 1.5 -5.9524904827e-07 
-7.749999965 1.4499999993 1.5775800932e-07 -7.749999965 1.5 -6.024022241e-07 -7.6999999642 1.4499999993 1.5962520195e-07 
-7.6999999642 1.5 -6.0980642047e-07 -7.6499999635 1.4499999993 1.615733396e-07 -7.6499999635 1.5 -6.1740433921e-07 
-7.5999999627 1.4499999993 1.6366426792e-07 -7.5999999627 1.5 -6.2521780819e-07 -7.549999962 1.4499999993 1.6573154937e-07 
-7.549999962 1.5 -6.3326075406e-07 -7.4999999613 1.4499999993 1.6792979807e-07 -7.4999999613 1.5 -6.4163509705e-07 
-7.4499999605 1.4499999993 1.7021626775e-07 -7.4499999605 1.5 -6.5012886807e-07 -7.3999999598 1.4499999993 1.7251910833e-07 
-7.3999999598 1.5 -6.58982799e-07 -7.349999959 1.4499999993 1.7488652304e-07 -7.349999959 1.5 -6.6811685429e-07 
-7.2999999583 1.4499999993 1.7737762903e-07 -7.2999999583 1.5 -6.7762744038e-07 -7.2499999575 1.4499999993 1.7987510148e-07 
-7.2499999575 1.5 -6.873235634e-07 -7.1999999568 1.4499999993 1.8252627854e-07 -7.1999999568 1.5 -6.9734073804e-07 
-7.149999956 1.4499999993 1.8526021961e-07 -7.149999956 1.5 -7.0768533078e-07 -7.0999999553 1.4499999993 1.8658262491e-07 
-7.0999999553 1.5 -7.1295403359e-07 -7.0499999546 1.4499999993 1.8945389968e-07 -7.0499999546 1.5 -7.2385614658e-07 
-6.9999999538 1.4499999993 1.9239975302e-07 -6.9999999538 1.5 -7.3503292697e-07 -6.9499999531 1.4499999993 1.9542018492e-07 
-6.9499999531 1.5 -7.4662807492e-07 -6.8999999523 1.4499999993 1.9858795497e-07 -6.8999999523 1.5 -7.5860521065e-07 
-6.8499999516 1.4499999993 2.0181666116e-07 -6.8499999516 1.5 -7.7095160123e-07 -6.7999999508 1.4499999993 2.0516542065e-07 
-6.7999999508 1.5 -7.837791145e-07 -6.7499999501 1.4499999993 2.0862695749e-07 -6.7499999501 1.5 -7.9700043898e-07 
-6.6999999493 1.4499999993 2.1218308177e-07 -6.6999999493 1.5 -8.1070106717e-07 -6.6499999486 1.4499999993 2.1583925047e-07 
-6.6499999486 1.5 -8.248237009e-07 -6.5999999478 1.4499999993 2.1971187891e-07 -6.5999999478 1.5 -8.3951294982e-07 
-6.5499999471 1.4499999993 2.2368728025e-07 -6.5499999471 1.5 -8.5461630306e-07 -6.4999999464 1.4499999993 2.2778546338e-07 
-6.4999999464 1.5 -8.7033299678e-07 -6.4499999456 1.4499999993 2.3204917454e-07 -6.4499999456 1.5 -8.866893495e-07 
-6.3999999449 1.4499999993 2.3647477576e-07 -6.3999999449 1.5 -9.0359958449e-07 -6.3499999441 1.4499999993 2.4112136998e-07 
-6.3499999441 1.5 -9.210891676e-07 -6.2999999434 1.4499999993 2.4580799618e-07 -6.2999999434 1.5 -9.3937637757e-07 
-6.2499999426 1.4499999993 2.507656518e-07 -6.2499999426 1.5 -9.5826294455e-07 -6.1999999419 1.4499999993 2.5593521968e-07 
-6.1999999419 1.5 -9.779780612e-07 -6.1499999411 1.4499999993 2.6132670428e-07 -6.1499999411 1.5 -9.9841759038e-07 
-6.0999999404 1.4499999993 2.6687143873e-07 -6.0999999404 1.5 -1.0197097708e-06 -6.0499999397 1.4499999993 2.7268038139e-07 
-6.0499999397 1.5 -1.0419364571e-06 -5.9999999389 1.4499999993 2.7872988539e-07 -5.9999999389 1.5 -1.0650730928e-06 
-5.9499999382 1.4499999993 2.8504905458e-07 -5.9499999382 1.5 -1.0891874354e-06 -5.8999999374 1.4499999993 2.9164243642e-07 
-5.8999999374 1.5 -1.1144335303e-06 -5.8499999367 1.4499999993 2.9856505535e-07 -5.8499999367 1.5 -1.1407671536e-06 
-5.7999999359 1.4499999993 3.0575733945e-07 -5.7999999359 1.5 -1.1683662251e-06 -5.7499999352 1.4499999993 3.1334025152e-07 
-5.7499999352 1.5 -1.1972440461e-06 -5.6999999344 1.4499999993 3.2123102756e-07 -5.6999999344 1.5 -1.2275293102e-06 
-5.6499999337 1.4499999993 3.2958428164e-07 -5.6499999337 1.5 -1.2593243355e-06 -5.5999999329 1.4499999993 3.3830542634e-07 
-5.5999999329 1.5 -1.2927246189e-06 -5.5499999322 1.4499999993 3.4286426853e-07 -5.5499999322 1.5 -1.3100749356e-06 
-5.4999999315 1.4499999993 3.5229300011e-07 -5.4999999315 1.5 -1.3462024526e-06 -5.4499999307 1.4499999993 3.6226970224e-07 
-5.4499999307 1.5 -1.3843152828e-06 -5.39999993 1.4499999993 3.7282620724e-07 -5.39999993 1.5 -1.4245258626e-06 
-5.3499999292 1.4499999993 3.8394250623e-07 -5.3499999292 1.5 -1.4671311419e-06 -5.2999999285 1.4499999993 3.9573956201e-07 
-5.2999999285 1.5 -1.5123061985e-06 -5.2499999277 1.4499999993 4.083242402e-07 -5.2499999277 1.5 -1.5602452095e-06 
-5.199999927 1.4499999993 4.2166789171e-07 -5.199999927 1.5 -1.6113237962e-06 -5.1499999262 1.4499999993 4.359619652e-07 
-5.1499999262 1.5 -1.6657975266e-06 -5.0999999255 1.4499999993 4.5123510972e-07 -5.0999999255 1.5 -1.724088861e-06 
-5.0499999247 1.4499999993 4.6759600991e-07 -5.0499999247 1.5 -1.7866220787e-06 -4.999999924 1.4499999993 4.8519063967e-07 
-4.999999924 1.5 -1.8539178654e-06 -4.9499999233 1.4499999993 5.0421772357e-07 -4.9499999233 1.5 -1.9265178253e-06 
-4.8999999225 1.4499999993 5.2477912504e-07 -4.8999999225 1.5 -2.0050929379e-06 -4.8499999218 1.4499999993 5.4715542319e-07 
-4.8499999218 1.5 -2.0905376914e-06 -4.799999921 1.4499999993 5.716024134e-07 -4.799999921 1.5 -2.1837604436e-06 
-4.7499999203 1.4499999993 5.983772553e-07 -4.7499999203 1.5 -2.2859858291e-06 -4.6999999195 1.4499999993 6.2787398747e-07 
-4.6999999195 1.5 -2.39858241e-06 -4.6499999188 1.4499999993 6.6055508796e-07 -4.6499999188 1.5 -2.523319381e-06 
-4.599999918 1.4499999993 6.9698558036e-07 -4.599999918 1.5 -2.6622569749e-06 -4.5499999173 1.4499999993 7.3782985055e-07 
-4.5499999173 1.5 -2.8180729714e-06 -4.4999999166 1.4499999993 7.8398761616e-07 -4.4999999166 1.5 -2.9940770219e-06 
-4.4499999158 1.4499999993 8.3654617811e-07 -4.4499999158 1.5 -3.1944391594e-06 -4.3999999151 1.4499999993 8.9692866823e-07 
-4.3999999151 1.5 -3.4245747429e-06 -4.3499999143 1.4499999993 9.6698613561e-07 -4.3499999143 1.5 -3.6914882457e-06 
-4.2999999136 1.4499999993 1.0492428828e-06 -4.2999999136 1.5 -4.0044587877e-06 -4.2499999128 1.4499999993 1.1469021501e-06 
-4.2499999128 1.5 -4.3760551307e-06 -4.1999999121 1.4499999993 1.264614184e-06 -4.1999999121 1.5 -4.8233941925e-06 
-4.1499999113 1.4499999993 1.4087047475e-06 -4.1499999113 1.5 -5.3704866332e-06 -4.0999999106 1.4499999993 1.5884165805e-06 
-4.0999999106 1.5 -6.0518841565e-06 -4.0499999098 1.4499999993 1.8173982426e-06 -4.0499999098 1.5 -6.9186639848e-06 
-3.9999999091 1.4499999993 2.1167159048e-06 -3.9999999091 1.5 -8.0490499386e-06 -3.9499999084 1.4499999993 2.3025834253e-06 
[...]
CELL_DATA 9090
FIELD FieldData 4
Water_Depth_m 1 9090 float
0.639997 0.639989 0.639982 0.639976 0.639971 0.639967 0.639964 0.639963 0.639964 
0.639967 0.639971 0.639977 0.639986 0.639995 0.640007 0.64002 0.640035 0.64005 
0.640067 0.640084 0.640101 0.640119 0.640136 0.640153 0.64017 0.640185 0.6402 
0.640213 0.640224 0.640234 0.640242 0.640247 0.640251 0.640252 0.640251 0.640247 
0.640241 0.640232 0.640221 0.640207 0.64019 0.64017 0.640148 0.640123 0.640095 
0.640064 0.640031 0.639995 0.639958 0.639918 0.639876 0.639833 0.639789 0.639744 
0.639698 0.639653 0.639609 0.639566 0.639525 0.639487 0.639451 0.639419 0.639391 
0.639368 0.63935 0.639337 0.63933 0.639329 0.639333 0.639343 0.639359 0.63938 
0.639406 0.639437 0.639472 0.63951 0.639552 0.639596 0.639642 0.639689 0.639736 
0.639784 0.639831 0.639877 0.639922 0.639965 0.640006 0.640045 0.64008 0.640114 
0.640144 0.640172 0.640197 0.640219 0.640238 0.640255 0.64027 0.640282 0.640293 
0.640302 0.64031 0.640317 0.640324 0.640331 0.640337 0.640345 0.640353 0.640364 
0.640376 0.640391 0.640408 0.640429 0.640454 0.640483 0.640517 0.640556 0.6406 
0.640649 0.640703 0.640762 0.640826 0.640893 0.640964 0.641035 0.641107 0.641176 
0.641257 0.641411 0.641836 0.641244 0.623385 0.585836 0.53998 0.494058 0.455557 
0.423642 0.394344 0.363954 0.328674 0.29158 0.257889 0.231637 0.2166 0.213135 
0.218227 0.225164 0.232069 0.238275 0.245906 0.25104 0.254673 0.259941 0.265763 
0.27324 0.282234 0.292294 0.304408 0.314492 0.324605 0.336648 0.342515 0.342139 
0.336054 0.323983 0.320675 0.329082 0.335762 0.340677 0.346398 0.352787 0.359848 
0.36657 0.372792 0.379412 0.386252 0.393838 0.401312 0.408675 0.41554 0.423141 
0.432345 0.441796 0.448742 0.455065 0.46128 0.46778 0.474709 0.482118 0.487536 
0.49255 0.496585 0.502801 0.512122 0.515051 0.516343 0.518646 0.518993 0.516133 
0.516571 0.511098 0.503489 0.487555 0.476575 0.463157 0.450527 0.437904 0.426026 
0.406843 0.383705 0.366769 0.363447 0.364273 0.364221 0.362764 0.362637 0.362626 
0.359175 0.355454 0.355476 0.355503 0.355532 0.355561 0.355589 0.355616 0.355641 
0.355665 0.355687 0.355708 0.355727 0.355745 0.355761 0.355776 0.35579 0.355802 
0.355814 0.355824 0.355834 0.355842 0.35585 0.355857 0.355864 0.35587 0.355875 
0.35588 0.355885 0.355889 0.355893 0.355896 0.3559 0.355903 0.355906 0.355908 
0.355911 0.355913 0.355915 0.355917 0.355919 0.355921 0.355923 0.355925 0.355927 
0.355928 0.35593 0.355932 0.355933 0.355935 0.355937 0.355938 0.35594 0.355942 
0.355943 0.355945 0.355947 0.355948 0.35595 0.355952 0.355954 0.355956 0.355958 
0.35596 0.355962 0.355964 0.355966 0.355968 0.35597 0.355973 0.355975 0.355977 
0.35598 0.355982 0.355985 0.355987 0.35599 0.355992 0.355976 0.355947 0.354528 
0.352091 0.348951 0.639997 0.639989 0.639982 0.639975 0.63997 0.639966 0.639963 
0.639962 0.639962 0.639965 0.639969 0.639975 0.639983 0.639993 0.640005 0.640018 
0.640033 0.640049 0.640065 0.640083 0.6401 0.640118 0.640136 0.640153 0.64017 
0.640186 0.640201 0.640214 0.640226 0.640235 0.640243 0.640249 0.640253 0.640254 
0.640253 0.64025 0.640244 0.640235 0.640224 0.640209 0.640192 0.640173 0.64015 
0.640125 0.640096 0.640066 0.640032 0.639996 0.639958 0.639918 0.639875 0.639832 
0.639787 0.639741 0.639696 0.63965 0.639605 0.639562 0.639521 0.639482 0.639446 
0.639414 0.639386 0.639362 0.639344 0.639331 0.639324 0.639323 0.639328 0.639338 
0.639354 0.639375 0.639402 0.639433 0.639468 0.639507 0.639549 0.639594 0.63964 
0.639687 0.639736 0.639784 0.639831 0.639878 0.639923 0.639966 0.640007 0.640046 
0.640082 0.640115 0.640146 0.640173 0.640198 0.64022 0.64024 0.640257 0.640271 
0.640284 0.640294 0.640303 0.640311 0.640318 0.640325 0.640331 0.640337 0.640344 
0.640352 0.640362 0.640374 0.640388 0.640405 0.640426 0.640451 0.640479 0.640513 
0.640551 0.640595 0.640644 0.640698 0.640758 0.640822 0.64089 0.640962 0.641035 
0.641109 0.641181 0.641248 0.641299 0.641456 0.64102 0.623372 0.584281 0.534643 
0.485021 0.445288 0.413674 0.385329 0.35568 0.321574 0.285292 0.252307 0.228357 
0.214387 0.220391 0.231118 0.23788 0.241615 0.245749 0.249735 0.255607 0.262548 
0.268622 0.274026 0.279881 0.286034 0.291339 0.301787 0.313019 0.326199 0.34862 
0.386096 0.412046 0.391283 0.341712 0.332921 0.343017 0.349508 0.353662 0.355828 
0.359215 0.364205 0.370562 0.379179 0.38736 0.394994 0.40312 0.409339 0.416693 
0.420903 0.426731 0.43373 0.441678 0.451109 0.459361 0.462089 0.4664 0.46835 
0.473061 0.480612 0.488645 0.492332 0.495757 0.502789 0.509153 0.509832 0.508845 
0.51183 0.513437 0.513584 0.506311 0.506412 0.479454 0.471888 0.462985 0.457224 
0.448704 0.440361 0.427445 0.407522 0.384653 0.366707 0.365848 0.365763 0.363714 
0.362678 0.362665 0.359095 0.355451 0.355479 0.355505 0.355534 0.355563 0.355591 
0.355618 0.355644 0.355668 0.35569 0.355711 0.35573 0.355748 0.355764 0.355779 
0.355792 0.355805 0.355816 0.355826 0.355836 0.355844 0.355852 0.355859 0.355865 
0.355871 0.355877 0.355882 0.355886 0.35589 0.355894 0.355898 0.355901 0.355904 
0.355907 0.355909 0.355912 0.355914 0.355916 0.355918 0.35592 0.355922 0.355924 
0.355926 0.355927 0.355929 0.355931 0.355932 0.355934 0.355936 0.355937 0.355939 
0.35594 0.355942 0.355944 0.355945 0.355947 0.355949 0.355951 0.355952 0.355954 
0.355956 0.355958 0.35596 0.355962 0.355964 0.355966 0.355969 0.355971 0.355973 
0.355975 0.355978 0.35598 0.355983 0.355985 0.355988 0.35599 0.355993 0.355977 
0.355948 0.354528 0.352091 0.348951 0.639996 0.639988 0.63998 0.639973 0.639967 
0.639962 0.639959 0.639957 0.639958 0.63996 0.639964 0.63997 0.639978 0.639988 
0.64 0.640014 0.640029 0.640045 0.640062 0.64008 0.640098 0.640116 0.640135 
0.640153 0.64017 0.640186 0.640202 0.640216 0.640228 0.640238 0.640247 0.640253 
0.640257 0.640259 0.640258 0.640255 0.640249 0.64024 0.640229 0.640214 0.640197 
0.640177 0.640154 0.640128 0.640099 0.640068 0.640034 0.639997 0.639958 0.639917 
0.639873 0.639829 0.639783 0.639736 0.639689 0.639643 0.639597 0.639553 0.63951 
0.639471 0.639434 0.639401 0.639373 0.639349 0.639331 0.639318 0.639311 0.63931 
0.639315 0.639326 0.639342 0.639364 0.639392 0.639423 0.63946 0.639499 0.639542 
0.639588 0.639635 0.639683 0.639732 0.639781 0.63983 0.639877 0.639923 0.639966 
0.640008 0.640047 0.640084 0.640117 0.640148 0.640176 0.640201 0.640223 0.640242 
0.640259 0.640273 0.640286 0.640296 0.640304 0.640312 0.640318 0.640324 0.640329 
0.640335 0.640341 0.640348 0.640357 0.640367 0.640381 0.640397 0.640416 0.64044 
0.640468 0.6405 0.640538 0.640581 0.64063 0.640684 0.640744 0.640808 0.640878 
0.640952 0.641028 0.641107 0.641186 0.641264 0.641331 0.641587 0.64104 0.622642 
0.581735 0.529445 0.477989 0.435953 0.403803 0.376168 0.347943 0.315447 0.280355 
0.248684 0.224844 0.219808 0.228195 0.238592 0.245593 0.249718 0.253948 0.258702 
0.264918 0.272328 0.279624 0.286381 0.291077 0.293807 0.296333 0.299988 0.308966 
0.325516 0.347098 0.378393 0.3964 0.381113 0.342664 0.347176 0.35516 0.36192 
0.366038 0.366175 0.369522 0.376163 0.384586 0.394005 0.402889 0.410042 0.416943 
0.422373 0.427888 0.435291 0.442397 0.449779 0.458407 0.466002 0.472328 0.473583 
0.475114 0.482964 0.491993 0.49852 0.50447 0.512445 0.520784 0.524461 0.526284 
0.526545 0.529924 0.533509 0.533872 0.531097 0.531659 0.529418 0.505768 0.497222 
0.485218 0.47444 0.464803 0.454544 0.443876 0.428784 0.411385 0.385079 0.366919 
0.366067 0.364906 0.363196 0.363166 0.359051 0.355443 0.355469 0.3555 0.355531 
0.355561 0.35559 0.355618 0.355644 0.355668 0.35569 0.355711 0.35573 0.355748 
0.355764 0.355779 0.355792 0.355805 0.355816 0.355826 0.355835 0.355844 0.355852 
0.355859 0.355865 0.355871 0.355876 0.355881 0.355885 0.355889 0.355893 0.355897 
0.3559 0.355903 0.355906 0.355908 0.355911 0.355913 0.355915 0.355917 0.355919 
0.355921 0.355923 0.355925 0.355926 0.355928 0.35593 0.355931 0.355933 0.355935 
0.355936 0.355938 0.35594 0.355941 0.355943 0.355945 0.355946 0.355948 0.35595 
0.355952 0.355954 0.355956 0.355958 0.35596 0.355962 0.355964 0.355966 0.355968 
0.35597 0.355972 0.355975 0.355977 0.35598 0.355982 0.355985 0.355987 0.35599 
0.355992 0.355976 0.355947 0.354527 0.35209 0.34895 0.639995 0.639986 0.639977 
0.639969 0.639962 0.639957 0.639953 0.639951 0.639951 0.639953 0.639957 0.639963 
0.639971 0.639981 0.639993 0.640007 0.640022 0.640039 0.640057 0.640075 0.640095 
0.640114 0.640133 0.640152 0.640171 0.640188 0.640204 0.640219 0.640232 0.640244 
0.640253 0.64026 0.640265 0.640267 0.640266 0.640263 0.640258 0.640249 0.640237 
0.640223 0.640205 0.640185 0.640161 0.640134 0.640105 0.640072 0.640037 0.639999 
0.639958 0.639916 0.639871 0.639825 0.639777 0.639729 0.63968 0.639632 0.639585 
0.639539 0.639495 0.639454 0.639416 0.639382 0.639353 0.639329 0.639311 0.639298 
0.639291 0.63929 0.639296 0.639307 0.639325 0.639348 0.639376 0.639409 0.639446 
0.639488 0.639532 0.639579 0.639628 0.639678 0.639728 0.639779 0.639828 0.639876 
0.639923 0.639968 0.640011 0.64005 0.640088 0.640122 0.640153 0.640181 0.640206 
0.640229 0.640248 0.640264 0.640278 0.64029 0.6403 0.640308 0.640314 0.64032 
0.640324 0.640328 0.640333 0.640338 0.640343 0.64035 0.64036 0.640371 0.640386 
0.640404 0.640426 0.640452 0.640484 0.64052 0.640562 0.64061 0.640664 0.640724 
0.64079 0.640862 0.640939 0.64102 0.641105 0.641193 0.64128 0.641345 0.641608 
0.641061 0.621958 0.579485 0.524826 0.469633 0.427105 0.394488 0.36711 0.340966 
0.310809 0.280288 0.258308 0.242846 0.234465 0.236574 0.241927 0.249282 0.256743 
0.262927 0.269052 0.275816 0.283286 0.290861 0.297419 0.30157 0.303548 0.305365 
0.309104 0.315608 0.323555 0.334056 0.335796 0.337136 0.345206 0.353794 0.360341 
0.365378 0.367083 0.368817 0.374502 0.381209 0.390007 0.399567 0.408105 0.415914 
0.421916 0.428069 0.435813 0.443732 0.451286 0.459413 0.465969 0.47199 0.479275 
0.485148 0.487638 0.492137 0.504485 0.516784 0.523282 0.527411 0.536409 0.544301 
0.545428 0.548432 0.551062 0.554571 0.555245 0.554064 0.553364 0.548676 0.54539 
0.533207 0.529592 0.521423 0.509177 0.491265 0.474756 0.45994 0.444458 0.428949 
0.40637 0.378415 0.366498 0.365617 0.363715 0.363514 0.358977 0.355437 0.355466 
0.355499 0.355532 0.355564 0.355594 0.355622 0.355648 0.355672 0.355695 0.355716 
0.355735 0.355752 0.355768 0.355783 0.355796 0.355808 0.355819 0.355829 0.355838 
0.355846 0.355854 0.35586 0.355867 0.355872 0.355878 0.355882 0.355887 0.355891 
0.355894 0.355898 0.355901 0.355904 0.355906 0.355909 0.355911 0.355914 0.355916 
0.355918 0.35592 0.355921 0.355923 0.355925 0.355927 0.355928 0.35593 0.355932 
0.355933 0.355935 0.355937 0.355938 0.35594 0.355941 0.355943 0.355945 0.355947 
0.355948 0.35595 0.355952 0.355954 0.355956 0.355958 0.35596 0.355962 0.355964 
0.355966 0.355968 0.35597 0.355972 0.355975 0.355977 0.35598 0.355982 0.355985 
0.355987 0.35599 0.355992 0.355976 0.355947 0.354527 0.35209 0.34895 0.639995 
0.639984 0.639974 0.639964 0.639956 0.63995 0.639945 0.639942 0.639941 0.639943 
0.639946 0.639953 0.639961 0.639971 0.639984 0.639998 0.640014 0.640031 0.64005 
0.64007 0.64009 0.640111 0.640131 0.640152 0.640171 0.64019 0.640208 0.640224 
0.640239 0.640251 0.640262 0.64027 0.640275 0.640278 0.640278 0.640276 0.64027 
0.640261 0.640249 0.640235 0.640217 0.640195 0.640171 0.640143 0.640113 0.640079 
0.640042 0.640002 0.639959 0.639915 0.639868 0.639819 0.639769 0.639718 0.639667 
0.639616 0.639567 0.639519 0.639473 0.63943 0.639391 0.639356 0.639325 0.639301 
0.639281 0.639269 0.639262 0.639262 0.639268 0.639281 0.639299 0.639324 0.639354 
0.639389 0.639428 0.639471 0.639518 0.639567 0.639618 0.63967 0.639722 0.639775 
0.639826 0.639876 0.639924 0.63997 0.640014 0.640055 0.640093 0.640128 0.64016 
0.640188 0.640214 0.640236 0.640256 0.640272 0.640286 0.640297 0.640306 0.640313 
0.640318 0.640322 0.640325 0.640328 0.640331 0.640333 0.640337 0.640342 0.640349 
0.640358 0.640371 0.640386 0.640406 0.640431 0.64046 0.640495 0.640536 0.640583 
0.640636 0.640697 0.640764 0.640838 0.640918 0.641005 0.641098 0.641196 0.641297 
0.641376 0.64165 0.641081 0.621482 0.577972 0.522368 0.467443 0.421367 0.386143 
0.357511 0.331575 0.305782 0.283394 0.268411 0.258337 0.251114 0.247518 0.251626 
0.25802 0.265481 0.272619 0.279206 0.286188 0.293629 0.300959 0.307466 0.311414 
0.313108 0.314891 0.317947 0.322893 0.329179 0.335576 0.342576 0.349653 0.356575 
0.363587 0.369938 0.374056 0.375321 0.378754 0.384957 0.393076 0.402291 0.411334 
0.419355 0.426531 0.433282 0.440373 0.449048 0.457889 0.465399 0.473469 0.483034 
0.490773 0.493951 0.496679 0.506098 0.517555 0.528918 0.541936 0.550473 0.558491 
0.563 0.56516 0.568418 0.576394 0.577382 0.578349 0.579669 0.580676 0.580827 
0.567576 0.563089 0.553636 0.552288 0.547655 0.537743 0.520821 0.499462 0.480012 
0.461853 0.444044 0.423778 0.399041 0.375211 0.365336 0.364032 0.363607 0.358902 
0.355428 0.355462 0.355499 0.355534 0.355568 0.355599 0.355627 0.355654 0.355678 
0.355701 0.355721 0.35574 0.355757 0.355773 0.355787 0.3558 0.355812 0.355823 
0.355832 0.355841 0.355849 0.355856 0.355863 0.355869 0.355874 0.355879 0.355884 
0.355888 0.355892 0.355896 0.355899 0.355902 0.355905 0.355907 0.35591 0.355912 
0.355914 0.355916 0.355918 0.35592 0.355922 0.355924 0.355925 0.355927 0.355929 
0.35593 0.355932 0.355933 0.355935 0.355937 0.355938 0.35594 0.355942 0.355943 
0.355945 0.355947 0.355948 0.35595 0.355952 0.355954 0.355956 0.355958 0.35596 
0.355962 0.355964 0.355966 0.355968 0.35597 0.355972 0.355975 0.355977 0.35598 
0.355982 0.355985 0.355987 0.35599 0.355992 0.355976 0.355947 0.354527 0.35209 
0.34895 0.639994 0.639981 0.639969 0.639958 0.639948 0.63994 0.639934 0.639931 
0.639929 0.63993 0.639933 0.639939 0.639948 0.639958 0.639971 0.639986 0.640003 
0.640022 0.640041 0.640062 0.640084 0.640106 0.640129 0.640151 0.640173 0.640193 
0.640213 0.640231 0.640247 0.640261 0.640273 0.640283 0.640289 0.640293 0.640294 
0.640292 0.640287 0.640278 0.640266 0.640251 0.640232 0.64021 0.640185 0.640156 
0.640123 0.640087 0.640048 0.640006 0.639961 0.639913 0.639863 0.639812 0.639759 
0.639705 0.63965 0.639596 0.639544 0.639493 0.639444 0.639399 0.639357 0.639321 
0.639289 0.639263 0.639244 0.639231 0.639224 0.639225 0.639232 0.639246 0.639267 
0.639293 0.639325 0.639362 0.639404 0.63945 0.6395 0.639552 0.639606 0.63966 
0.639715 0.63977 0.639823 0.639875 0.639925 0.639973 0.640019 0.640061 0.6401 
0.640136 0.640169 0.640198 0.640224 0.640247 0.640266 0.640282 0.640295 0.640306 
0.640314 0.64032 0.640324 0.640326 0.640328 0.640328 0.640328 0.640329 0.64033 
0.640332 0.640336 0.640343 0.640352 0.640364 0.640381 0.640403 0.640429 0.640462 
0.640501 0.640546 0.640599 0.640659 0.640727 0.640804 0.640888 0.640981 0.641083 
0.641192 0.641307 0.641396 0.641683 0.641096 0.621024 0.576516 0.519648 0.461978 
0.41522 0.378581 0.349318 0.323976 0.302577 0.285268 0.273924 0.267657 0.261927 
0.25863 0.262176 0.268332 0.275639 0.282813 0.289874 0.296292 0.302251 0.308335 
0.314541 0.318425 0.320328 0.323115 0.326924 0.331461 0.336599 0.342687 0.350134 
0.357958 0.365218 0.370864 0.373498 0.37675 0.38314 0.389546 0.396612 0.404518 
0.413743 0.422449 0.429691 0.436886 0.445446 0.454034 0.462175 0.470444 0.479639 
0.48846 0.498913 0.508092 0.511271 0.516847 0.528289 0.541171 0.550877 0.558505 
0.573684 0.585882 0.589639 0.591177 0.597096 0.601655 0.603352 0.607721 0.611338 
0.611614 0.611 0.591068 0.586831 0.567535 0.566285 0.563852 0.556493 0.545461 
0.526873 0.505783 0.484573 0.462015 0.43868 0.418345 0.390598 0.367884 0.364442 
0.364078 0.358854 0.355421 0.35546 0.3555 0.355538 0.355573 0.355606 0.355635 
0.355662 0.355686 0.355709 0.355729 0.355748 0.355764 0.35578 0.355793 0.355806 
0.355817 0.355827 0.355837 0.355845 0.355853 0.35586 0.355866 0.355872 0.355877 
0.355882 0.355886 0.35589 0.355894 0.355897 0.3559 0.355903 0.355906 0.355908 
0.355911 0.355913 0.355915 0.355917 0.355919 0.355921 0.355922 0.355924 0.355926 
0.355927 0.355929 0.355931 0.355932 0.355934 0.355935 0.355937 0.355938 0.35594 
0.355942 0.355943 0.355945 0.355947 0.355948 0.35595 0.355952 0.355954 0.355956 
0.355958 0.35596 0.355962 0.355964 0.355966 0.355968 0.35597 0.355972 0.355975 
0.355977 0.35598 0.355982 0.355985 0.355987 0.35599 0.355992 0.355976 0.355947 
0.354527 0.35209 0.34895 0.639992 0.639977 0.639963 0.63995 0.639938 0.639929 
0.639922 0.639917 0.639914 0.639914 0.639917 0.639923 0.639931 0.639942 0.639956 
0.639972 0.639989 0.640009 0.640031 0.640053 0.640077 0.640101 0.640126 0.64015 
0.640174 0.640197 0.640219 0.640239 0.640258 0.640274 0.640288 0.640299 0.640307 
0.640312 0.640314 0.640313 0.640308 0.640299 0.640287 0.640272 0.640252 0.640229 
0.640202 0.640172 0.640137 0.640099 0.640057 0.640012 0.639964 0.639912 0.639859 
0.639803 0.639746 0.639688 0.639629 0.639572 0.639515 0.63946 0.639408 0.63936 
0.639316 0.639277 0.639244 0.639217 0.639197 0.639184 0.639178 0.63918 0.639188 
0.639204 0.639227 0.639256 0.63929 0.63933 0.639376 0.639425 0.639479 0.639534 
0.639591 0.639649 0.639707 0.639764 0.639821 0.639875 0.639928 0.639978 0.640025 
0.640069 0.640109 0.640146 0.64018 0.64021 0.640236 0.640259 0.640279 0.640295 
0.640307 0.640317 0.640324 0.640329 0.640331 0.640332 0.640331 0.640329 0.640326 
0.640324 0.640322 0.64032 0.640321 0.640324 0.640329 0.640338 0.640351 0.640369 
0.640392 0.640422 0.640458 0.640501 0.640552 0.640612 0.64068 0.640758 0.640846 
0.640945 0.641055 0.641175 0.641304 0.641405 0.641707 0.641101 0.620345 0.574382 
0.516103 0.458937 0.408985 0.371187 0.343144 0.321598 0.301885 0.285503 0.274674 
0.268739 0.264263 0.267737 0.274053 0.279765 0.28515 0.291513 0.29825 0.303786 
0.308143 0.312258 0.315823 0.31972 0.324157 0.328745 0.334122 0.338755 0.342615 
0.347856 0.354388 0.362049 0.369919 0.3755 0.37903 0.383854 0.391233 0.39959 
0.407266 0.415805 0.423568 0.431912 0.440721 0.449043 0.457945 0.46697 0.476401 
0.486471 0.496876 0.505442 0.511971 0.51774 0.526106 0.537076 0.550201 0.564043 
0.574701 0.585507 0.596073 0.605947 0.612021 0.617567 0.625068 0.629241 0.631902 
0.638385 0.640475 0.640641 0.635558 0.618547 0.611007 0.578418 0.574454 0.573245 
0.571521 0.566553 0.554705 0.537083 0.511792 0.484573 0.455941 0.431951 0.406886 
0.377643 0.36454 0.364093 0.358815 0.355416 0.35546 0.355504 0.355545 0.355582 
0.355615 0.355645 0.355672 0.355696 0.355719 0.355738 0.355756 0.355773 0.355787 
0.355801 0.355813 0.355823 0.355833 0.355842 0.35585 0.355857 0.355864 0.35587 
0.355875 0.35588 0.355884 0.355889 0.355892 0.355896 0.355899 0.355902 0.355905 
0.355907 0.355909 0.355912 0.355914 0.355916 0.355918 0.355919 0.355921 0.355923 
0.355925 0.355926 0.355928 0.355929 0.355931 0.355932 0.355934 0.355936 0.355937 
0.355939 0.35594 0.355942 0.355943 0.355945 0.355947 0.355949 0.35595 0.355952 
0.355954 0.355956 0.355958 0.35596 0.355962 0.355964 0.355966 0.355968 0.35597 
0.355972 0.355975 0.355977 0.35598 0.355982 0.355985 0.355987 0.35599 0.355992 
0.355976 0.355947 0.354527 0.35209 0.34895 0.639991 0.639973 0.639956 0.639941 
0.639927 0.639916 0.639907 0.6399 0.639897 0.639896 0.639899 0.639904 0.639912 
0.639924 0.639938 0.639954 0.639974 0.639995 0.640018 0.640042 0.640068 0.640095 
0.640122 0.640149 0.640176 0.640202 0.640226 0.640249 0.64027 0.640289 0.640305 
0.640318 0.640329 0.640335 0.640339 0.640338 0.640334 0.640325 0.640313 0.640297 
0.640277 0.640252 0.640224 0.640191 0.640154 0.640113 0.640068 0.640019 0.639967 
0.639912 0.639853 0.639793 0.639731 0.639668 0.639605 0.639542 0.639481 0.639422 
0.639366 0.639314 0.639267 0.639226 0.63919 0.639162 0.639141 0.639128 0.639123 
0.639126 0.639136 0.639155 0.63918 0.639212 0.63925 0.639294 0.639344 0.639398 
0.639455 0.639515 0.639576 0.639638 0.639699 0.63976 0.639819 0.639876 0.639931 
0.639983 0.640033 0.640078 0.64012 0.640159 0.640194 0.640225 0.640252 0.640275 
0.640294 0.64031 0.640322 0.640331 0.640337 0.64034 0.64034 0.640339 0.640335 
0.64033 0.640324 0.640318 0.640312 0.640307 0.640303 0.640301 0.640302 0.640307 
0.640315 0.640329 0.640348 0.640373 0.640405 0.640446 0.640494 0.640552 0.64062 