# vtk DataFile Version 5.1
vtk output
ASCII
DATASET UNSTRUCTURED_GRID
POINTS 616 double
-10.1 1.299999997 0 -9.899999997 1.299999997 0 -9.899999997 1.5 0 
-9.699999994 1.299999997 0 -9.699999994 1.5 0 -9.4999999911 1.299999997 0 
-9.4999999911 1.5 0 -9.2999999881 1.299999997 0 -9.2999999881 1.5 0 
-9.0999999851 1.299999997 0 -9.0999999851 1.5 0 -8.8999999821 1.299999997 0 
-8.8999999821 1.5 0 -8.6999999791 1.299999997 0 -8.6999999791 1.5 0 
-8.4999999762 1.299999997 0 -8.4999999762 1.5 0 -8.2999999732 1.299999997 0 
-8.2999999732 1.5 0 -8.0999999702 1.299999997 0 -8.0999999702 1.5 0 
-7.8999999672 1.299999997 0 -7.8999999672 1.5 0 -7.6999999642 1.299999997 0 
-7.6999999642 1.5 0 -7.4999999613 1.299999997 0 -7.4999999613 1.5 0 
-7.2999999583 1.299999997 0 -7.2999999583 1.5 0 -7.0999999553 1.299999997 0 
-7.0999999553 1.5 0 -6.8999999523 1.299999997 0 -6.8999999523 1.5 0 
-6.6999999493 1.299999997 0 -6.6999999493 1.5 0 -6.4999999464 1.299999997 0 
-6.4999999464 1.5 0 -6.2999999434 1.299999997 0 -6.2999999434 1.5 0 
-6.0999999404 1.299999997 0 -6.0999999404 1.5 0 -5.8999999374 1.299999997 0 
-5.8999999374 1.5 0 -5.6999999344 1.299999997 0 -5.6999999344 1.5 0 
-5.4999999315 1.299999997 0 -5.4999999315 1.5 0 -5.2999999285 1.299999997 0 
-5.2999999285 1.5 0 -5.0999999255 1.299999997 0 -5.0999999255 1.5 0 
-4.8999999225 1.299999997 0 -4.8999999225 1.5 0 -4.6999999195 1.299999997 0 
-4.6999999195 1.5 0 -4.4999999166 1.299999997 0 -4.4999999166 1.5 0 
-4.2999999136 1.299999997 0 -4.2999999136 1.5 0 -4.0999999106 1.299999997 0 
-4.0999999106 1.5 0 -3.8999999076 1.299999997 0 -3.8999999076 1.5 0 
-3.6999999046 1.299999997 0 -3.6999999046 1.5 0 -3.4999999017 1.299999997 0 
-3.4999999017 1.5 0 -3.2999998987 1.299999997 0 -3.2999998987 1.5 0 
-3.0999998957 1.299999997 0 -3.0999998957 1.5 0 -2.8999998927 1.299999997 0 
-2.8999998927 1.5 0 -2.6999998897 1.299999997 0 -2.6999998897 1.5 0 
-2.4999998868 1.299999997 0 -2.4999998868 1.5 0 -2.2999998838 1.299999997 0 
-2.2999998838 1.5 0 -2.0999998808 1.299999997 0 -2.0999998808 1.5 0 
-1.8999998778 1.299999997 0 -1.8999998778 1.5 0 -1.6999998748 1.299999997 0 
-1.6999998748 1.5 0 -1.4999998719 1.299999997 0 -1.4999998719 1.5 0 
-1.2999998689 1.299999997 0 -1.2999998689 1.5 0 -1.0999998659 1.299999997 0 
-1.0999998659 1.5 0 -0.89999986291 1.299999997 0 -0.89999986291 1.5 0 
-0.69999985993 1.299999997 0 -0.69999985993 1.5 0 -0.49999985695 1.299999997 0 
-0.49999985695 1.5 0 -0.29999985397 1.299999997 0 -0.29999985397 1.5 0 
-0.099999850988 1.299999997 0 -0.099999850988 1.5 0 0.10000015199 1.299999997 0 
0.10000015199 1.5 0 0.30000015497 1.299999997 0 0.30000015497 1.5 0 
0.50000015795 1.299999997 0 0.50000015795 1.5 0 0.70000016093 1.299999997 0 
0.70000016093 1.5 0 0.90000016391 1.299999997 0 0.90000016391 1.5 0 
1.1000001669 1.299999997 0 1.1000001669 1.5 0 1.3000001699 1.299999997 0 
1.3000001699 1.5 0 1.5000001729 1.299999997 0 1.5000001729 1.5 0 
1.7000001758 1.299999997 0 1.7000001758 1.5 0 1.9000001788 1.299999997 0 
1.9000001788 1.5 0 2.1000001818 1.299999997 0 2.1000001818 1.5 0 
2.3000001848 1.299999997 0 2.3000001848 1.5 0 2.5000001878 1.299999997 0 
2.5000001878 1.5 0 2.7000001907 1.299999997 0 2.7000001907 1.5 0 
2.9000001937 1.299999997 0 2.9000001937 1.5 0 3.1000001967 1.299999997 0 
3.1000001967 1.5 0 3.3000001997 1.299999997 0 3.3000001997 1.5 0 
3.5000002027 1.299999997 0 3.5000002027 1.5 0 3.7000002056 1.299999997 0 
3.7000002056 1.5 0 3.9000002086 1.299999997 0 3.9000002086 1.5 0 
4.1000002116 1.299999997 0 4.1000002116 1.5 0 4.3000002146 1.299999997 0 
4.3000002146 1.5 0 4.5000002176 1.299999997 0 4.5000002176 1.5 0 
4.7000002205 1.299999997 0 4.7000002205 1.5 0 4.9000002235 1.299999997 0 
4.9000002235 1.5 0 5.08 1.299999997 0 -9.899999997 1.099999994 0 
-10.1 1.099999994 0 -9.699999994 1.099999994 0 -9.4999999911 1.099999994 0 
-9.2999999881 1.099999994 0 -9.0999999851 1.099999994 0 -8.8999999821 1.099999994 0 
-8.6999999791 1.099999994 0 -8.4999999762 1.099999994 0 -8.2999999732 1.099999994 0 
-8.0999999702 1.099999994 0 -7.8999999672 1.099999994 0 -7.6999999642 1.099999994 0 
-7.4999999613 1.099999994 0 -7.2999999583 1.099999994 0 -7.0999999553 1.099999994 0 
-6.8999999523 1.099999994 0 -6.6999999493 1.099999994 0 -6.4999999464 1.099999994 0 
-6.2999999434 1.099999994 0 -6.0999999404 1.099999994 0 -5.8999999374 1.099999994 0 
-5.6999999344 1.099999994 0 -5.4999999315 1.099999994 0 -5.2999999285 1.099999994 0 
-5.0999999255 1.099999994 0 -4.8999999225 1.099999994 0 -4.6999999195 1.099999994 0 
-4.4999999166 1.099999994 0 -4.2999999136 1.099999994 0 -4.0999999106 1.099999994 0 
-3.8999999076 1.099999994 0 -3.6999999046 1.099999994 0 -3.4999999017 1.099999994 0 
-3.2999998987 1.099999994 0 -3.0999998957 1.099999994 0 -2.8999998927 1.099999994 0 
-2.6999998897 1.099999994 0 -2.4999998868 1.099999994 0 -2.2999998838 1.099999994 0 
-2.0999998808 1.099999994 0 -1.8999998778 1.099999994 0 -1.6999998748 1.099999994 0 
-1.4999998719 1.099999994 0 -1.2999998689 1.099999994 0 -1.0999998659 1.099999994 0 
-0.89999986291 1.099999994 0 -0.69999985993 1.099999994 0 -0.49999985695 1.099999994 0 
-0.29999985397 1.099999994 0 -0.099999850988 1.099999994 0 0.10000015199 1.099999994 0 
0.30000015497 1.099999994 0 0.50000015795 1.099999994 0 0.70000016093 1.099999994 0 
0.90000016391 1.099999994 0 1.1000001669 1.099999994 0 1.3000001699 1.099999994 0 
1.5000001729 1.099999994 0 1.7000001758 1.099999994 0 1.9000001788 1.099999994 0 
2.1000001818 1.099999994 0 2.3000001848 1.099999994 0 2.5000001878 1.099999994 0 
2.7000001907 1.099999994 0 2.9000001937 1.099999994 0 3.1000001967 1.099999994 0 
3.3000001997 1.099999994 0 3.5000002027 1.099999994 0 3.7000002056 1.099999994 0 
3.9000002086 1.099999994 0 4.1000002116 1.099999994 0 4.3000002146 1.099999994 0 
4.5000002176 1.099999994 0 4.7000002205 1.099999994 0 4.9000002235 1.099999994 0 
5.08 1.099999994 0 -9.899999997 0.89999999106 0 -10.1 0.89999999106 0 
-9.699999994 0.89999999106 0 -9.4999999911 0.89999999106 0 -9.2999999881 0.89999999106 0 
-9.0999999851 0.89999999106 0 -8.8999999821 0.89999999106 0 -8.6999999791 0.89999999106 0 
-8.4999999762 0.89999999106 0 -8.2999999732 0.89999999106 0 -8.0999999702 0.89999999106 0 
-7.8999999672 0.89999999106 0 -7.6999999642 0.89999999106 0 -7.4999999613 0.89999999106 0 
-7.2999999583 0.89999999106 0 -7.0999999553 0.89999999106 0 -6.8999999523 0.89999999106 0 
-6.6999999493 0.89999999106 0 -6.4999999464 0.89999999106 0 -6.2999999434 0.89999999106 0 
-6.0999999404 0.89999999106 0 -5.8999999374 0.89999999106 0 -5.6999999344 0.89999999106 0 
-5.4999999315 0.89999999106 0 -5.2999999285 0.89999999106 0 -5.0999999255 0.89999999106 0 
-4.8999999225 0.89999999106 0 -4.6999999195 0.89999999106 0 -4.4999999166 0.89999999106 0 
-4.2999999136 0.89999999106 0 -4.0999999106 0.89999999106 0 -3.8999999076 0.89999999106 0 
-3.6999999046 0.89999999106 0 -3.4999999017 0.89999999106 0 -3.2999998987 0.89999999106 0 
-3.0999998957 0.89999999106 0 -2.8999998927 0.89999999106 0 -2.6999998897 0.89999999106 0 
-2.4999998868 0.89999999106 0 -2.2999998838 0.89999999106 0 -2.0999998808 0.89999999106 0 
-1.8999998778 0.89999999106 0 -1.6999998748 0.89999999106 0 -1.4999998719 0.89999999106 0 
-1.2999998689 0.89999999106 0 -1.0999998659 0.89999999106 0 -0.89999986291 0.89999999106 0 
-0.69999985993 0.89999999106 0 -0.49999985695 0.89999999106 0 -0.29999985397 0.89999999106 0 
-0.099999850988 0.89999999106 0 0.10000015199 0.89999999106 0 0.30000015497 0.89999999106 0 
0.50000015795 0.89999999106 0 0.70000016093 0.89999999106 0 0.90000016391 0.89999999106 0 
1.1000001669 0.89999999106 0 1.3000001699 0.89999999106 0 1.5000001729 0.89999999106 0 
1.7000001758 0.89999999106 0 1.9000001788 0.89999999106 0 2.1000001818 0.89999999106 0 
2.3000001848 0.89999999106 0 2.5000001878 0.89999999106 0 2.7000001907 0.89999999106 0 
2.9000001937 0.89999999106 0 3.1000001967 0.89999999106 0 3.3000001997 0.89999999106 0 
3.5000002027 0.89999999106 0 3.7000002056 0.89999999106 0 3.9000002086 0.89999999106 0 
4.1000002116 0.89999999106 0 4.3000002146 0.89999999106 0 4.5000002176 0.89999999106 0 
4.7000002205 0.89999999106 0 4.9000002235 0.89999999106 0 5.08 0.89999999106 0 
-9.899999997 0.69999998808 0 -10.1 0.69999998808 0 -9.699999994 0.69999998808 0 
-9.4999999911 0.69999998808 0 -9.2999999881 0.69999998808 0 -9.0999999851 0.69999998808 0 
-8.8999999821 0.69999998808 0 -8.6999999791 0.69999998808 0 -8.4999999762 0.69999998808 0 
-8.2999999732 0.69999998808 0 -8.0999999702 0.69999998808 0 -7.8999999672 0.69999998808 0 
-7.6999999642 0.69999998808 0 -7.4999999613 0.69999998808 0 -7.2999999583 0.69999998808 0 
-7.0999999553 0.69999998808 0 -6.8999999523 0.69999998808 0 -6.6999999493 0.69999998808 0 
-6.4999999464 0.69999998808 0 -6.2999999434 0.69999998808 0 -6.0999999404 0.69999998808 0 
-5.8999999374 0.69999998808 0 -5.6999999344 0.69999998808 0 -5.4999999315 0.69999998808 0 
-5.2999999285 0.69999998808 0 -5.0999999255 0.69999998808 0 -4.8999999225 0.69999998808 0 
-4.6999999195 0.69999998808 0 -4.4999999166 0.69999998808 0 -4.2999999136 0.69999998808 0 
-4.0999999106 0.69999998808 0 -3.8999999076 0.69999998808 0 -3.6999999046 0.69999998808 0 
-3.4999999017 0.69999998808 0 -3.2999998987 0.69999998808 0 -3.0999998957 0.69999998808 0 
-2.8999998927 0.69999998808 0 -2.6999998897 0.69999998808 0 -2.4999998868 0.69999998808 0 
-2.2999998838 0.69999998808 0 -2.0999998808 0.69999998808 0 -1.8999998778 0.69999998808 0 
-1.6999998748 0.69999998808 0 -1.4999998719 0.69999998808 0 -1.2999998689 0.69999998808 0 
-1.0999998659 0.69999998808 0 -0.89999986291 0.69999998808 0 -0.69999985993 0.69999998808 0 
-0.49999985695 0.69999998808 0 -0.29999985397 0.69999998808 0 -0.099999850988 0.69999998808 0 
0.10000015199 0.69999998808 0 0.30000015497 0.69999998808 0 0.50000015795 0.69999998808 0 
0.70000016093 0.69999998808 0 0.90000016391 0.69999998808 0 1.1000001669 0.69999998808 0 
[...]
CELL_DATA 532
FIELD FieldData 4
Water_Depth_m 1 532 float
0.260032 0.260093 0.260154 0.260216 0.260277 0.260338 0.2604 0.260461 0.260522 
0.260583 0.260644 0.260705 0.260766 0.260827 0.260888 0.260948 0.261009 0.26107 
0.261131 0.261191 0.261252 0.261312 0.261373 0.261433 0.261493 0.261554 0.261614 
0.261674 0.261734 0.261794 0.261854 0.261914 0.261974 0.262034 0.262094 0.262154 
0.262214 0.262273 0.262333 0.262393 0.262452 0.262512 0.262571 0.262631 0.26269 
0.26275 0.26281 0.262882 0.263153 0.267792 0.440767 0.440776 0.440786 0.440797 
0.440807 0.440818 0.440828 0.440838 0.440848 0.440859 0.440869 0.440879 0.440889 
0.440899 0.44091 0.44092 0.44093 0.44094 0.44095 0.44096 0.44097 0.44098 
0.44099 0.440991 0.440993 0.434394 0.260032 0.260093 0.260154 0.260216 0.260277 
0.260338 0.2604 0.260461 0.260522 0.260583 0.260644 0.260705 0.260766 0.260827 
0.260888 0.260948 0.261009 0.26107 0.261131 0.261191 0.261252 0.261312 0.261373 
0.261433 0.261493 0.261554 0.261614 0.261674 0.261734 0.261794 0.261854 0.261914 
0.261974 0.262034 0.262094 0.262154 0.262214 0.262273 0.262333 0.262393 0.262452 
0.262512 0.262571 0.262631 0.26269 0.26275 0.26281 0.262882 0.263153 0.267792 
0.440767 0.440776 0.440787 0.440797 0.440807 0.440818 0.440828 0.440838 0.440848 
0.440859 0.440869 0.440879 0.440889 0.440899 0.44091 0.44092 0.44093 0.44094 
0.44095 0.44096 0.44097 0.44098 0.44099 0.440991 0.440993 0.434394 0.260032 
0.260093 0.260154 0.260216 0.260277 0.260338 0.2604 0.260461 0.260522 0.260583 
0.260644 0.260705 0.260766 0.260827 0.260888 0.260948 0.261009 0.26107 0.261131 
0.261191 0.261252 0.261312 0.261373 0.261433 0.261493 0.261554 0.261614 0.261674 
0.261734 0.261794 0.261854 0.261914 0.261974 0.262034 0.262094 0.262154 0.262214 
0.262273 0.262333 0.262393 0.262452 0.262512 0.262571 0.262631 0.26269 0.26275 
0.26281 0.262882 0.263153 0.267792 0.440767 0.440776 0.440787 0.440797 0.440807 
0.440818 0.440828 0.440838 0.440848 0.440859 0.440869 0.440879 0.440889 0.440899 
0.44091 0.44092 0.44093 0.44094 0.44095 0.44096 0.44097 0.44098 0.44099 
0.440991 0.440992 0.434394 0.260032 0.260093 0.260154 0.260216 0.260277 0.260338 
0.2604 0.260461 0.260522 0.260583 0.260644 0.260705 0.260766 0.260827 0.260888 
0.260948 0.261009 0.26107 0.261131 0.261191 0.261252 0.261312 0.261373 0.261433 
0.261493 0.261554 0.261614 0.261674 0.261734 0.261794 0.261854 0.261914 0.261974 
0.262034 0.262094 0.262154 0.262214 0.262273 0.262333 0.262393 0.262452 0.262512 
0.262571 0.262631 0.26269 0.26275 0.26281 0.262882 0.263153 0.267792 0.440767 
0.440776 0.440787 0.440797 0.440808 0.440818 0.440828 0.440838 0.440848 0.440859 
0.440869 0.440879 0.440889 0.440899 0.44091 0.44092 0.44093 0.44094 0.44095 
0.44096 0.440971 0.440981 0.44099 0.440991 0.440992 0.434394 0.260032 0.260093 
0.260154 0.260216 0.260277 0.260338 0.2604 0.260461 0.260522 0.260583 0.260644 
0.260705 0.260766 0.260827 0.260888 0.260948 0.261009 0.26107 0.261131 0.261191 
0.261252 0.261312 0.261373 0.261433 0.261493 0.261554 0.261614 0.261674 0.261734 
0.261794 0.261854 0.261914 0.261974 0.262034 0.262094 0.262154 0.262214 0.262273 
0.262333 0.262393 0.262452 0.262512 0.262571 0.262631 0.26269 0.262749 0.262809 
0.262882 0.263153 0.267792 0.440767 0.440776 0.440787 0.440797 0.440808 0.440818 
0.440828 0.440838 0.440849 0.440859 0.440869 0.440879 0.440889 0.440899 0.44091 
0.44092 0.44093 0.44094 0.44095 0.440961 0.440971 0.440981 0.440991 0.440992 
0.440992 0.434394 0.260032 0.260093 0.260154 0.260216 0.260277 0.260338 0.2604 
0.260461 0.260522 0.260583 0.260644 0.260705 0.260766 0.260827 0.260888 0.260948 
0.261009 0.26107 0.261131 0.261191 0.261252 0.261312 0.261373 0.261433 0.261493 
0.261554 0.261614 0.261674 0.261734 0.261794 0.261854 0.261914 0.261974 0.262034 
0.262094 0.262154 0.262214 0.262273 0.262333 0.262393 0.262452 0.262512 0.262571 
0.262631 0.26269 0.262749 0.262809 0.262882 0.263153 0.267792 0.440767 0.440777 
0.440788 0.440798 0.440808 0.440818 0.440828 0.440838 0.440849 0.440859 0.440869 
0.440879 0.440889 0.440899 0.44091 0.44092 0.44093 0.44094 0.44095 0.440961 
0.440971 0.440981 0.440991 0.440992 0.440992 0.434394 0.260032 0.260093 0.260154 
0.260216 0.260277 0.260338 0.2604 0.260461 0.260522 0.260583 0.260644 0.260705 
0.260766 0.260827 0.260888 0.260948 0.261009 0.26107 0.261131 0.261191 0.261252 
0.261312 0.261373 0.261433 0.261493 0.261554 0.261614 0.261674 0.261734 0.261794 
0.261854 0.261914 0.261974 0.262034 0.262094 0.262154 0.262214 0.262273 0.262333 
0.262393 0.262452 0.262512 0.262571 0.26263 0.26269 0.262749 0.262809 0.262882 
0.263154 0.267792 0.440776 0.440781 0.440789 0.440799 0.440809 0.440818 0.440828 
0.440839 0.440849 0.440859 0.440869 0.440879 0.440889 0.440899 0.44091 0.44092 
0.44093 0.44094 0.440951 0.440961 0.440971 0.440982 0.440993 0.440992 0.440991 
0.434393 
Water_Elev_m 1 532 float
0.260032 0.260093 0.260154 0.260216 0.260277 0.260338 0.2604 0.260461 0.260522 
0.260583 0.260644 0.260705 0.260766 0.260827 0.260888 0.260948 0.261009 0.26107 
0.261131 0.261191 0.261252 0.261312 0.261373 0.261433 0.261493 0.261554 0.261614 
0.261674 0.261734 0.261794 0.261854 0.261914 0.261974 0.262034 0.262094 0.262154 
0.262214 0.262273 0.262333 0.262393 0.262452 0.262512 0.262571 0.262631 0.26269 
0.26275 0.26281 0.262882 0.263153 0.267792 0.440767 0.440776 0.440786 0.440797 
0.440807 0.440818 0.440828 0.440838 0.440848 0.440859 0.440869 0.440879 0.440889 
0.440899 0.44091 0.44092 0.44093 0.44094 0.44095 0.44096 0.44097 0.44098 
0.44099 0.440991 0.440993 0.434394 0.260032 0.260093 0.260154 0.260216 0.260277 
0.260338 0.2604 0.260461 0.260522 0.260583 0.260644 0.260705 0.260766 0.260827 
0.260888 0.260948 0.261009 0.26107 0.261131 0.261191 0.261252 0.261312 0.261373 
0.261433 0.261493 0.261554 0.261614 0.261674 0.261734 0.261794 0.261854 0.261914 
0.261974 0.262034 0.262094 0.262154 0.262214 0.262273 0.262333 0.262393 0.262452 
0.262512 0.262571 0.262631 0.26269 0.26275 0.26281 0.262882 0.263153 0.267792 
0.440767 0.440776 0.440787 0.440797 0.440807 0.440818 0.440828 0.440838 0.440848 
0.440859 0.440869 0.440879 0.440889 0.440899 0.44091 0.44092 0.44093 0.44094 
0.44095 0.44096 0.44097 0.44098 0.44099 0.440991 0.440993 0.434394 0.260032 
0.260093 0.260154 0.260216 0.260277 0.260338 0.2604 0.260461 0.260522 0.260583 
0.260644 0.260705 0.260766 0.260827 0.260888 0.260948 0.261009 0.26107 0.261131 
0.261191 0.261252 0.261312 0.261373 0.261433 0.261493 0.261554 0.261614 0.261674 
0.261734 0.261794 0.261854 0.261914 0.261974 0.262034 0.262094 0.262154 0.262214 
0.262273 0.262333 0.262393 0.262452 0.262512 0.262571 0.262631 0.26269 0.26275 
0.26281 0.262882 0.263153 0.267792 0.440767 0.440776 0.440787 0.440797 0.440807 
0.440818 0.440828 0.440838 0.440848 0.440859 0.440869 0.440879 0.440889 0.440899 
0.44091 0.44092 0.44093 0.44094 0.44095 0.44096 0.44097 0.44098 0.44099 
0.440991 0.440992 0.434394 0.260032 0.260093 0.260154 0.260216 0.260277 0.260338 
0.2604 0.260461 0.260522 0.260583 0.260644 0.260705 0.260766 0.260827 0.260888 
0.260948 0.261009 0.26107 0.261131 0.261191 0.261252 0.261312 0.261373 0.261433 
0.261493 0.261554 0.261614 0.261674 0.261734 0.261794 0.261854 0.261914 0.261974 
0.262034 0.262094 0.262154 0.262214 0.262273 0.262333 0.262393 0.262452 0.262512 
0.262571 0.262631 0.26269 0.26275 0.26281 0.262882 0.263153 0.267792 0.440767 
0.440776 0.440787 0.440797 0.440808 0.440818 0.440828 0.440838 0.440848 0.440859 
0.440869 0.440879 0.440889 0.440899 0.44091 0.44092 0.44093 0.44094 0.44095 
0.44096 0.440971 0.440981 0.44099 0.440991 0.440992 0.434394 0.260032 0.260093 
0.260154 0.260216 0.260277 0.260338 0.2604 0.260461 0.260522 0.260583 0.260644 
0.260705 0.260766 0.260827 0.260888 0.260948 0.261009 0.26107 0.261131 0.261191 
0.261252 0.261312 0.261373 0.261433 0.261493 0.261554 0.261614 0.261674 0.261734 
0.261794 0.261854 0.261914 0.261974 0.262034 0.262094 0.262154 0.262214 0.262273 
0.262333 0.262393 0.262452 0.262512 0.262571 0.262631 0.26269 0.262749 0.262809 
0.262882 0.263153 0.267792 0.440767 0.440776 0.440787 0.440797 0.440808 0.440818 
0.440828 0.440838 0.440849 0.440859 0.440869 0.440879 0.440889 0.440899 0.44091 
0.44092 0.44093 0.44094 0.44095 0.440961 0.440971 0.440981 0.440991 0.440992 
0.440992 0.434394 0.260032 0.260093 0.260154 0.260216 0.260277 0.260338 0.2604 
0.260461 0.260522 0.260583 0.260644 0.260705 0.260766 0.260827 0.260888 0.260948 
0.261009 0.26107 0.261131 0.261191 0.261252 0.261312 0.261373 0.261433 0.261493 
0.261554 0.261614 0.261674 0.261734 0.261794 0.261854 0.261914 0.261974 0.262034 
0.262094 0.262154 0.262214 0.262273 0.262333 0.262393 0.262452 0.262512 0.262571 
0.262631 0.26269 0.262749 0.262809 0.262882 0.263153 0.267792 0.440767 0.440777 
0.440788 0.440798 0.440808 0.440818 0.440828 0.440838 0.440849 0.440859 0.440869 
0.440879 0.440889 0.440899 0.44091 0.44092 0.44093 0.44094 0.44095 0.440961 
0.440971 0.440981 0.440991 0.440992 0.440992 0.434394 0.260032 0.260093 0.260154 
0.260216 0.260277 0.260338 0.2604 0.260461 0.260522 0.260583 0.260644 0.260705 
0.260766 0.260827 0.260888 0.260948 0.261009 0.26107 0.261131 0.261191 0.261252 
0.261312 0.261373 0.261433 0.261493 0.261554 0.261614 0.261674 0.261734 0.261794 
0.261854 0.261914 0.261974 0.262034 0.262094 0.262154 0.262214 0.262273 0.262333 
0.262393 0.262452 0.262512 0.262571 0.26263 0.26269 0.262749 0.262809 0.262882 
0.263154 0.267792 0.440776 0.440781 0.440789 0.440799 0.440809 0.440818 0.440828 
0.440839 0.440849 0.440859 0.440869 0.440879 0.440889 0.440899 0.44091 0.44092 
0.44093 0.44094 0.440951 0.440961 0.440971 0.440982 0.440993 0.440992 0.440991 
0.434393 
Velocity_cell_m_p_s 3 532 double
-0.34866452217 -4.1909206772e-08 -0 -0.34856110811 -4.2121811816e-08 -0 -0.34847891331 -4.2679541679e-08 -0 
-0.34839686751 -4.3376935821e-08 -0 -0.34831491113 -4.4083243722e-08 -0 -0.34823304415 -4.4743035943e-08 -0 
-0.34815129638 -4.5345274202e-08 -0 -0.34806963801 -4.5898076451e-08 -0 -0.34798809886 -4.6414744048e-08 -0 
-0.34790667892 -4.6907569384e-08 -0 -0.34782534838 -4.7385693591e-08 -0 -0.34774413705 -4.7854445739e-08 -0 
-0.34766304493 -4.8315900614e-08 -0 -0.34758201241 -4.8770132821e-08 -0 -0.34750109911 -4.922093666e-08 -0 
-0.34742033482 -4.9672120639e-08 -0 -0.34733963013 -5.0126040207e-08 -0 -0.34725904465 -5.0583697231e-08 -0 
-0.34717854857 -5.1045113025e-08 -0 -0.34709814191 -5.1509712051e-08 -0 -0.34701788425 -5.197639652e-08 -0 
-0.3469376862 -5.2443450471e-08 -0 -0.34685760736 -5.2908234238e-08 -0 -0.34677764773 -5.3366534303e-08 -0 
-0.34669777751 -5.3812176048e-08 -0 -0.34661799669 -5.4234263303e-08 -0 -0.34653833508 -5.4620507228e-08 -0 
-0.34645876288 -5.4940677785e-08 -0 -0.34637930989 -5.5179214087e-08 -0 -0.34629994631 -5.5237126872e-08 -0 
-0.34622067213 -5.5000221266e-08 -0 -0.34614148736 -5.4288943119e-08 -0 -0.3460624218 -5.292467975e-08 -0 
-0.34598341584 -5.0494328718e-08 -0 -0.3459045589 -4.640613227e-08 -0 -0.34582576156 -3.9828311316e-08 -0 
-0.34574702382 -2.962308443e-08 -0 -0.34566840529 -1.4088105793e-08 -0 -0.34558981657 8.4372375753e-09 -0 
-0.34551125765 4.5027892526e-08 -0 -0.34543269873 9.2879943736e-08 -0 -0.34535411 1.809207788e-07 -0 
-0.34527537227 3.1165265568e-07 -0 -0.34519636631 4.9984123507e-07 -0 -0.34511709213 6.8270128395e-07 -0 
-0.3450370729 9.1407486025e-07 -0 -0.34494829178 1.1516576706e-06 -0 -0.34472075105 1.3569826933e-06 -0 
-0.34155604243 1.3857130625e-06 -0 -0.27213510871 1.3606983202e-06 -0 -0.20569758117 1.2237966018e-07 -0 
-0.20568694174 6.0171391851e-06 -0 -0.20567010343 5.9648627939e-06 -0 -0.20565399528 5.2730733842e-06 -0 
-0.20563957095 4.3258141886e-06 -0 -0.20562708378 3.377141411e-06 -0 -0.20561635494 2.5513793389e-06 -0 
-0.20560713112 1.8870084659e-06 -0 -0.2055990994 1.37701943e-06 -0 -0.20559196174 9.9527562725e-07 -0 
-0.20558550954 7.1069604246e-07 -0 -0.20557954907 4.934432809e-07 -0 -0.20557399094 3.1654801091e-07 -0 
-0.20556877553 1.5513383289e-07 -0 -0.20556388795 -1.5518471841e-08 -0 -0.2055594027 -2.2987735804e-07 -0 
-0.20555540919 -5.0873649116e-07 -0 -0.20555210114 -8.9875618414e-07 -0 -0.20554973185 -1.4469188727e-06 -0 
-0.20554870367 -2.1990249479e-06 -0 -0.20554940403 -3.1771132853e-06 -0 -0.20555229485 -4.3354157242e-06 -0 
-0.20555958152 -5.5028190218e-06 -0 -0.2055708468 -6.3628895077e-06 -0 -0.20558346808 -6.6003149186e-06 -0 
-0.35490483046 -3.8217863221e-06 -0 -0.34866479039 -1.2677641337e-07 -0 -0.34856140614 -1.2755748457e-07 -0 
-0.34847924113 -1.2943075944e-07 -0 -0.34839716554 -1.3165772828e-07 -0 -0.34831523895 -1.3384297404e-07 -0 
-0.34823337197 -1.3584767089e-07 -0 -0.3481516242 -1.3766181439e-07 -0 -0.34806996584 -1.393227933e-07 -0 
-0.34798842669 -1.4087625289e-07 -0 -0.34790700674 -1.4236127299e-07 -0 -0.3478256762 -1.4380589164e-07 -0 
-0.34774446487 -1.4522566971e-07 -0 -0.34766337276 -1.4662492731e-07 -0 -0.34758234024 -1.4799969961e-07 -0 
-0.34750145674 -1.4936426851e-07 -0 -0.34742066264 -1.5073140958e-07 -0 -0.34733995795 -1.5210821402e-07 -0 
-0.34725940228 -1.5349721139e-07 -0 -0.3471788764 -1.5489823113e-07 -0 -0.34709849954 -1.5630948269e-07 -0 
-0.34701824188 -1.5772772599e-07 -0 -0.34693804383 -1.5914812934e-07 -0 -0.34685796499 -1.6056331731e-07 -0 
-0.34677800536 -1.6196145225e-07 -0 -0.34669813514 -1.6332535324e-07 -0 -0.34661838412 -1.6462307428e-07 -0 
-0.34653872252 -1.6582313833e-07 -0 -0.34645915031 -1.6682477622e-07 -0 -0.34637969732 -1.676491479e-07 -0 
-0.34630033374 -1.6795678448e-07 -0 -0.34622105956 -1.6742608011e-07 -0 -0.34614187479 -1.6550067983e-07 -0 
-0.34606280923 -1.6182441698e-07 -0 -0.34598386288 -1.5512767959e-07 -0 -0.34590497613 -1.4369008738e-07 -0 
-0.34582620859 -1.2510938063e-07 -0 -0.34574750066 -9.5972573888e-08 -0 -0.34566888213 -5.187323282e-08 -0 
-0.34559029341 1.1549751378e-08 -0 -0.34551176429 1.1792666754e-07 -0 -0.34543329477 2.3224535539e-07 -0 
-0.34535473585 5.6150759065e-07 -0 -0.34527599812 9.1062418051e-07 -0 -0.34519714117 1.4149652543e-06 -0 
-0.3451179564 1.9996818992e-06 -0 -0.34503802657 2.7303226489e-06 -0 -0.34494918585 3.4983193018e-06 -0 
-0.3447214365 4.1919479372e-06 -0 -0.34155648947 4.2988267523e-06 -0 -0.27213519812 4.2991473492e-06 -0 
-0.20569753647 3.592137432e-07 -0 -0.20568598807 1.894457273e-05 -0 -0.20566754043 1.8597438611e-05 -0 
-0.2056504041 1.6154473997e-05 -0 -0.20563557744 1.3036367818e-05 -0 -0.20562312007 1.0041359019e-05 -0 
-0.20561262965 7.5084394666e-06 -0 -0.20560371876 5.5127570704e-06 -0 -0.20559595525 4.0045083551e-06 -0 
-0.20558904111 2.8888150609e-06 -0 -0.20558275282 2.0646803023e-06 -0 -0.20557689667 1.4400327473e-06 -0 
-0.20557139814 9.3421687097e-07 -0 -0.20556618273 4.743317561e-07 -0 -0.20556125045 -1.1185245619e-08 -0 
-0.20555666089 -6.2175337234e-07 -0 -0.20555250347 -1.4200854821e-06 -0 -0.20554892719 -2.5444674066e-06 -0 
-0.20554621518 -4.1415037231e-06 -0 -0.20554473996 -6.3670031523e-06 -0 -0.20554500818 -9.3261051006e-06 -0 
-0.20554763079 -1.2938876353e-05 -0 -0.20555508137 -1.6728215996e-05 -0 -0.20556716621 -1.966288437e-05 -0 
-0.20558103919 -2.0450386728e-05 -0 -0.35490393639 -1.249813522e-05 -0 -0.34866550565 -2.1472324363e-07 -0 
-0.34856209159 -2.1677020356e-07 -0 -0.34847989678 -2.2067342798e-07 -0 -0.34839785099 -2.2484161377e-07 -0 
-0.3483158946 -2.2868287886e-07 -0 -0.34823405743 -2.3208976074e-07 -0 -0.34815230966 -2.351284536e-07 -0 
-0.3480706811 -2.3790218506e-07 -0 -0.34798914194 -2.4050328307e-07 -0 -0.347907722 -2.4300203449e-07 -0 
-0.34782642126 -2.4544672783e-07 -0 -0.34774520993 -2.4786291419e-07 -0 -0.34766411781 -2.5025039463e-07 -0 
-0.3475831151 -2.5258202641e-07 -0 -0.3475022316 -2.5489828204e-07 -0 -0.3474214077 -2.5722485475e-07 -0 
-0.34734076262 -2.5957260164e-07 -0 -0.34726017714 -2.6194405223e-07 -0 -0.34717968106 -2.6433784228e-07 -0 
-0.3470993042 -2.6675058962e-07 -0 -0.34701904655 -2.6917743412e-07 -0 -0.3469388485 -2.716111851e-07 -0 
-0.34685879946 -2.740412981e-07 -0 -0.34677883983 -2.7645074852e-07 -0 -0.3466989696 -2.7881492315e-07 -0 
-0.34661921859 -2.8108493666e-07 -0 -0.34653955698 -2.8322287449e-07 -0 -0.34645998478 -2.8498391202e-07 -0 
-0.34638053179 -2.8675151498e-07 -0 -0.3463011682 -2.8770688232e-07 -0 -0.34622192383 -2.8741311553e-07 -0 
-0.34614279866 -2.8476239322e-07 -0 -0.3460637331 -2.8003864827e-07 -0 -0.34598478675 -2.7080412224e-07 -0 
-0.3459059298 -2.5444973062e-07 -0 -0.34582716227 -2.2723006055e-07 -0 -0.34574848413 -1.8295496318e-07 -0 
-0.34566986561 -1.1790703525e-07 -0 -0.34559133649 -2.3549413086e-08 -0 -0.34551289678 1.3809160748e-07 -0 
-0.34543448687 2.9053779826e-07 -0 -0.34535601735 8.6541155042e-07 -0 -0.34527751803 1.3878699292e-06 -0 
-0.3451988399 2.1535418e-06 -0 -0.34511989355 3.1723545817e-06 -0 -0.34504005313 4.4906141738e-06 -0 
-0.3449511826 5.9612966652e-06 -0 -0.34472307563 7.4213721746e-06 -0 -0.34155738354 7.765729606e-06 -0 
-0.27213537693 7.909933629e-06 -0 -0.20569728315 6.5977184249e-07 -0 -0.20568245649 3.5918743379e-05 -0 
-0.20565907657 3.368687976e-05 -0 -0.20563954115 2.8013926567e-05 -0 -0.20562405884 2.1813248168e-05 -0 
-0.20561186969 1.6343885363e-05 -0 -0.20560200512 1.1975154848e-05 -0 -0.20559376478 8.6711179392e-06 -0 
-0.20558658242 6.2485378294e-06 -0 -0.20558011532 4.4969906412e-06 -0 -0.20557413995 3.2257551084e-06 -0 
-0.20556849241 2.2754288693e-06 -0 -0.20556306839 1.5139573861e-06 -0 -0.20555785298 8.2632175236e-07 -0 
-0.20555284619 1.0227599745e-07 -0 -0.20554803312 -8.0876088759e-07 -0 -0.20554350317 -2.013162657e-06 -0 
-0.20553942025 -3.7311392589e-06 -0 -0.20553596318 -6.2199942477e-06 -0 -0.20553354919 -9.7925112641e-06 -0 
-0.20553278923 -1.475186491e-05 -0 -0.20553460717 -2.1184754587e-05 -0 -0.20554210246 -2.8502337955e-05 -0 
-0.20555590093 -3.483164619e-05 -0 -0.20557339489 -3.7224817788e-05 -0 -0.35490122437 -2.5292578357e-05 -0 
-0.34866648912 -3.0671569107e-07 -0 -0.34856307507 -3.1252204735e-07 -0 -0.34848091006 -3.1999502426e-07 -0 
-0.34839886427 -3.2674250861e-07 -0 -0.34831693769 -3.3242685049e-07 -0 -0.34823510051 -3.3725780213e-07 -0 
-0.34815335274 -3.41506734e-07 -0 -0.34807175398 -3.4538840055e-07 -0 -0.34799024463 -3.490530105e-07 -0 
-0.34790882468 -3.526024841e-07 -0 -0.34782752395 -3.5610671034e-07 -0 -0.34774634242 -3.5960738387e-07 -0 
-0.3476652205 -3.6308512108e-07 -0 -0.34758424759 -3.6642387613e-07 -0 -0.34750336409 -3.697540194e-07 -0 
-0.34742256999 -3.7311633605e-07 -0 -0.34734192491 -3.765198926e-07 -0 -0.34726133943 -3.7996315427e-07 -0 
-0.34718087316 -3.8344168729e-07 -0 -0.34710049629 -3.8695040416e-07 -0 -0.34702023864 -3.904831658e-07 -0 
-0.34694010019 -3.9403195728e-07 -0 -0.34686005116 -3.9758518255e-07 -0 -0.34678006172 -4.0112465172e-07 -0 
-0.3467002511 -4.0462299467e-07 -0 -0.34662050009 -4.0802979129e-07 -0 -0.34654083848 -4.1129302986e-07 -0 
-0.34646129608 -4.1417806074e-07 -0 -0.34638187289 -4.1705891363e-07 -0 -0.34630250931 -4.1907190962e-07 -0 
-0.34622326493 -4.1971472342e-07 -0 -0.34614413977 -4.1784994664e-07 -0 -0.34606510401 -4.1367778181e-07 -0 
-0.34598615766 -4.0450458982e-07 -0 -0.34590733051 -3.8726454932e-07 -0 -0.34582859278 -3.5685775401e-07 -0 
-0.34574994445 -3.0112377658e-07 -0 -0.34567138553 -2.2868937322e-07 -0 -0.34559294581 -1.1590170601e-07 -0 
-0.34551456571 7.3136000367e-08 -0 -0.3454362452 2.6103043638e-07 -0 -0.34535804391 9.3951842928e-07 -0 
-0.34527981281 1.6196560182e-06 -0 -0.34520149231 2.6257853278e-06 -0 -0.34512290359 4.0514801185e-06 -0 
-0.34504345059 6.0617294366e-06 -0 -0.34495463967 8.5323863459e-06 -0 -0.34472590685 1.140094173e-05 -0 
-0.34155884385 1.2466665794e-05 -0 -0.27213552594 1.2678496205e-05 -0 -0.2056966275 1.3173732896e-06 -0 
-0.20567443967 6.3036946813e-05 -0 -0.20564126968 5.3294894315e-05 -0 -0.2056184411 4.1041650547e-05 -0 
-0.20560288429 3.0182913179e-05 -0 -0.20559179783 2.1691561415e-05 -0 -0.20558328927 1.543754297e-05 -0 
-0.20557624102 1.0974327779e-05 -0 -0.20557001233 7.8386174209e-06 -0 -0.20556421578 5.6429703363e-06 -0 