# vtk DataFile Version 5.1
vtk output
ASCII
DATASET UNSTRUCTURED_GRID
POINTS 9610 double
0.1016 1.5 0.0051008639857 0.1016 1.45 0.002049474977 0.1016 1.4 0.00506520411 
0.1016 1.35 0.0041106543504 0.1016 1.3 0.0081110065803 0.1016 1.25 0.012290794402 
0.1016 1.2 0.019966604188 0.1016 1.15 0.025094944984 0.1016 1.1 0.025078719482 
0.1016 1.05 0.022677920759 0.1016 1 0.032476659864 0.1016 0.95 0.032933618873 
0.1016 0.9 0.033451445401 0.1016 0.85 0.035705879331 0.1016 0.8 0.041013989598 
0.1016 0.75 0.042368419468 0.1016 0.7 0.0461948663 0.1016 0.65 0.04613398388 
0.1016 0.6 0.037831872702 0.1016 0.55 0.028481155634 0.1016 0.5 0.029335644096 
0.1016 0.45 0.038272794336 0.1016 0.4 0.042588032782 0.1016 0.35 0.038786359131 
0.1016 0.3 0.028780227527 0.1016 0.25 0.029886942357 0.1016 0.2 0.03069373779 
0.1016 0.15 0.029957069084 0.1016 0.1 0.028933888301 0.1016 0.05 0.025441842154 
0.1016 0 0.018521258608 5.08 1.5 0.28700000048 5.08 1.45 0.28700000048 
5.08 1.4 0.28700000048 5.08 1.35 0.28700000048 5.08 1.3 0.28700000048 
5.08 1.25 0.28700000048 5.08 1.2 0.28700000048 5.08 1.15 0.28700000048 
5.08 1.1 0.28700000048 5.08 1.05 0.28700000048 5.08 1 0.28700000048 
5.08 0.95 0.28700000048 5.08 0.9 0.28700000048 5.08 0.85 0.28700000048 
5.08 0.8 0.28700000048 5.08 0.75 0.28700000048 5.08 0.7 0.28700000048 
5.08 0.65 0.28700000048 5.08 0.6 0.28700000048 5.08 0.55 0.28700000048 
5.08 0.5 0.28700000048 5.08 0.45 0.28700000048 5.08 0.4 0.28700000048 
5.08 0.35 0.28700000048 5.08 0.3 0.28700000048 5.08 0.25 0.28700000048 
5.08 0.2 0.28700000048 5.08 0.15 0.28700000048 5.08 0.1 0.28700000048 
5.08 0.05 0.28700000048 5.08 0 0.28700000048 0.151384 1.5 0.022531135008 
0.151384 1.45 0.021506568417 0.151384 1.4 0.033293098211 0.151384 1.35 0.023498250172 
0.151384 1.3 0.032372456044 0.151384 1.25 0.02954453975 0.151384 1.2 0.040467966348 
0.151384 1.15 0.040626335889 0.151384 1.1 0.043521791697 0.151384 1.05 0.027825251222 
0.151384 1 0.05445490405 0.151384 0.95 0.04275143519 0.151384 0.9 0.045677024871 
0.151384 0.85 0.043794211 0.151384 0.8 0.057593904436 0.151384 0.75 0.054694853723 
0.151384 0.7 0.065532401204 0.151384 0.65 0.067502133548 0.151384 0.6 0.057508010417 
0.151384 0.55 0.043574716896 0.151384 0.5 0.043620221317 0.151384 0.45 0.059493161738 
0.151384 0.4 0.062556006014 0.151384 0.35 0.061474561691 0.151384 0.3 0.039721693844 
0.151384 0.25 0.051484890282 0.151384 0.2 0.05248875916 0.151384 0.15 0.053448025137 
0.151384 0.1 0.052473355085 0.151384 0.05 0.0523882173 0.151384 0 0.03851127997 
0.201168 1.5 0.064154468477 0.201168 1.45 0.05653597042 0.201168 1.4 0.074236273766 
0.201168 1.35 0.068125076592 0.201168 1.3 0.07128996402 0.201168 1.25 0.069311082363 
0.201168 1.2 0.078297302127 0.201168 1.15 0.065909899771 0.201168 1.1 0.068836100399 
0.201168 1.05 0.066340602934 0.201168 1 0.07406514883 0.201168 0.95 0.073580957949 
0.201168 0.9 0.06788726896 0.201168 0.85 0.068780548871 0.201168 0.8 0.081760756671 
0.201168 0.75 0.084643580019 0.201168 0.7 0.096607588232 0.201168 0.65 0.095765121281 
0.201168 0.6 0.090561725199 0.201168 0.55 0.084232375026 0.201168 0.5 0.075610727072 
0.201168 0.45 0.089629545808 0.201168 0.4 0.091723702848 0.201168 0.35 0.083978570998 
0.201168 0.3 0.076405949891 0.201168 0.25 0.076849207282 0.201168 0.2 0.088458366692 
0.201168 0.15 0.088510513306 0.201168 0.1 0.084630288184 0.201168 0.05 0.081705674529 
0.201168 0 0.081169128418 0.250952 1.5 0.10635516047 0.250952 1.45 0.09193456918 
0.250952 1.4 0.10518491268 0.250952 1.35 0.11146408319 0.250952 1.3 0.10685089976 
0.250952 1.25 0.10779680312 0.250952 1.2 0.11476781219 0.250952 1.15 0.10361704975 
0.250952 1.1 0.097122706473 0.250952 1.05 0.10462022573 0.250952 1 0.10128586739 
0.250952 0.95 0.11817833036 0.250952 0.9 0.10192902386 0.250952 0.85 0.11320853233 
0.250952 0.8 0.12619817257 0.250952 0.75 0.12365099043 0.250952 0.7 0.12993659079 
0.250952 0.65 0.13176871836 0.250952 0.6 0.12499077618 0.250952 0.55 0.11427798867 
0.250952 0.5 0.11089701951 0.250952 0.45 0.12759782374 0.250952 0.4 0.12960143387 
0.250952 0.35 0.11779878289 0.250952 0.3 0.11083931476 0.250952 0.25 0.11645632982 
0.250952 0.2 0.12285158038 0.250952 0.15 0.12286756188 0.250952 0.1 0.11802565306 
0.250952 0.05 0.12070769072 0.250952 0 0.11600569636 0.300736 1.5 0.15327143669 
0.300736 1.45 0.12985861301 0.300736 1.4 0.13625732064 0.300736 1.35 0.15087223053 
0.300736 1.3 0.14677527547 0.300736 1.25 0.14045649767 0.300736 1.2 0.14999109507 
0.300736 1.15 0.14182704687 0.300736 1.1 0.14217425883 0.300736 1.05 0.14189071953 
0.300736 1 0.13805539906 0.300736 0.95 0.15017086267 0.300736 0.9 0.13788256049 
0.300736 0.85 0.14995282888 0.300736 0.8 0.15486072004 0.300736 0.75 0.15829096735 
0.300736 0.7 0.16150869429 0.300736 0.65 0.1662415266 0.300736 0.6 0.15182831883 
0.300736 0.55 0.14714950323 0.300736 0.5 0.14805971086 0.300736 0.45 0.16048012674 
0.300736 0.4 0.16430334747 0.300736 0.35 0.15500676632 0.300736 0.3 0.15347275138 
0.300736 0.25 0.15675061941 0.300736 0.2 0.16086807847 0.300736 0.15 0.16449941695 
0.300736 0.1 0.14846934378 0.300736 0.05 0.1422624886 0.300736 0 0.15111155808 
0.35052 1.5 0.17712074518 0.35052 1.45 0.17288278043 0.35052 1.4 0.17951062322 
0.35052 1.35 0.17919199169 0.35052 1.3 0.18227496743 0.35052 1.25 0.17355911434 
0.35052 1.2 0.18978303671 0.35052 1.15 0.18485561013 0.35052 1.1 0.17958623171 
0.35052 1.05 0.17565397918 0.35052 1 0.17343065143 0.35052 0.95 0.19514477253 
0.35052 0.9 0.1988504082 0.35052 0.85 0.19261233509 0.35052 0.8 0.19276130199 
0.35052 0.75 0.19330143929 0.35052 0.7 0.19201868773 0.35052 0.65 0.19415713847 
0.35052 0.6 0.18735337257 0.35052 0.55 0.18503309786 0.35052 0.5 0.17895646393 
0.35052 0.45 0.18815971911 0.35052 0.4 0.19483590126 0.35052 0.35 0.19043369591 
0.35052 0.3 0.19213120639 0.35052 0.25 0.19164463878 0.35052 0.2 0.20009593666 
0.35052 0.15 0.196884498 0.35052 0.1 0.18961776793 0.35052 0.05 0.18419648707 
0.35052 0 0.18444867432 0.400304 1.5 0.19977575541 0.400304 1.45 0.20427469909 
0.400304 1.4 0.21054114401 0.400304 1.35 0.21738430858 0.400304 1.3 0.22029735148 
0.400304 1.25 0.21933746338 0.400304 1.2 0.2245708555 0.400304 1.15 0.21709769964 
0.400304 1.1 0.21002753079 0.400304 1.05 0.21025577188 0.400304 1 0.21757812798 
0.400304 0.95 0.22932519019 0.400304 0.9 0.22653180361 0.400304 0.85 0.22450354695 
0.400304 0.8 0.23753720522 0.400304 0.75 0.22946040332 0.400304 0.7 0.21949267387 
0.400304 0.65 0.22585169971 0.400304 0.6 0.21582601964 0.400304 0.55 0.21984350681 
0.400304 0.5 0.2153891176 0.400304 0.45 0.22074846923 0.400304 0.4 0.22787922621 
0.400304 0.35 0.22922290862 0.400304 0.3 0.23191978037 0.400304 0.25 0.22572574019 
0.400304 0.2 0.23550023139 0.400304 0.15 0.23152658343 0.400304 0.1 0.22572937608 
0.400304 0.05 0.22954754531 0.400304 0 0.22317938507 0.450088 1.5 0.23973186314 
0.450088 1.45 0.24225261807 0.450088 1.4 0.24484057724 0.450088 1.35 0.24025267363 
0.450088 1.3 0.25109007955 0.450088 1.25 0.25326445699 0.450088 1.2 0.26566365361 
0.450088 1.15 0.25671115518 0.450088 1.1 0.24971534312 0.450088 1.05 0.25940722227 
0.450088 1 0.24867397547 0.450088 0.95 0.25569117069 0.450088 0.9 0.25942355394 
0.450088 0.85 0.26050403714 0.450088 0.8 0.26537120342 0.450088 0.75 0.26490151882 
0.450088 0.7 0.25719958544 0.450088 0.65 0.25265580416 0.450088 0.6 0.2476542294 
0.450088 0.55 0.24654780328 0.450088 0.5 0.25145027041 0.450088 0.45 0.25384056568 
0.450088 0.4 0.25315624475 0.450088 0.35 0.26314082742 0.450088 0.3 0.26530829072 
0.450088 0.25 0.26520383358 0.450088 0.2 0.26821899414 0.450088 0.15 0.26848313212 
0.450088 0.1 0.26246681809 0.450088 0.05 0.26652064919 0.450088 0 0.2594602704 
0.499872 1.5 0.27554345131 0.499872 1.45 0.27176037431 0.499872 1.4 0.2733759582 
0.499872 1.35 0.26881816983 0.499872 1.3 0.27141615748 0.499872 1.25 0.2720823586 
0.499872 1.2 0.27269855142 0.499872 1.15 0.27058157325 0.499872 1.1 0.26871365309 
0.499872 1.05 0.26780027151 0.499872 1 0.26621717215 0.499872 0.95 0.26711922884 
0.499872 0.9 0.26734054089 0.499872 0.85 0.26583510637 0.499872 0.8 0.26774942875 
0.499872 0.75 0.26968574524 0.499872 0.7 0.26456707716 0.499872 0.65 0.26669073105 
0.499872 0.6 0.26615199447 0.499872 0.55 0.26828944683 0.499872 0.5 0.26768928766 
0.499872 0.45 0.26708868146 0.499872 0.4 0.26836654544 0.499872 0.35 0.26932576299 
0.499872 0.3 0.27143844962 0.499872 0.25 0.27338728309 0.499872 0.2 0.27361786366 
0.499872 0.15 0.27546870708 0.499872 0.1 0.2771717608 0.499872 0.05 0.27937820554 
0.499872 0 0.27907055616 0.549656 1.5 0.28286254406 0.549656 1.45 0.27741619945 
0.549656 1.4 0.27859404683 0.549656 1.35 0.27401977777 0.549656 1.3 0.27552545071 
0.549656 1.25 0.27453348041 0.549656 1.2 0.27297157049 0.549656 1.15 0.27128124237 
0.549656 1.1 0.27117782831 0.549656 1.05 0.26810216904 0.549656 1 0.26853021979 
0.549656 0.95 0.26848161221 0.549656 0.9 0.2672290504 0.549656 0.85 0.26515167952 
0.549656 0.8 0.26716443896 0.549656 0.75 0.26908889413 0.549656 0.7 0.26514157653 
0.549656 0.65 0.26843315363 0.549656 0.6 0.26872390509 0.549656 0.55 0.27090147138 
0.549656 0.5 0.26879903674 0.549656 0.45 0.26853880286 0.549656 0.4 0.26968806982 
0.549656 0.35 0.26849123836 0.549656 0.3 0.27113586664 0.549656 0.25 0.2723133564 
0.549656 0.2 0.27394679189 0.549656 0.15 0.27521589398 0.549656 0.1 0.27748215199 
0.549656 0.05 0.28025880456 0.549656 0 0.28133359551 0.59944 1.5 0.29289853573 
0.59944 1.45 0.27733436227 0.59944 1.4 0.2769215405 0.59944 1.35 0.27352321148 
0.59944 1.3 0.27379944921 0.59944 1.25 0.27284267545 0.59944 1.2 0.27180299163 
0.59944 1.15 0.27054151893 0.59944 1.1 0.26956936717 0.59944 1.05 0.26646342874 
0.59944 1 0.26631307602 0.59944 0.95 0.26631873846 0.59944 0.9 0.26528045535 
0.59944 0.85 0.2640812099 0.59944 0.8 0.26533475518 0.59944 0.75 0.2665091157 
0.59944 0.7 0.26415762305 0.59944 0.65 0.26626214385 0.59944 0.6 0.26719772816 
0.59944 0.55 0.26831874251 0.59944 0.5 0.266310215 0.59944 0.45 0.2663167119 
[...]
CELL_DATA 9270
FIELD FieldData 7
B_Stress_n_p_m2 1 9270 float
0.145117 0.143124 0.143025 0.144669 0.142555 0.142462 0.141981 0.142885 0.141417 
0.143788 0.144653 0.144433 0.145076 0.148401 0.150498 0.153375 0.155346 0.154713 
0.152017 0.150947 0.15517 0.159321 0.161706 0.160519 0.16194 0.165463 0.168561 
0.167893 0.169474 0.174324 0.0643469 0.0672248 0.0838538 0.0807637 0.0792864 0.0770103 
0.0748647 0.0736303 0.0739384 0.0721194 0.0737563 0.0718972 0.0723656 0.0730375 0.0743168 
0.0755297 0.0772009 0.078234 0.0790554 0.0786346 0.0790932 0.0802352 0.080309 0.0817855 
0.0820323 0.0851072 0.0872865 0.0897974 0.0744738 0.0751339 0.0637854 0.0979661 0.109972 
0.107872 0.10442 0.102338 0.0999713 0.0975937 0.0972664 0.0966471 0.097058 0.0960429 
0.0962224 0.0981095 0.0997411 0.101421 0.103622 0.10364 0.103853 0.104319 0.105428 
0.10739 0.107193 0.10719 0.108981 0.111393 0.11511 0.116431 0.108014 0.0733445 
0.0689858 0.110587 0.123881 0.124177 0.11937 0.117719 0.115981 0.114306 0.112768 
0.112528 0.112825 0.113627 0.111854 0.113577 0.115203 0.116809 0.118962 0.119168 
0.11886 0.118663 0.120602 0.123648 0.124093 0.124176 0.125607 0.129117 0.13172 
0.131625 0.118647 0.0751834 0.0828723 0.130233 0.144946 0.146695 0.143099 0.140602 
0.139869 0.137849 0.136987 0.136797 0.138865 0.14133 0.1399 0.140567 0.139238 
0.139665 0.141484 0.142222 0.14188 0.141514 0.143129 0.146823 0.149087 0.149833 
0.151243 0.155061 0.156896 0.156332 0.141147 0.0896046 0.0993377 0.152701 0.170883 
0.17456 0.174755 0.173157 0.171893 0.169283 0.168547 0.167904 0.170124 0.173636 
0.175026 0.17527 0.174275 0.171338 0.170372 0.170103 0.170429 0.172062 0.172749 
0.176222 0.181508 0.184087 0.185791 0.188185 0.190875 0.187444 0.172115 0.115759 
0.124693 0.182048 0.19938 0.20499 0.207376 0.208977 0.208154 0.204963 0.203709 
0.202416 0.202414 0.204066 0.204477 0.204864 0.207374 0.204919 0.201639 0.201444 
0.200488 0.203053 0.205027 0.207183 0.211983 0.216944 0.220468 0.221639 0.224467 
0.221497 0.203739 0.14495 0.149813 0.209503 0.226294 0.227463 0.228689 0.227444 
0.22784 0.226084 0.223027 0.223574 0.219816 0.218369 0.218261 0.218307 0.218827 
0.219307 0.21967 0.219814 0.221255 0.221648 0.223748 0.225314 0.226061 0.230381 
0.233604 0.236454 0.238025 0.237715 0.221131 0.161595 0.161475 0.220327 0.236143 
0.237316 0.235562 0.233135 0.229995 0.228922 0.22695 0.224548 0.223634 0.221215 
0.219569 0.218762 0.219022 0.21986 0.220863 0.223406 0.225495 0.226671 0.227001 
0.227695 0.22874 0.230108 0.232596 0.235346 0.23662 0.23655 0.22325 0.164593 
0.169051 0.22548 0.240755 0.241892 0.240717 0.23884 0.236673 0.235238 0.233821 
0.231605 0.230726 0.229251 0.227989 0.227125 0.227323 0.22818 0.228655 0.230521 
0.232005 0.23303 0.233219 0.233876 0.234823 0.235619 0.237624 0.239221 0.240122 
0.238725 0.225058 0.167433 0.17576 0.232984 0.249189 0.251792 0.251372 0.250619 
0.249801 0.249285 0.24881 0.247788 0.247078 0.246421 0.24591 0.245407 0.245219 
0.245828 0.246198 0.246854 0.247737 0.248587 0.24905 0.249479 0.250143 0.250276 
0.251024 0.251578 0.251585 0.248147 0.232189 0.173485 0.175588 0.236147 0.252488 
0.256056 0.256143 0.255909 0.255606 0.255477 0.255334 0.255305 0.254955 0.254567 
0.254395 0.254314 0.254095 0.254218 0.254849 0.255024 0.255447 0.255844 0.256582 
0.257006 0.257295 0.257616 0.257498 0.257512 0.256978 0.253756 0.237171 0.177111 
0.176883 0.236132 0.25188 0.255036 0.255277 0.255096 0.254849 0.254666 0.254483 
0.254309 0.254057 0.253808 0.253647 0.253556 0.253502 0.253633 0.253956 0.254208 
0.254571 0.254938 0.255389 0.255734 0.256016 0.256246 0.256336 0.256393 0.255956 
0.252851 0.237077 0.177755 0.177647 0.236516 0.251868 0.254856 0.255144 0.255012 
0.254823 0.254661 0.254502 0.254354 0.254176 0.25401 0.253899 0.253844 0.253839 
0.253941 0.254159 0.254376 0.254657 0.254951 0.255285 0.255568 0.255805 0.256003 
0.256119 0.25618 0.255798 0.252841 0.237506 0.178528 0.178309 0.236822 0.251843 
0.254688 0.254971 0.254856 0.254696 0.254549 0.254408 0.254277 0.254143 0.254027 
0.253949 0.253916 0.253931 0.254018 0.254175 0.254357 0.254581 0.25482 0.255076 
0.255309 0.255516 0.255693 0.255829 0.255909 0.255586 0.252762 0.237772 0.179125 
0.178907 0.237106 0.251852 0.254586 0.25485 0.254741 0.254597 0.254465 0.254342 
0.25423 0.254126 0.254042 0.253987 0.253969 0.253992 0.254065 0.254187 0.254337 
0.254518 0.254713 0.254919 0.255114 0.255296 0.25546 0.255604 0.255701 0.255425 
0.252715 0.238007 0.179677 0.179479 0.237368 0.251868 0.254509 0.254751 0.254643 
0.254508 0.254387 0.254278 0.254182 0.254099 0.254034 0.253996 0.253987 0.254012 
0.254075 0.254173 0.254297 0.254445 0.254607 0.254778 0.254946 0.255108 0.255263 
0.25541 0.255521 0.255283 0.25267 0.238212 0.180198 0.180039 0.237618 0.251888 
0.254445 0.254666 0.254557 0.254428 0.254315 0.254217 0.254133 0.254064 0.254013 
0.253985 0.253982 0.254006 0.25406 0.254142 0.254246 0.254369 0.254506 0.254651 
0.254798 0.254946 0.255094 0.255242 0.255363 0.255154 0.252629 0.238401 0.180707 
0.180594 0.237859 0.251909 0.254388 0.254591 0.25448 0.254354 0.254247 0.254156 
0.254081 0.254022 0.25398 0.253959 0.253958 0.253981 0.254028 0.254097 0.254185 
0.25429 0.254408 0.254534 0.254666 0.254803 0.254944 0.255093 0.25522 0.255035 
0.252588 0.238582 0.181212 0.18115 0.238095 0.251928 0.254335 0.25452 0.254407 
0.254284 0.254181 0.254096 0.254027 0.253974 0.253939 0.253921 0.253922 0.253942 
0.253983 0.254042 0.254118 0.254209 0.254312 0.254425 0.254545 0.254673 0.254809 
0.254957 0.255089 0.254924 0.25255 0.238759 0.181718 0.181707 0.238327 0.251946 
0.254283 0.254452 0.254337 0.254215 0.254115 0.254034 0.25397 0.253922 0.253889 
0.253873 0.253875 0.253893 0.253928 0.25398 0.254047 0.254127 0.254219 0.25432 
0.254431 0.254552 0.254684 0.254831 0.254966 0.254818 0.252514 0.238935 0.182228 
0.182267 0.238557 0.251963 0.25423 0.254385 0.254268 0.254148 0.25405 0.253971 
0.25391 0.253864 0.253834 0.253819 0.25382 0.253836 0.253867 0.253913 0.253972 
0.254044 0.254126 0.25422 0.254324 0.254439 0.254567 0.254712 0.254849 0.254716 
0.252479 0.239112 0.182744 0.182831 0.238785 0.251978 0.254178 0.254319 0.2542 
0.25408 0.253983 0.253906 0.253847 0.253803 0.253774 0.25376 0.253759 0.253773 
0.2538 0.253841 0.253894 0.253959 0.254035 0.254122 0.25422 0.254331 0.254456 
0.254599 0.254738 0.254618 0.252447 0.239291 0.183266 0.1834 0.239012 0.251991 
0.254125 0.254252 0.254131 0.254011 0.253916 0.25384 0.253782 0.253739 0.25371 
0.253696 0.253694 0.253706 0.25373 0.253767 0.253815 0.253875 0.253945 0.254027 
0.25412 0.254226 0.254349 0.254491 0.25463 0.254523 0.252416 0.239471 0.183795 
0.183973 0.239237 0.252002 0.25407 0.254184 0.254061 0.253942 0.253847 0.253772 
0.253714 0.253672 0.253643 0.253628 0.253625 0.253635 0.253656 0.25369 0.253734 
0.253789 0.253855 0.253933 0.254022 0.254125 0.254245 0.254385 0.254526 0.254431 
0.252388 0.239654 0.184332 0.18455 0.239461 0.252011 0.254015 0.254115 0.253991 
0.253872 0.253777 0.253702 0.253644 0.253602 0.253573 0.253557 0.253553 0.253561 
0.25358 0.253611 0.253652 0.253704 0.253766 0.25384 0.253926 0.254027 0.254144 
0.254283 0.254424 0.254341 0.25236 0.239838 0.184877 0.185133 0.239683 0.252019 
0.253958 0.254046 0.25392 0.2538 0.253705 0.253631 0.253573 0.253531 0.253501 
0.253484 0.253479 0.253486 0.253503 0.25353 0.253569 0.253618 0.253677 0.253748 
0.253832 0.25393 0.254046 0.254183 0.254325 0.254252 0.252334 0.240025 0.185429 
0.18572 0.239904 0.252024 0.2539 0.253975 0.253847 0.253728 0.253633 0.253558 
0.2535 0.253457 0.253427 0.25341 0.253403 0.253408 0.253423 0.253449 0.253485 
0.253531 0.253589 0.253657 0.253738 0.253834 0.253949 0.254085 0.254227 0.254166 
0.252309 0.240213 0.185988 0.186313 0.240123 0.252027 0.25384 0.253904 0.253774 
0.253654 0.253559 0.253484 0.253426 0.253382 0.253352 0.253333 0.253326 0.253329 
0.253343 0.253367 0.253401 0.253445 0.2535 0.253567 0.253646 0.25374 0.253853 
0.253988 0.254131 0.25408 0.252285 0.240403 0.186555 0.18691 0.240341 0.252028 
0.253779 0.253831 0.2537 0.253579 0.253484 0.253408 0.25335 0.253306 0.253275 
0.253255 0.253247 0.253249 0.253261 0.253284 0.253316 0.253358 0.253412 0.253476 
0.253554 0.253647 0.253758 0.253893 0.254036 0.253996 0.252261 0.240594 0.18713 
0.187513 0.240558 0.252028 0.253717 0.253757 0.253624 0.253503 0.253407 0.253332 
0.253273 0.253228 0.253196 0.253176 0.253167 0.253168 0.253179 0.2532 0.253231 
0.253272 0.253323 0.253387 0.253463 0.253555 0.253665 0.253798 0.253942 0.253913 
0.252238 0.240786 0.187711 0.188121 0.240773 0.252025 0.253653 0.253683 0.253548 
0.253427 0.25333 0.253254 0.253195 0.25315 0.253117 0.253096 0.253086 0.253086 
0.253096 0.253116 0.253145 0.253185 0.253235 0.253297 0.253372 0.253463 0.253572 
0.253705 0.25385 0.25383 0.252215 0.240979 0.1883 0.188734 0.240986 0.25202 
0.253589 0.253607 0.25347 0.253349 0.253252 0.253176 0.253116 0.25307 0.253037 
0.253015 0.253004 0.253003 0.253012 0.253031 0.253059 0.253098 0.253147 0.253208 
0.253282 0.253372 0.25348 0.253612 0.253758 0.253748 0.252191 0.241172 0.188896 
0.189353 0.241198 0.252013 0.253523 0.25353 0.253392 0.25327 0.253173 0.253096 
0.253036 0.25299 0.252956 0.252934 0.252922 0.25292 0.252928 0.252946 0.252973 
0.253011 0.253059 0.253119 0.253192 0.253281 0.253388 0.25352 0.253666 0.253667 
0.252168 0.241366 0.189499 0.189978 0.241408 0.252005 0.253455 0.253453 0.253313 
0.253191 0.253093 0.253016 0.252955 0.252909 0.252874 0.252851 0.252839 0.252836 
0.252843 0.25286 0.252887 0.252923 0.252971 0.25303 0.253102 0.25319 0.253297 
0.253428 0.253575 0.253586 0.252144 0.24156 0.19011 0.190608 0.241617 0.251994 
0.253387 0.253374 0.253233 0.25311 0.253012 0.252935 0.252874 0.252827 0.252792 
0.252768 0.252755 0.252752 0.252758 0.252774 0.2528 0.252836 0.252883 0.252941 
0.253013 0.2531 0.253207 0.253337 0.253485 0.253505 0.25212 0.241753 0.190727 
0.191244 0.241824 0.251982 0.253318 0.253295 0.253152 0.253029 0.252931 0.252853 
0.252791 0.252744 0.252708 0.252684 0.252671 0.252667 0.252673 0.252688 0.252713 
0.252748 0.252795 0.252852 0.252923 0.25301 0.253116 0.253246 0.253395 0.253424 
0.252095 0.241947 0.191352 0.191886 0.24203 0.251968 0.253247 0.253215 0.253071 
0.252948 0.252849 0.252771 0.252709 0.252661 0.252625 0.2526 0.252586 0.252582 
0.252587 0.252602 0.252626 0.252661 0.252706 0.252763 0.252834 0.25292 0.253026 
0.253156 0.253305 0.253343 0.25207 0.242141 0.191983 0.192534 0.242234 0.251952 
0.253176 0.253135 0.252989 0.252865 0.252766 0.252688 0.252625 0.252577 0.252541 
0.252516 0.252501 0.252496 0.252501 0.252515 0.252539 0.252573 0.252618 0.252675 
0.252745 0.252831 0.252936 0.253065 0.253216 0.253262 0.252044 0.242334 0.192621 
0.193188 0.242436 0.251934 0.253104 0.253053 0.252906 0.252782 0.252683 0.252604 
0.252541 0.252493 0.252456 0.25243 0.252415 0.25241 0.252414 0.252428 0.252452 
0.252485 0.25253 0.252586 0.252656 0.252741 0.252846 0.252975 0.253127 0.253181 
0.252017 0.242526 0.193267 0.193848 0.242637 0.251914 0.25303 0.252971 0.252823 
0.252699 0.252599 0.25252 0.252457 0.252408 0.252371 0.252345 0.252329 0.252324 
0.252327 0.252341 0.252364 0.252397 0.252441 0.252497 0.252567 0.252651 0.252756 
0.252885 0.253037 0.2531 0.251989 0.242718 0.19392 0.194515 0.242836 0.251893 
0.252956 0.252889 0.252739 0.252615 0.252515 0.252436 0.252372 0.252323 0.252285 
0.252259 0.252243 0.252237 0.25224 0.252253 0.252276 0.252309 0.252353 0.252408 
0.252477 0.252562 0.252667 0.252795 0.252948 0.253019 0.25196 0.242909 0.194579 
0.195188 0.243033 0.25187 0.252881 0.252805 0.252655 0.25253 0.25243 0.25235 
0.252286 0.252237 0.252199 0.252173 0.252156 0.25215 0.252153 0.252166 0.252188 
0.25222 0.252264 0.252319 0.252388 0.252473 0.252577 0.252706 0.252859 0.252938 
0.25193 0.243099 0.195246 0.195868 0.243229 0.251845 0.252805 0.252722 0.25257 
0.252445 0.252345 0.252265 0.252201 0.252151 0.252113 0.252086 0.252069 0.252062 
0.252065 0.252078 0.2521 0.252132 0.252175 0.25223 0.252299 0.252383 0.252487 
0.252616 0.25277 0.252856 0.2519 0.243288 0.195921 0.196555 0.243422 0.251818 
0.252728 0.252637 0.252485 0.25236 0.252259 0.252179 0.252114 0.252064 0.252026 
0.251999 0.251982 0.251975 0.251977 0.251989 0.252011 0.252043 0.252086 0.252141 
0.25221 0.252293 0.252398 0.252526 0.252681 0.252774 0.251868 0.243476 0.196602 
0.197248 0.243614 0.25179 0.25265 0.252553 0.252399 0.252274 0.252173 0.252092 
0.252028 0.251977 0.251939 0.251911 0.251894 0.251887 0.251889 0.251901 0.251923 
0.251954 0.251997 0.252052 0.25212 0.252204 0.252308 0.252436 0.252592 0.252692 
0.251834 0.243662 0.197291 0.197949 0.243804 0.25176 0.252572 0.252467 0.252313 
0.252187 0.252086 0.252006 0.251941 0.25189 0.251851 0.251824 0.251806 0.251799 
0.251801 0.251812 0.251834 0.251865 0.251908 0.251962 0.252031 0.252114 0.252218 
0.252346 0.252503 0.25261 0.2518 0.243847 0.197987 0.198656 0.243992 0.251729 
0.252493 0.252381 0.252226 0.2521 0.251999 0.251918 0.251853 0.251802 0.251763 
0.251736 0.251718 0.25171 0.251712 0.251723 0.251745 0.251776 0.251819 0.251873 
0.251941 0.252024 0.252128 0.252256 0.252413 0.252527 0.251765 0.244031 0.198691 
0.199371 0.244178 0.251695 0.252413 0.252295 0.252139 0.252013 0.251912 0.251831 
0.251765 0.251715 0.251675 0.251647 0.251629 0.251622 0.251623 0.251634 0.251656 
0.251687 0.251729 0.251783 0.251851 0.251934 0.252038 0.252166 0.252324 0.252444 
0.251728 0.244213 0.199402 0.200093 0.244362 0.251661 0.252333 0.252209 0.252052 
0.251926 0.251824 0.251743 0.251677 0.251626 0.251587 0.251559 0.251541 0.251533 
0.251534 0.251545 0.251566 0.251597 0.251639 0.251693 0.251761 0.251844 0.251948 
0.252076 0.252234 0.25236 0.25169 0.244394 0.200121 0.200822 0.244544 0.251624 
0.252252 0.252121 0.251964 0.251838 0.251736 0.251655 0.251589 0.251538 0.251498 
0.25147 0.251451 0.251443 0.251445 0.251456 0.251476 0.251507 0.251549 0.251603 
0.251671 0.251754 0.251858 0.251986 0.252145 0.252276 0.25165 0.244572 0.200847 
0.201559 0.244723 0.251586 0.25217 0.252034 0.251876 0.251749 0.251647 0.251566 
0.2515 0.251449 0.251409 0.251381 0.251362 0.251354 0.251355 0.251366 0.251387 
0.251417 0.251459 0.251513 0.251581 0.251664 0.251768 0.251896 0.252055 0.252192 
0.251609 0.244749 0.201582 0.202303 0.244901 0.251546 0.252087 0.251946 0.251787 
0.251661 0.251558 0.251477 0.251411 0.251359 0.251319 0.251291 0.251272 0.251264 
0.251265 0.251276 0.251296 0.251327 0.251369 0.251422 0.25149 0.251573 0.251677 
0.251805 0.251965 0.252107 0.251567 0.244924 0.202324 0.203056 0.245076 0.251505 
0.252004 0.251858 0.251698 0.251572 0.251469 0.251388 0.251322 0.25127 0.25123 
0.251201 0.251183 0.251174 0.251175 0.251186 0.251206 0.251237 0.251279 0.251332 
0.2514 0.251483 0.251587 0.251714 0.251875 0.252022 0.251524 0.245096 0.203074 
0.203816 0.245248 0.251462 0.25192 0.251769 0.251609 0.251482 0.25138 0.251298 
0.251232 0.25118 0.25114 0.251111 0.251092 0.251084 0.251085 0.251095 0.251116 
0.251146 0.251188 0.251241 0.251309 0.251392 0.251496 0.251624 0.251784 0.251937 
0.251479 0.245267 0.203832 0.204584 0.245419 0.251417 0.251836 0.25168 0.25152 
0.251393 0.25129 0.251208 0.251142 0.25109 0.25105 0.251021 0.251002 0.250993 
0.250994 0.251004 0.251025 0.251055 0.251097 0.25115 0.251218 0.251301 0.251405 
0.251533 0.251694 0.251851 0.251432 0.245435 0.204599 0.20536 0.245586 0.251371 
0.251751 0.251591 0.25143 0.251303 0.2512 0.251118 0.251052 0.251 0.250959 
0.25093 0.250911 0.250902 0.250903 0.250913 0.250934 0.250964 0.251006 0.251059 
0.251127 0.25121 0.251314 0.251442 0.251603 0.251764 0.251385 0.245601 0.205373 
0.206144 0.245751 0.251323 0.251666 0.251501 0.25134 0.251213 0.25111 0.251028 
0.250961 0.250909 0.250868 0.250839 0.25082 0.250811 0.250812 0.250822 0.250843 
0.250873 0.250915 0.250968 0.251036 0.251119 0.251222 0.25135 0.251512 0.251678 
0.251335 0.245764 0.206157 0.206937 0.245913 0.251273 0.25158 0.251411 0.251249 
0.251122 0.251019 0.250937 0.25087 0.250818 0.250777 0.250748 0.250729 0.25072 
0.250721 0.250731 0.250751 0.250781 0.250823 0.250876 0.250944 0.251027 0.251131 
0.251259 0.251421 0.25159 0.251285 0.245925 0.206948 0.207738 0.246072 0.251222 
0.251493 0.251321 0.251158 0.251031 0.250928 0.250846 0.250779 0.250727 0.250686 
0.250657 0.250638 0.250629 0.250629 0.250639 0.25066 0.25069 0.250732 0.250785 
0.250853 0.250935 0.251039 0.251167 0.25133 0.251503 0.251232 0.246083 0.207748 
0.208548 0.246228 0.25117 0.251406 0.25123 0.251067 0.25094 0.250837 0.250755 
0.250688 0.250636 0.250595 0.250565 0.250546 0.250537 0.250538 0.250548 0.250568 
0.250598 0.25064 0.250693 0.250761 0.250843 0.250947 0.251075 0.251238 0.251415 
0.251179 0.246238 0.208557 0.209366 0.246382 0.251115 0.251318 0.251139 0.250976 
0.250849 0.250745 0.250663 0.250596 0.250544 0.250503 0.250474 0.250454 0.250445 
0.250446 0.250456 0.250476 0.250506 0.250548 0.250601 0.250669 0.250751 0.250855 
0.250983 0.251146 0.251326 0.251123 0.24639 0.209374 0.210194 0.246532 0.25106 
0.25123 0.251048 0.250884 0.250757 0.250654 0.250572 0.250504 0.250452 0.250411 
0.250382 0.250362 0.250353 0.250353 0.250363 0.250384 0.250414 0.250455 0.250508 
0.250576 0.250659 0.250763 0.250891 0.251054 0.251237 0.251067 0.246539 0.210201 
0.21103 0.246678 0.251002 0.251142 0.250956 0.250793 0.250665 0.250562 0.25048 
0.250412 0.25036 0.250319 0.250289 0.25027 0.250261 0.250261 0.250271 0.250291 
0.250321 0.250363 0.250416 0.250484 0.250566 0.250671 0.250798 0.250962 0.251148 
0.251009 0.246685 0.211036 0.211875 0.246822 0.250943 0.251052 0.250864 0.2507 
0.250573 0.250469 0.250387 0.25032 0.250267 0.250226 0.250197 0.250177 0.250168 
0.250168 0.250178 0.250198 0.250228 0.25027 0.250323 0.250391 0.250474 0.250578 
0.250705 0.25087 0.251058 0.250949 0.246828 0.211881 0.212729 0.246961 0.250882 
0.250963 0.250772 0.250608 0.250481 0.250377 0.250295 0.250227 0.250175 0.250134 
0.250104 0.250085 0.250075 0.250076 0.250086 0.250106 0.250136 0.250177 0.25023 
0.250298 0.250381 0.250485 0.250612 0.250777 0.250968 0.250888 0.246967 0.212735 
0.213593 0.247097 0.25082 0.250873 0.25068 0.250515 0.250388 0.250284 0.250202 
0.250134 0.250082 0.250041 0.250011 0.249992 0.249982 0.249983 0.249993 0.250013 
0.250042 0.250084 0.250137 0.250205 0.250288 0.250392 0.250519 0.250684 0.250877 
0.250825 0.247102 0.213598 0.214466 0.24723 0.250757 0.250782 0.250587 0.250422 
0.250295 0.250191 0.250109 0.250041 0.249989 0.249948 0.249918 0.249899 0.249889 
0.249889 0.249899 0.249919 0.249949 0.249991 0.250044 0.250112 0.250194 0.250299 
0.250426 0.250591 0.250786 0.250761 0.247234 0.214471 0.215349 0.247358 0.250691 
0.250691 0.250494 0.250329 0.250202 0.250098 0.250016 0.249948 0.249896 0.249854 
0.249825 0.249805 0.249796 0.249796 0.249806 0.249826 0.249856 0.249897 0.24995 
0.250018 0.250101 0.250205 0.250332 0.250497 0.250695 0.250695 0.247362 0.215353 
0.216242 0.247483 0.250624 0.2506 0.250401 0.250236 0.250109 0.250005 0.249922 
0.249855 0.249802 0.249761 0.249731 0.249712 0.249702 0.249703 0.249712 0.249732 
0.249762 0.249804 0.249857 0.249925 0.250007 0.250111 0.250239 0.250404 0.250603 
0.250628 0.247486 0.216245 0.217144 0.247603 0.250556 0.250508 0.250307 0.250142 
0.250015 0.249911 0.249829 0.249761 0.249709 0.249667 0.249638 0.249618 0.249609 
0.249609 0.249619 0.249639 0.249668 0.24971 0.249763 0.249831 0.249913 0.250017 
0.250144 0.25031 0.25051 0.250559 0.247606 0.217147 0.218056 0.247718 0.250486 
0.250415 0.250213 0.250048 0.249921 0.249817 0.249735 0.249667 0.249615 0.249574 
0.249544 0.249525 0.249515 0.249515 0.249525 0.249545 0.249575 0.249616 0.249669 
0.249737 0.249819 0.249923 0.25005 0.250216 0.250418 0.250489 0.247721 0.218059 
0.218979 0.24783 0.250414 0.250322 0.250119 0.249954 0.249827 0.249723 0.249641 
0.249573 0.249521 0.24948 0.24945 0.249431 0.249421 0.249421 0.249431 0.249451 
0.249481 0.249522 0.249575 0.249642 0.249725 0.249829 0.249956 0.250121 0.250324 
0.250417 0.247832 0.218981 0.219912 0.247936 0.250341 0.250229 0.250024 0.249859 
0.249733 0.249629 0.249547 0.249479 0.249427 0.249386 0.249356 0.249337 0.249327 