# vtk DataFile Version 5.1
vtk output
ASCII
DATASET UNSTRUCTURED_GRID
POINTS 4929 double
0.1016 1.5 0 0.1016 1.45 5.1584879698e-20 0.1016 1.4 8.2585350466e-20 
0.1016 1.35 0 0.1016 1.3 0 0.1016 1.25 7.633537409e-20 
0.1016 1.2 -1.0472138867e-19 0.1016 1.15 -1.0474616531e-19 0.1016 1.1 0 
0.1016 1.05 0 0.1016 1 7.6430874677e-20 0.1016 0.95 -1.047413444e-19 
0.1016 0.9 7.6430971612e-20 0.1016 0.85 1.9900855048e-18 0.1016 0.8 -1.0474130562e-19 
0.1016 0.75 7.6430325377e-20 0.1016 0.7 2.0948253887e-18 0.1016 0.65 0 
0.1016 0.6 1.9900857116e-18 0.1016 0.55 0 0.1016 0.5 -1.0474154473e-19 
0.1016 0.45 0 0.1016 0.4 -1.0474482114e-19 0.1016 0.35 0 
0.1016 0.3 0 0.1016 0.25 0 0.1016 0.2 7.5297934506e-20 
0.1016 0.15 -9.0429310344e-20 0.1016 0.1 -9.209014038e-20 0.1016 0.05 -7.6045124168e-20 
0.1016 0 0 5.08 1.5 0.28700000048 5.08 1.45 0.28700000048 
5.08 1.4 0.28700000048 5.08 1.35 0.28700000048 5.08 1.3 0.28700000048 
5.08 1.25 0.28700000048 5.08 1.2 0.28700000048 5.08 1.15 0.28700000048 
5.08 1.1 0.28700000048 5.08 1.05 0.28700000048 5.08 1 0.28700000048 
5.08 0.95 0.28700000048 5.08 0.9 0.28700000048 5.08 0.85 0.28700000048 
5.08 0.8 0.28700000048 5.08 0.75 0.28700000048 5.08 0.7 0.28700000048 
5.08 0.65 0.28700000048 5.08 0.6 0.28700000048 5.08 0.55 0.28700000048 
5.08 0.5 0.28700000048 5.08 0.45 0.28700000048 5.08 0.4 0.28700000048 
5.08 0.35 0.28700000048 5.08 0.3 0.28700000048 5.08 0.25 0.28700000048 
5.08 0.2 0.28700000048 5.08 0.15 0.28700000048 5.08 0.1 0.28700000048 
5.08 0.05 0.28700000048 5.08 0 0.28700000048 0.12737462728 1.5 0.0088206361979 
0.12737462728 1.45 0.0084257312119 0.12737462728 1.4 0.0085216797888 0.12737462728 1.35 0.0085016461089 
0.12737462728 1.3 0.0085061937571 0.12737462728 1.25 0.008505162783 0.12737462728 1.2 0.0085054002702 
0.12737462728 1.15 0.0085053443909 0.12737462728 1.1 0.0085053574294 0.12737462728 1.05 0.0085053546354 
0.12737462728 1 0.0085053555667 0.12737462728 0.95 0.0085053546354 0.12737462728 0.9 0.0085053546354 
0.12737462728 0.85 0.0085053546354 0.12737462728 0.8 0.0085053546354 0.12737462728 0.75 0.0085053555667 
0.12737462728 0.7 0.0085053555667 0.12737462728 0.65 0.0085053555667 0.12737462728 0.6 0.0085053555667 
0.12737462728 0.55 0.0085053555667 0.12737462728 0.5 0.0085053555667 0.12737462728 0.45 0.0085053546354 
0.12737462728 0.4 0.0085053574294 0.12737462728 0.35 0.0085053471848 0.12737462728 0.3 0.0085053918883 
0.12737462728 0.25 0.0085051963106 0.12737462728 0.2 0.0085060643032 0.12737462728 0.15 0.0085021760315 
0.12737462728 0.1 0.0085194725543 0.12737462728 0.05 0.0084366155788 0.12737462728 0 0.0088125346228 
0.15441581276 1.5 0.02315544337 0.15441581276 1.45 0.023171309382 0.15441581276 1.4 0.023177724332 
0.15441581276 1.35 0.023176256567 0.15441581276 1.3 0.023176565766 0.15441581276 1.25 0.023176498711 
0.15441581276 1.2 0.023176513612 0.15441581276 1.15 0.023176509887 0.15441581276 1.1 0.02317651175 
0.15441581276 1.05 0.023176509887 0.15441581276 1 0.023176509887 0.15441581276 0.95 0.023176509887 
0.15441581276 0.9 0.023176509887 0.15441581276 0.85 0.023176509887 0.15441581276 0.8 0.023176509887 
0.15441581276 0.75 0.023176509887 0.15441581276 0.7 0.023176509887 0.15441581276 0.65 0.023176509887 
0.15441581276 0.6 0.023176509887 0.15441581276 0.55 0.023176509887 0.15441581276 0.5 0.023176509887 
0.15441581276 0.45 0.023176509887 0.15441581276 0.4 0.02317651175 0.15441581276 0.35 0.023176509887 
0.15441581276 0.3 0.023176513612 0.15441581276 0.25 0.023176500574 0.15441581276 0.2 0.023176558316 
0.15441581276 0.15 0.02317628637 0.15441581276 0.1 0.023177588359 0.15441581276 0.05 0.023171856999 
0.15441581276 0 0.023155016825 0.18278579477 1.5 0.039393652231 0.18278579477 1.45 0.039554331452 
0.18278579477 1.4 0.03961930424 0.18278579477 1.35 0.039604440331 0.18278579477 1.3 0.03960756585 
0.18278579477 1.25 0.039606891572 0.18278579477 1.2 0.039607036859 0.18278579477 1.15 0.039607003331 
0.18278579477 1.1 0.039607010782 0.18278579477 1.05 0.039607007056 0.18278579477 1 0.039607007056 
0.18278579477 0.95 0.039607007056 0.18278579477 0.9 0.039607007056 0.18278579477 0.85 0.039607007056 
0.18278579477 0.8 0.039607007056 0.18278579477 0.75 0.039607007056 0.18278579477 0.7 0.039607007056 
0.18278579477 0.65 0.039607007056 0.18278579477 0.6 0.039607007056 0.18278579477 0.55 0.039607007056 
0.18278579477 0.5 0.039607007056 0.18278579477 0.45 0.039607007056 0.18278579477 0.4 0.039607010782 
0.18278579477 0.35 0.039607007056 0.18278579477 0.3 0.039607033134 0.18278579477 0.25 0.039606906474 
0.18278579477 0.2 0.03960749507 0.18278579477 0.15 0.03960474208 0.18278579477 0.1 0.039617925882 
0.18278579477 0.05 0.039559889585 0.18278579477 0 0.039389334619 0.21254987001 1.5 0.056150559336 
0.21254987001 1.45 0.055902633816 0.21254987001 1.4 0.055933699012 0.21254987001 1.35 0.055928990245 
0.21254987001 1.3 0.055929873139 0.21254987001 1.25 0.055929701775 0.21254987001 1.2 0.055929739028 
0.21254987001 1.15 0.055929727852 0.21254987001 1.1 0.055929731578 0.21254987001 1.05 0.055929731578 
0.21254987001 1 0.055929731578 0.21254987001 0.95 0.055929731578 0.21254987001 0.9 0.055929731578 
0.21254987001 0.85 0.055929731578 0.21254987001 0.8 0.055929731578 0.21254987001 0.75 0.055929731578 
0.21254987001 0.7 0.055929731578 0.21254987001 0.65 0.055929731578 0.21254987001 0.6 0.055929731578 
0.21254987001 0.55 0.055929731578 0.21254987001 0.5 0.055929731578 0.21254987001 0.45 0.055929731578 
0.21254987001 0.4 0.055929731578 0.21254987001 0.35 0.055929731578 0.21254987001 0.3 0.055929739028 
0.21254987001 0.25 0.055929705501 0.21254987001 0.2 0.055929850787 0.21254987001 0.15 0.055929102004 
0.21254987001 0.1 0.055933218449 0.21254987001 0.05 0.055904746056 0.21254987001 0 0.056148931384 
0.24377654385 1.5 0.077544353902 0.24377654385 1.45 0.077273264527 0.24377654385 1.4 0.077307231724 
0.24377654385 1.35 0.077302083373 0.24377654385 1.3 0.077303051949 0.24377654385 1.25 0.077302858233 
0.24377654385 1.2 0.077302902937 0.24377654385 1.15 0.077302888036 0.24377654385 1.1 0.077302895486 
0.24377654385 1.05 0.077302895486 0.24377654385 1 0.077302895486 0.24377654385 0.95 0.077302895486 
0.24377654385 0.9 0.077302895486 0.24377654385 0.85 0.077302895486 0.24377654385 0.8 0.077302895486 
0.24377654385 0.75 0.077302895486 0.24377654385 0.7 0.077302895486 0.24377654385 0.65 0.077302895486 
0.24377654385 0.6 0.077302895486 0.24377654385 0.55 0.077302895486 0.24377654385 0.5 0.077302895486 
0.24377654385 0.45 0.077302895486 0.24377654385 0.4 0.077302895486 0.24377654385 0.35 0.077302895486 
0.24377654385 0.3 0.077302902937 0.24377654385 0.25 0.077302865684 0.24377654385 0.2 0.077303022146 
0.24377654385 0.15 0.077302202582 0.24377654385 0.1 0.077306702733 0.24377654385 0.05 0.077275574207 
0.24377654385 0 0.077542573214 0.27653768798 1.5 0.1177598536 0.27653768798 1.45 0.11818488687 
0.27653768798 1.4 0.11812788248 0.27653768798 1.35 0.11813484877 0.27653768798 1.3 0.1181339249 
0.27653768798 1.25 0.11813402921 0.27653768798 1.2 0.11813402176 0.27653768798 1.15 0.11813402176 
0.27653768798 1.1 0.11813402176 0.27653768798 1.05 0.11813402176 0.27653768798 1 0.11813402176 
0.27653768798 0.95 0.11813402176 0.27653768798 0.9 0.11813402176 0.27653768798 0.85 0.11813402176 
0.27653768798 0.8 0.11813402176 0.27653768798 0.75 0.11813402176 0.27653768798 0.7 0.11813402176 
0.27653768798 0.65 0.11813402176 0.27653768798 0.6 0.11813402176 0.27653768798 0.55 0.11813402176 
0.27653768798 0.5 0.11813402176 0.27653768798 0.45 0.11813402176 0.27653768798 0.4 0.11813402176 
0.27653768798 0.35 0.11813402176 0.27653768798 0.3 0.11813402176 0.27653768798 0.25 0.11813403666 
0.27653768798 0.2 0.1181338802 0.27653768798 0.15 0.11813506484 0.27653768798 0.1 0.11812691391 
0.27653768798 0.05 0.11818906665 0.27653768798 0 0.11775659025 0.31090870586 1.5 0.1529057622 
0.31090870586 1.45 0.15299530327 0.31090870586 1.4 0.15298101306 0.31090870586 1.35 0.15298298001 
0.31090870586 1.3 0.15298268199 0.31090870586 1.25 0.15298272669 0.31090870586 1.2 0.15298272669 
0.31090870586 1.15 0.15298272669 0.31090870586 1.1 0.15298272669 0.31090870586 1.05 0.15298272669 
0.31090870586 1 0.15298272669 0.31090870586 0.95 0.15298272669 0.31090870586 0.9 0.15298272669 
0.31090870586 0.85 0.15298272669 0.31090870586 0.8 0.15298272669 0.31090870586 0.75 0.15298272669 
0.31090870586 0.7 0.15298272669 0.31090870586 0.65 0.15298272669 0.31090870586 0.6 0.15298272669 
0.31090870586 0.55 0.15298272669 0.31090870586 0.5 0.15298272669 0.31090870586 0.45 0.15298272669 
0.31090870586 0.4 0.15298272669 0.31090870586 0.35 0.15298272669 0.31090870586 0.3 0.15298272669 
0.31090870586 0.25 0.15298272669 0.31090870586 0.2 0.15298266709 0.31090870586 0.15 0.15298302472 
0.31090870586 0.1 0.15298080444 0.31090870586 0.05 0.15299625695 0.31090870586 0 0.15290501714 
0.34696870625 1.5 0.15526036918 0.34696870625 1.45 0.15538688004 0.34696870625 1.4 0.15536668897 
0.34696870625 1.35 0.15536946058 0.34696870625 1.3 0.15536904335 0.34696870625 1.25 0.15536910295 
0.34696870625 1.2 0.15536910295 0.34696870625 1.15 0.15536910295 0.34696870625 1.1 0.15536910295 
0.34696870625 1.05 0.15536910295 0.34696870625 1 0.15536910295 0.34696870625 0.95 0.15536910295 
0.34696870625 0.9 0.15536910295 0.34696870625 0.85 0.15536910295 0.34696870625 0.8 0.15536910295 
0.34696870625 0.75 0.15536910295 0.34696870625 0.7 0.15536910295 0.34696870625 0.65 0.15536910295 
0.34696870625 0.6 0.15536910295 0.34696870625 0.55 0.15536910295 0.34696870625 0.5 0.15536910295 
0.34696870625 0.45 0.15536910295 0.34696870625 0.4 0.15536910295 0.34696870625 0.35 0.15536910295 
0.34696870625 0.3 0.15536910295 0.34696870625 0.25 0.15536910295 0.34696870625 0.2 0.15536902845 
0.34696870625 0.15 0.15536953509 0.34696870625 0.1 0.15536637604 0.34696870625 0.05 0.15538823605 
0.34696870625 0 0.1552593112 0.3848006853 1.5 0.17458346486 0.3848006853 1.45 0.17403116822 
0.3848006853 1.4 0.17408725619 0.3848006853 1.35 0.17408081889 0.3848006853 1.3 0.17408159375 
[...]
CELL_DATA 4740
FIELD FieldData 7
B_Stress_n_p_m2 1 4740 float
0.0697042 0.0868108 0.0920456 0.10324 0.110256 0.114407 0.116785 0.117942 0.118375 
0.118416 0.118276 0.11809 0.117933 0.117845 0.117839 0.117912 0.118054 0.118253 
0.118493 0.118738 0.118915 0.118895 0.118463 0.117285 0.114866 0.110661 0.103582 
0.0923191 0.0870305 0.0698811 0.203435 0.0421133 0.0817952 0.101378 0.110564 0.118485 
0.124006 0.127711 0.1301 0.131552 0.132386 0.132839 0.133069 0.133181 0.13324 
0.133278 0.133295 0.133262 0.133107 0.132718 0.131927 0.130499 0.128116 0.124407 
0.11887 0.110922 0.101698 0.0820542 0.0422798 0.203867 0.118736 0.0668778 0.0902564 
0.106462 0.115394 0.121731 0.12587 0.128443 0.129966 0.130804 0.131224 0.131411 
0.131486 0.131522 0.131558 0.131612 0.131678 0.131736 0.131741 0.131614 0.131235 
0.130419 0.1289 0.126315 0.122149 0.115772 0.10679 0.0905187 0.0670683 0.11904 
0.104695 0.0864374 0.0996708 0.112689 0.121414 0.127594 0.131765 0.134462 0.136138 
0.13713 0.137687 0.137984 0.138141 0.13823 0.138292 0.138344 0.138382 0.138383 
0.138302 0.138062 0.137546 0.136577 0.134907 0.132199 0.128004 0.121787 0.113016 
0.0999416 0.0866645 0.104999 0.117519 0.10692 0.11492 0.125154 0.1333 0.139595 
0.144176 0.147367 0.149514 0.15091 0.151789 0.152328 0.152654 0.152848 0.152959 
0.153006 0.152988 0.152878 0.152625 0.152143 0.151306 0.149935 0.147797 0.1446 
0.140001 0.133677 0.125493 0.115216 0.107181 0.117756 0.137105 0.132796 0.138547 
0.146701 0.154195 0.16051 0.165438 0.169092 0.171702 0.173507 0.174722 0.175519 
0.176029 0.176339 0.176506 0.176553 0.176477 0.17625 0.175814 0.175076 0.173905 
0.172128 0.169531 0.165875 0.160934 0.154595 0.147072 0.138886 0.133116 0.137364 
0.156523 0.156698 0.161487 0.168078 0.174793 0.180858 0.185869 0.189779 0.192706 
0.194825 0.196318 0.197341 0.198018 0.198438 0.198658 0.198703 0.198572 0.198234 
0.197629 0.196666 0.195219 0.19313 0.19022 0.186313 0.181293 0.175212 0.168474 
0.161861 0.157059 0.156942 0.168897 0.171644 0.175524 0.180696 0.186418 0.191869 
0.196582 0.200415 0.203399 0.205644 0.207283 0.208446 0.209237 0.209737 0.209995 
0.210037 0.209859 0.209436 0.208711 0.207605 0.20601 0.203797 0.200831 0.197005 
0.192289 0.186827 0.181089 0.175901 0.172016 0.169343 0.186737 0.190392 0.193558 
0.197871 0.202931 0.207932 0.2124 0.216156 0.219176 0.221523 0.223291 0.224581 
0.225479 0.226054 0.22635 0.226389 0.226168 0.225664 0.224829 0.223593 0.221868 
0.219554 0.216554 0.21281 0.208343 0.203337 0.198266 0.19394 0.190754 0.187133 
0.222269 0.224387 0.227411 0.231645 0.2366 0.241566 0.246089 0.249983 0.253199 
0.255766 0.257751 0.259233 0.260285 0.260966 0.261315 0.261354 0.261079 0.260469 
0.259481 0.258054 0.256115 0.253583 0.250392 0.246513 0.241996 0.23703 0.23207 
0.227829 0.224804 0.222538 0.271204 0.270014 0.273276 0.277926 0.283072 0.288193 
0.292901 0.297021 0.300496 0.303331 0.305572 0.307278 0.308507 0.309311 0.309725 
0.309764 0.309428 0.308697 0.307533 0.305886 0.303695 0.300899 0.297454 0.293353 
0.288656 0.283539 0.278393 0.27374 0.270488 0.271735 0.324941 0.320665 0.324382 
0.329586 0.334968 0.340241 0.345104 0.349409 0.353095 0.356154 0.358613 0.360512 
0.361898 0.36281 0.363279 0.363319 0.362929 0.362091 0.360774 0.358936 0.356531 
0.353514 0.349862 0.345582 0.340734 0.335471 0.330091 0.324886 0.321158 0.325446 
0.36409 0.359442 0.363528 0.368908 0.374238 0.379391 0.384157 0.38841 0.392093 
0.395188 0.397706 0.399672 0.401119 0.402077 0.402569 0.402608 0.402191 0.401306 
0.399927 0.398022 0.395558 0.392508 0.388861 0.384635 0.379889 0.374748 0.369425 
0.364046 0.359961 0.364616 0.374626 0.372704 0.376708 0.38164 0.386487 0.391153 
0.395482 0.399372 0.402768 0.405648 0.408011 0.409871 0.41125 0.412168 0.41264 
0.412675 0.412271 0.41142 0.410103 0.408299 0.405985 0.403148 0.399787 0.395926 
0.391617 0.386966 0.382128 0.377201 0.373198 0.375127 0.372293 0.37394 0.377802 
0.382154 0.386448 0.390569 0.394397 0.397848 0.400877 0.403459 0.40559 0.407277 
0.408534 0.409372 0.409804 0.409835 0.409463 0.408682 0.407481 0.405844 0.403757 
0.401214 0.398219 0.394794 0.390987 0.386882 0.382597 0.378251 0.374392 0.372746 
0.371585 0.375331 0.379279 0.383308 0.387226 0.390942 0.394375 0.397465 0.400178 
0.402496 0.404414 0.405937 0.407073 0.407833 0.408224 0.408251 0.407912 0.407203 
0.406115 0.404637 0.402759 0.400477 0.397795 0.394729 0.391317 0.387617 0.383709 
0.379687 0.375741 0.371994 0.372039 0.376464 0.380553 0.384453 0.388137 0.391564 
0.394692 0.397489 0.399936 0.402023 0.403749 0.405121 0.406144 0.406829 0.407182 
0.407205 0.406899 0.406259 0.405277 0.403946 0.402255 0.4002 0.397782 0.395008 
0.391899 0.388487 0.384814 0.38092 0.376834 0.372407 0.372688 0.37728 0.381446 
0.385283 0.388811 0.392027 0.394921 0.397482 0.399707 0.401595 0.403152 0.404387 
0.405307 0.405923 0.406239 0.406259 0.405983 0.405407 0.404524 0.403324 0.401799 
0.39994 0.397741 0.395201 0.392326 0.389123 0.385605 0.381775 0.377611 0.373017 
0.373333 0.377957 0.382138 0.385921 0.389333 0.392391 0.395102 0.397473 0.399515 
0.401235 0.402646 0.403761 0.404589 0.405142 0.405425 0.405443 0.405194 0.404676 
0.40388 0.402797 0.401414 0.399719 0.397701 0.395349 0.392654 0.38961 0.386207 
0.38243 0.378251 0.373625 0.373912 0.378538 0.382705 0.386433 0.389751 0.392683 
0.395249 0.397469 0.399359 0.40094 0.402227 0.403238 0.403986 0.404483 0.404738 
0.404753 0.404529 0.404061 0.403341 0.402358 0.401095 0.399538 0.397667 0.395466 
0.392915 0.389995 0.386685 0.382962 0.378798 0.37417 0.374408 0.379032 0.383173 
0.386849 0.390088 0.392918 0.395367 0.397462 0.399229 0.400693 0.401876 0.402799 
0.403479 0.403929 0.404158 0.404171 0.403968 0.403544 0.402889 0.40199 0.400828 
0.399384 0.397635 0.395555 0.39312 0.3903 0.38707 0.383399 0.37926 0.374634 
0.374827 0.379447 0.383561 0.38719 0.39036 0.393106 0.395459 0.397452 0.399118 
0.400485 0.401581 0.40243 0.403051 0.40346 0.403668 0.403679 0.403494 0.403107 
0.402507 0.401678 0.400601 0.399252 0.397602 0.395622 0.39328 0.390545 0.387381 
0.383757 0.379645 0.375023 0.375178 0.379794 0.383884 0.38747 0.390582 0.393256 
0.39553 0.397439 0.39902 0.400306 0.401329 0.402116 0.402688 0.403063 0.403252 
0.403262 0.403092 0.402736 0.402182 0.401413 0.400406 0.399134 0.397567 0.39567 
0.393407 0.390741 0.387635 0.384053 0.379965 0.375348 0.375475 0.380087 0.384154 
0.387702 0.390764 0.393378 0.395583 0.397421 0.398931 0.40015 0.401112 0.401846 
0.402376 0.402722 0.402896 0.402904 0.402747 0.402417 0.401902 0.401183 0.400235 
0.399029 0.397531 0.395703 0.393506 0.390899 0.387843 0.384298 0.380233 0.37562 
0.375729 0.380335 0.384382 0.387897 0.390914 0.393476 0.395623 0.397401 0.39885 
0.400011 0.40092 0.401609 0.402104 0.402425 0.402586 0.402593 0.402446 0.402139 
0.401657 0.40098 0.400083 0.398933 0.397493 0.395725 0.393585 0.39103 0.388016 
0.384505 0.38046 0.375852 0.375949 0.380551 0.384579 0.388063 0.391041 0.393556 
0.395653 0.397376 0.398772 0.399883 0.400747 0.401397 0.401861 0.402161 0.40231 
0.402316 0.402178 0.40189 0.401437 0.400797 0.399943 0.398842 0.397454 0.395738 
0.393648 0.391138 0.388164 0.384682 0.380655 0.376053 0.376146 0.380742 0.384752 
0.388209 0.391151 0.393623 0.395673 0.397348 0.398697 0.399762 0.400585 0.401201 
0.401638 0.401919 0.402058 0.402063 0.401933 0.401662 0.401234 0.400627 0.399812 
0.398755 0.397413 0.395744 0.3937 0.391232 0.388293 0.384839 0.380829 0.376233 
0.376328 0.380918 0.384911 0.38834 0.391248 0.39368 0.395686 0.397317 0.398621 
0.399645 0.400431 0.401015 0.401428 0.401691 0.401821 0.401825 0.401703 0.401448 
0.401043 0.400466 0.399687 0.398669 0.39737 0.395745 0.393743 0.391315 0.38841 
0.384982 0.38099 0.376399 0.376501 0.381085 0.38506 0.388463 0.391337 0.39373 
0.395694 0.397282 0.398544 0.399528 0.400279 0.400834 0.401223 0.401471 0.401592 
0.401595 0.40148 0.401239 0.400856 0.400308 0.399562 0.398583 0.397326 0.395742 
0.393782 0.391392 0.38852 0.385118 0.381144 0.376559 0.376672 0.381248 0.385206 
0.388582 0.391422 0.393776 0.395698 0.397243 0.398463 0.399409 0.400126 0.400652 
0.401019 0.401251 0.401365 0.401367 0.401259 0.401032 0.40067 0.400149 0.399437 
0.398495 0.397278 0.395737 0.393818 0.391466 0.388628 0.385253 0.381296 0.376719 
0.376846 0.381414 0.385353 0.388701 0.391506 0.39382 0.395699 0.3972 0.398378 
0.399285 0.399968 0.400466 0.400811 0.401028 0.401133 0.401135 0.401034 0.400821 
0.40048 0.399986 0.399307 0.398403 0.397228 0.39573 0.393853 0.391542 0.388739 
0.385391 0.381453 0.376884 0.377028 0.381588 0.385506 0.388825 0.391592 0.393863 
0.395697 0.397152 0.398287 0.399155 0.399802 0.400271 0.400594 0.400796 0.400894 
0.400895 0.400801 0.400602 0.400283 0.399817 0.399172 0.398307 0.397175 0.395721 
0.39389 0.39162 0.388854 0.385536 0.381618 0.377059 0.377223 0.381772 0.385669 
0.388954 0.391681 0.393907 0.395692 0.3971 0.398189 0.399015 0.399626 0.400065 
0.400366 0.400552 0.400642 0.400643 0.400556 0.400372 0.400074 0.399638 0.399028 
0.398205 0.397117 0.395712 0.393928 0.391703 0.388978 0.385692 0.381796 0.377247 
0.377434 0.381972 0.385844 0.389094 0.391777 0.393952 0.395686 0.397042 0.398082 
0.398864 0.399438 0.399846 0.400122 0.400293 0.400375 0.400376 0.400296 0.400127 
0.399853 0.399446 0.398874 0.398094 0.397056 0.395701 0.393969 0.391794 0.389112 
0.385863 0.381991 0.377453 0.377666 0.382192 0.386036 0.389246 0.39188 0.394001 
0.395678 0.396977 0.397965 0.3987 0.399234 0.399609 0.399861 0.400016 0.400089 
0.40009 0.400018 0.399865 0.399615 0.39924 0.398708 0.397975 0.396988 0.395689 
0.394013 0.391893 0.38926 0.38605 0.382206 0.37768 0.377924 0.382435 0.386248 
0.389414 0.391993 0.394053 0.395667 0.396906 0.397837 0.398521 0.399012 0.399354 
0.39958 0.399717 0.399782 0.399782 0.399719 0.399583 0.399358 0.399017 0.398527 
0.397844 0.396914 0.395676 0.394063 0.392003 0.389424 0.386259 0.382446 0.377935 
0.378212 0.382706 0.386485 0.3896 0.392117 0.394109 0.395653 0.396825 0.397695 
0.398325 0.398771 0.399076 0.399276 0.399395 0.399451 0.399451 0.399396 0.399278 
0.399079 0.398774 0.39833 0.3977 0.396831 0.39566 0.394116 0.392124 0.389607 
0.386493 0.382714 0.37822 0.378537 0.383012 0.386749 0.389806 0.392253 0.394169 
0.395636 0.396734 0.397536 0.398109 0.398506 0.398773 0.398945 0.399046 0.399093 
0.399094 0.399047 0.398947 0.398776 0.398509 0.398112 0.39754 0.396738 0.395641 
0.394174 0.392259 0.389812 0.386755 0.383018 0.378543 0.378906 0.383358 0.387047 
0.390037 0.392404 0.394233 0.395613 0.39663 0.397359 0.397869 0.398215 0.398443 
0.398586 0.398669 0.398706 0.398707 0.398669 0.398587 0.398445 0.398217 0.397871 
0.397362 0.396633 0.395617 0.394237 0.392408 0.390041 0.387052 0.383362 0.37891 
0.379326 0.383751 0.387385 0.390296 0.39257 0.3943 0.395583 0.396509 0.397159 
0.397602 0.397895 0.398082 0.398196 0.398259 0.398288 0.398288 0.39826 0.398196 
0.398083 0.397897 0.397604 0.397161 0.396511 0.395586 0.394303 0.392572 0.390299 
0.387388 0.383754 0.379329 0.379811 0.384203 0.387769 0.390587 0.392752 0.394369 
0.395542 0.396368 0.396932 0.397304 0.397541 0.397686 0.39777 0.397815 0.397835 
0.397835 0.397816 0.397771 0.397687 0.397542 0.397305 0.396933 0.396369 0.395543 
0.39437 0.392754 0.390589 0.387771 0.384205 0.379813 0.380372 0.384724 0.388208 
0.390914 0.39295 0.394435 0.395484 0.3962 0.396671 0.396969 0.397149 0.397252 
0.397307 0.397334 0.397345 0.397345 0.397335 0.397308 0.397253 0.39715 0.39697 
0.396672 0.396201 0.395485 0.394437 0.392951 0.390915 0.38821 0.384725 0.380374 
0.38103 0.385331 0.388712 0.39128 0.393163 0.394495 0.395404 0.395999 0.396371 
0.396592 0.396715 0.396777 0.396804 0.396814 0.396817 0.396817 0.396814 0.396804 
0.396777 0.396715 0.396593 0.396372 0.395999 0.395404 0.394496 0.393164 0.391281 
0.388713 0.385332 0.381031 0.381811 0.386044 0.389294 0.39169 0.393386 0.394539 
0.395289 0.395753 0.396022 0.396165 0.396232 0.396255 0.396258 0.396252 0.396248 
0.396248 0.396253 0.396258 0.396256 0.396232 0.396166 0.396022 0.395753 0.39529 
0.39454 0.393387 0.39169 0.389294 0.386045 0.381812 0.382751 0.386891 0.389965 
0.392141 0.393609 0.394552 0.395125 0.395449 0.395614 0.395682 0.395698 0.395687 
0.395668 0.395651 0.395641 0.395641 0.395651 0.395668 0.395687 0.395698 0.395682 
0.395614 0.395449 0.395125 0.394553 0.393609 0.392141 0.389965 0.386891 0.382751 
0.383901 0.387906 0.390737 0.392623 0.39381 0.39451 0.394891 0.395073 0.395138 
0.395139 0.395111 0.395074 0.395039 0.395014 0.395 0.395 0.395014 0.395039 
0.395074 0.395111 0.395139 0.395138 0.395073 0.394892 0.394511 0.39381 0.392623 
0.390737 0.387907 0.383901 0.385365 0.389152 0.391617 0.393109 0.393946 0.394372 
0.394554 0.3946 0.394578 0.394527 0.394469 0.394415 0.394372 0.394343 0.394328 
0.394328 0.394343 0.394372 0.394415 0.394469 0.394527 0.394578 0.394601 0.394554 
0.394372 0.393946 0.393109 0.391617 0.389152 0.385365 0.387328 0.390686 0.392552 
0.393494 0.393912 0.394051 0.394052 0.393993 0.393916 0.39384 0.393774 0.393721 
0.393682 0.393656 0.393644 0.393644 0.393656 0.393682 0.393721 0.393774 0.39384 
0.393916 0.393993 0.394052 0.394051 0.393912 0.393494 0.392552 0.390686 0.387328 
0.389758 0.392156 0.393162 0.393522 0.393601 0.393568 0.393498 0.393423 0.393356 
0.393302 0.393259 0.393228 0.393206 0.393192 0.393186 0.393186 0.393192 0.393206 
0.393228 0.393259 0.393302 0.393356 0.393423 0.393498 0.393568 0.393601 0.393522 
0.393162 0.392156 0.389758 852.109 1616.88 1905.81 2119.13 2258.17 2336.59 
2377.27 2394.5 2398.94 2397.05 2391.31 2385.7 2381.33 2379.87 2380.51 
2383.42 2387.21 2391.95 2397.74 2404.51 2410.87 2414.16 2409.89 2391.91 
2349.21 2268.75 2127.88 1912.98 1621.61 854.933 713.479 1494.39 1837.77 
2057.43 2197.04 2274.15 2312.38 2327.31 2329.67 2326.02 2319.54 2313.38 
2308.74 2306.75 2307.01 2309.43 2313.14 2318.08 2324.3 2331.62 2338.81 
2343.41 2341.15 2325.54 2285.68 2206.8 2065.46 1844.15 1498.57 715.263 
698.221 1388.15 1757.49 1987.37 2128.13 2204.57 2241.41 2254.98 2256.11 
2251.44 2244.51 2238.03 2233.22 2230.91 2230.88 2232.95 2236.54 2241.57 
2248.04 2255.65 2263.29 2268.65 2267.56 2253.38 2215.21 2137.21 1994.83 
1763.3 1391.96 699.742 718.706 1316.04 1685.64 1917.13 2057.19 2133.49 
2170.42 2184.23 2185.6 2181.13 2174.54 2168.31 2163.67 2161.28 2161.09 
2162.89 2166.28 2171.16 2177.44 2184.78 2192.08 2197.08 2195.72 2181.35 
2143.3 2065.62 1924.07 1691.02 1319.59 720.248 733.94 1283.35 1630.58 
1851.6 1987.56 2063.39 2101.22 2116.38 2119.07 2115.71 2110.08 2104.55 
2100.36 2098.12 2097.87 2099.45 2102.57 2107.09 2112.87 2119.48 2125.79 
2129.58 2126.88 2111.22 2072.43 1995.38 1858.06 1635.6 1286.74 735.554 
727.36 1270.51 1585.55 1790.08 1920.27 1995.73 2035.22 2052.61 2057.43 
2055.85 2051.64 2047.12 2043.57 2041.63 2041.41 2042.81 2045.61 2049.65 
2054.71 2060.27 2065.14 2067.1 2062.27 2044.43 2004.1 1927.55 1796.13 
1590.28 1273.79 728.992 699.05 1254.06 1543.68 1735.77 1861.49 1937.26 
1978.93 1998.91 2006.1 2006.46 2003.74 2000.27 1997.39 1995.78 1995.63 
1996.9 1999.4 2002.96 2007.28 2011.75 2015.12 2015.12 2007.91 1987.54 
1945.12 1868.37 1741.51 1548.2 1257.24 700.623 728.953 1261.7 1521.74 
1710.82 1833.71 1908.8 1951.19 1972.2 1980.39 1981.58 1979.51 1976.5 
1973.92 1972.45 1972.33 1973.54 1975.91 1979.26 1983.25 1987.25 1989.96 
1989.11 1980.91 1959.54 1916.45 1840.43 1716.46 1526.21 1264.9 730.639 
0.123615 0.124977 0.126402 0.127879 0.129393 0.130924 0.13245 0.133947 0.135386 
0.136743 0.137991 0.139105 0.140065 0.140852 0.141452 0.141857 0.14206 0.142063 
0.14187 0.14149 0.140935 0.140222 0.139369 0.138394 0.137318 0.13616 0.134937 
0.133664 0.132352 0.131008 0.123073 0.124453 0.125911 0.127437 0.129014 0.130619 
0.132228 0.133812 0.13534 0.136783 0.138112 0.139299 0.140321 0.141158 0.141793 
0.142217 0.142426 0.142418 0.1422 0.141783 0.141181 0.140413 0.1395 0.138464 
0.137328 0.136114 0.134843 0.133532 0.132194 0.130838 0.122621 0.124015 0.125503 
0.127073 0.128707 0.130379 0.132062 0.133723 0.135331 0.136851 0.138251 0.139502 
0.140577 0.141455 0.142119 0.142557 0.142764 0.142742 0.142496 0.142039 0.141389 
0.140565 0.139592 0.138495 0.137301 0.136033 0.134715 0.133366 0.132003 0.130634 
0.122076 0.123486 0.125009 0.126631 0.128333 0.130085 0.131858 0.133614 0.135317 
0.13693 0.138417 0.139745 0.140886 0.141814 0.142511 0.142966 0.143173 0.143134 
0.142855 0.142351 0.141642 0.140752 0.139707 0.138536 0.13727 0.135936 0.134562 
0.133169 0.131775 0.130391 0.121495 0.122921 0.124482 0.126162 0.127938 0.129778 
0.131647 0.133506 0.135313 0.137026 0.138607 0.140019 0.141229 0.142211 0.142944 
0.143417 0.143622 0.143561 0.143245 0.142688 0.141913 0.140948 0.139822 0.13857 
0.137224 0.135817 0.134379 0.132936 0.131509 0.130109 0.120864 0.122308 0.123911 
0.125654 0.127511 0.129448 0.131423 0.133394 0.135314 0.137138 0.138822 0.140324 
0.14161 0.142651 0.143423 0.143914 0.144116 0.144032 0.143673 0.143057 0.142209 
0.141161 0.139945 0.138601 0.137166 0.135677 0.134169 0.132671 0.131206 0.129789 
0.120187 0.121651 0.123299 0.125111 0.127056 0.129097 0.131188 0.133281 0.135325 
0.137268 0.139063 0.140663 0.142032 0.143135 0.143949 0.144458 0.144657 0.144546 
0.14414 0.143458 0.142529 0.141388 0.140073 0.138628 0.137094 0.135515 0.133928 
0.132369 0.130862 0.129425 0.119459 0.120945 0.122643 0.124529 0.126571 0.128725 
0.130942 0.133167 0.135344 0.137417 0.139331 0.141038 0.142495 0.143666 0.144524 
0.145053 0.145246 0.145107 0.144648 0.143893 0.142875 0.141631 0.140207 0.13865 
0.137007 0.135328 0.133655 0.132027 0.130474 0.129016 0.118681 0.12019 0.121941 
0.123909 0.126055 0.128332 0.130684 0.133052 0.135373 0.137585 0.139629 0.14145 
0.143002 0.144246 0.145152 0.145702 0.145888 0.145716 0.145199 0.144364 0.143248 
0.141892 0.140348 0.138667 0.136905 0.135115 0.133347 0.131644 0.13004 0.128558 
0.117848 0.119383 0.121192 0.123247 0.125506 0.127915 0.130414 0.132936 0.135412 
0.137774 0.139957 0.141902 0.143557 0.144878 0.145835 0.146407 0.146586 0.146376 
0.145796 0.144874 0.14365 0.142172 0.140495 0.138679 0.136786 0.134875 0.133002 
0.131216 0.129556 0.128048 0.116959 0.118522 0.120394 0.122543 0.124923 0.127475 
0.130132 0.132819 0.135462 0.137986 0.140319 0.142396 0.14416 0.145565 0.146576 
0.147171 0.147342 0.147092 0.146442 0.145425 0.144083 0.142471 0.14065 0.138686 
0.136649 0.134605 0.132617 0.13074 0.129018 0.127482 0.116012 0.117604 0.119544 
0.121795 0.124305 0.127011 0.129837 0.132702 0.135524 0.138221 0.140715 0.142933 
0.144816 0.14631 0.14738 0.147999 0.14816 0.147867 0.147141 0.14602 0.14455 
0.142792 0.140814 0.138689 0.136494 0.134304 0.13219 0.130213 0.128424 0.126856 
0.115004 0.116628 0.118641 0.121001 0.123652 0.126522 0.129529 0.132585 0.135599 
0.138481 0.141146 0.143517 0.145526 0.147116 0.148248 0.148894 0.149043 0.148703 
0.147896 0.146661 0.145053 0.143137 0.140987 0.138686 0.136319 0.13397 0.131718 
0.129632 0.127769 0.126166 0.113933 0.115593 0.117683 0.12016 0.12296 0.126006 
0.129207 0.132467 0.135686 0.138766 0.141615 0.144149 0.146292 0.147986 0.149184 
0.149858 0.149996 0.149604 0.148709 0.147353 0.145595 0.143507 0.141172 0.13868 
0.136126 0.133603 0.1312 0.128994 0.12705 0.125409 0.112799 0.114495 0.116668 
0.11927 0.122231 0.125464 0.128872 0.132349 0.135786 0.139078 0.142124 0.14483 
0.147119 0.148923 0.150193 0.150897 0.151022 0.150575 0.149585 0.148098 0.146178 
0.143904 0.141368 0.138669 0.135911 0.1332 0.130632 0.128296 0.126262 0.12458 
0.111598 0.113334 0.115596 0.118331 0.121461 0.124894 0.128522 0.13223 0.1359 
0.139417 0.142672 0.145564 0.148007 0.149929 0.151276 0.152012 0.152125 0.15162 
0.150528 0.1489 0.146806 0.144332 0.141578 0.138654 0.135676 0.132759 0.130013 
0.127534 0.125404 0.123676 0.110331 0.112109 0.114465 0.117341 0.120652 0.124297 
0.128158 0.132111 0.136028 0.139785 0.143262 0.146352 0.14896 0.151008 0.152437 
0.153209 0.153308 0.152741 0.151541 0.149762 0.147481 0.144791 0.141803 0.138637 
0.13542 0.13228 0.129339 0.126705 0.124469 0.122692 0.108996 0.110818 0.113274 
0.116299 0.119802 0.12367 0.127779 0.131991 0.136171 0.140181 0.143895 0.147195 