# vtk DataFile Version 5.1
vtk output
ASCII
DATASET UNSTRUCTURED_GRID
POINTS 10043 double
-10.1 1.4499999993 2.6138659237e-08 -10.049999999 1.4499999993 6.6014543165e-08 -10.049999999 1.5 -2.6505426831e-07 
-9.9999999985 1.4499999993 8.0297247962e-08 -9.9999999985 1.5 -3.0927753869e-07 -9.9499999978 1.4499999993 8.627990411e-08 
-9.9499999978 1.5 -3.3100718611e-07 -9.899999997 1.4499999993 8.9823295468e-08 -9.899999997 1.5 -3.4393292481e-07 
-9.8499999963 1.4499999993 9.2322586909e-08 -9.8499999963 1.5 -3.5284051592e-07 -9.7999999955 1.4499999993 9.4079730673e-08 
-9.7999999955 1.5 -3.5961261347e-07 -9.7499999948 1.4499999993 9.5433058789e-08 -9.7499999948 1.5 -3.6483129406e-07 
-9.699999994 1.4499999993 9.6613582912e-08 -9.699999994 1.5 -3.6927872316e-07 -9.6499999933 1.4499999993 9.7741356342e-08 
-9.6499999933 1.5 -3.7328049984e-07 -9.5999999925 1.4499999993 9.8614471256e-08 -9.5999999925 1.5 -3.7698396227e-07 
-9.5499999918 1.4499999993 9.9640381279e-08 -9.5499999918 1.5 -3.8041639527e-07 -9.4999999911 1.4499999993 1.0039344289e-07 
-9.4999999911 1.5 -3.836560154e-07 -9.4499999903 1.4499999993 1.0129202366e-07 -9.4499999903 1.5 -3.8700841287e-07 
-9.3999999896 1.4499999993 1.0208146506e-07 -9.3999999896 1.5 -3.9021529119e-07 -9.3499999888 1.4499999993 1.0304007247e-07 
-9.3499999888 1.5 -3.9336759983e-07 -9.2999999881 1.4499999993 1.038422468e-07 -9.2999999881 1.5 -3.966345048e-07 
-9.2499999873 1.4499999993 1.0462623123e-07 -9.2499999873 1.5 -3.9987048694e-07 -9.1999999866 1.4499999993 1.0554663987e-07 
-9.1999999866 1.5 -4.0324107431e-07 -9.1499999858 1.4499999993 1.063651851e-07 -9.1499999858 1.5 -4.0655163502e-07 
-9.0999999851 1.4499999993 1.0732015454e-07 -9.0999999851 1.5 -4.1005500862e-07 -9.0499999844 1.4499999993 1.0828421892e-07 
-9.0499999844 1.5 -4.1352200242e-07 -8.9999999836 1.4499999993 1.0923918836e-07 -8.9999999836 1.5 -4.1713997234e-07 
-8.9499999829 1.4499999993 1.1010684631e-07 -8.9499999829 1.5 -4.2074702833e-07 -8.8999999821 1.4499999993 1.1112729936e-07 
-8.8999999821 1.5 -4.245978289e-07 -8.8499999814 1.4499999993 1.1212592455e-07 -8.8499999814 1.5 -4.2848682824e-07 
-8.7999999806 1.4499999993 1.1316274851e-07 -8.7999999806 1.5 -4.3236491365e-07 -8.7499999799 1.4499999993 1.1425959912e-07 
-8.7499999799 1.5 -4.3647219172e-07 -8.6999999791 1.4499999993 1.1481257189e-07 -8.6999999791 1.5 -4.3858585741e-07 
-8.6499999784 1.4499999993 1.1585667181e-07 -8.6499999784 1.5 -4.4278954192e-07 -8.5999999776 1.4499999993 1.1690986668e-07 
-8.5999999776 1.5 -4.471187367e-07 -8.5499999769 1.4499999993 1.1820862511e-07 -8.5499999769 1.5 -4.5151159611e-07 
-8.4999999762 1.4499999993 1.193964323e-07 -8.4999999762 1.5 -4.5610454436e-07 -8.4499999754 1.4499999993 1.2061333621e-07 
-8.4499999754 1.5 -4.6073023441e-07 -8.3999999747 1.4499999993 1.2186480092e-07 -8.3999999747 1.5 -4.656760666e-07 
-8.3499999739 1.4499999993 1.2313081754e-07 -8.3499999739 1.5 -4.7048365559e-07 -8.2999999732 1.4499999993 1.244604988e-07 
-8.2999999732 1.5 -4.7568414629e-07 -8.2499999724 1.4499999993 1.258502067e-07 -8.2499999724 1.5 -4.8085553317e-07 
-8.1999999717 1.4499999993 1.2720535381e-07 -8.1999999717 1.5 -4.8612150749e-07 -8.1499999709 1.4499999993 1.2857323384e-07 
-8.1499999709 1.5 -4.9158938964e-07 -8.0999999702 1.4499999993 1.300739001e-07 -8.0999999702 1.5 -4.9720824791e-07 
-8.0499999695 1.4499999993 1.3161094614e-07 -8.0499999695 1.5 -5.0285802899e-07 -7.9999999687 1.4499999993 1.3318255299e-07 
-7.9999999687 1.5 -5.0884978009e-07 -7.949999968 1.4499999993 1.3482691941e-07 -7.949999968 1.5 -5.1491974773e-07 
-7.8999999672 1.4499999993 1.3643672503e-07 -7.8999999672 1.5 -5.2121163208e-07 -7.8499999665 1.4499999993 1.3803197874e-07 
-7.8499999665 1.5 -5.2749987844e-07 -7.7999999657 1.4499999993 1.3977820856e-07 -7.7999999657 1.5 -5.3410099099e-07 
-7.749999965 1.4499999993 1.4149715355e-07 -7.749999965 1.5 -5.4085489865e-07 -7.6999999642 1.4499999993 1.4336161769e-07 
-7.6999999642 1.5 -5.4769884628e-07 -7.6499999635 1.4499999993 1.4520516345e-07 -7.6499999635 1.5 -5.5477289607e-07 
-7.5999999627 1.4499999993 1.4719331887e-07 -7.5999999627 1.5 -5.6206522459e-07 -7.549999962 1.4499999993 1.4905232604e-07 
-7.549999962 1.5 -5.6957128436e-07 -7.4999999613 1.4499999993 1.5107595175e-07 -7.4999999613 1.5 -5.7729744185e-07 
-7.4499999605 1.4499999993 1.531277718e-07 -7.4499999605 1.5 -5.8519094637e-07 -7.3999999598 1.4499999993 1.5525417041e-07 
-7.3999999598 1.5 -5.9328908719e-07 -7.349999959 1.4499999993 1.5744787163e-07 -7.349999959 1.5 -6.0162824411e-07 
-7.2999999583 1.4499999993 1.5965794375e-07 -7.2999999583 1.5 -6.1025480136e-07 -7.2499999575 1.4499999993 1.6201171604e-07 
-7.2499999575 1.5 -6.1906143856e-07 -7.1999999568 1.4499999993 1.6434002248e-07 -7.1999999568 1.5 -6.2811091084e-07 
-7.149999956 1.4499999993 1.6681748605e-07 -7.149999956 1.5 -6.3750508161e-07 -7.0999999553 1.4499999993 1.6807531722e-07 
-7.0999999553 1.5 -6.4226355789e-07 -7.0499999546 1.4499999993 1.7064373026e-07 -7.0499999546 1.5 -6.5196968535e-07 
-6.9999999538 1.4499999993 1.7323669965e-07 -6.9999999538 1.5 -6.6201232585e-07 -6.9499999531 1.4499999993 1.7600702051e-07 
-6.9499999531 1.5 -6.7237874646e-07 -6.8999999523 1.4499999993 1.7878825531e-07 -6.8999999523 1.5 -6.8301346801e-07 
-6.8499999516 1.4499999993 1.816404307e-07 -6.8499999516 1.5 -6.9398652158e-07 -6.7999999508 1.4499999993 1.8455263273e-07 
-6.7999999508 1.5 -7.0527698881e-07 -6.7499999501 1.4499999993 1.8767129006e-07 -6.7499999501 1.5 -7.1699946602e-07 
-6.6999999493 1.4499999993 1.9079904234e-07 -6.6999999493 1.5 -7.290020676e-07 -6.6499999486 1.4499999993 1.9405594287e-07 
-6.6499999486 1.5 -7.4147487794e-07 -6.5999999478 1.4499999993 1.9743835367e-07 -6.5999999478 1.5 -7.5430693869e-07 
-6.5499999471 1.4499999993 2.0094081776e-07 -6.5499999471 1.5 -7.6756555245e-07 -6.4999999464 1.4499999993 2.0450603699e-07 
-6.4999999464 1.5 -7.8124708125e-07 -6.4499999456 1.4499999993 2.0816311519e-07 -6.4499999456 1.5 -7.9547066889e-07 
-6.3999999449 1.4499999993 2.1197026001e-07 -6.3999999449 1.5 -8.1009716268e-07 -6.3499999441 1.4499999993 2.1596476074e-07 
-6.3499999441 1.5 -8.2527390077e-07 -6.2999999434 1.4499999993 2.2013024648e-07 -6.2999999434 1.5 -8.4092994257e-07 
-6.2499999426 1.4499999993 2.2435484937e-07 -6.2499999426 1.5 -8.5725082499e-07 -6.1999999419 1.4499999993 2.2883411077e-07 
-6.1999999419 1.5 -8.740901194e-07 -6.1499999411 1.4499999993 2.3331973864e-07 -6.1499999411 1.5 -8.9162517725e-07 
-6.0999999404 1.4499999993 2.3811095673e-07 -6.0999999404 1.5 -9.0984872259e-07 -6.0499999397 1.4499999993 2.4303403734e-07 
-6.0499999397 1.5 -9.2873528956e-07 -5.9999999389 1.4499999993 2.4822179512e-07 -5.9999999389 1.5 -9.4842857834e-07 
-5.9499999382 1.4499999993 2.5354233912e-07 -5.9499999382 1.5 -9.6889493761e-07 -5.8999999374 1.4499999993 2.5916983759e-07 
-5.8999999374 1.5 -9.901652902e-07 -5.8499999367 1.4499999993 2.6498014449e-07 -5.8499999367 1.5 -1.0124638266e-06 
-5.7999999359 1.4499999993 2.7105011213e-07 -5.7999999359 1.5 -1.03564048e-06 -5.7499999352 1.4499999993 2.7738428798e-07 
-5.7499999352 1.5 -1.0599035249e-06 -5.6999999344 1.4499999993 2.8402405405e-07 -5.6999999344 1.5 -1.0852634205e-06 
-5.6499999337 1.4499999993 2.9100806387e-07 -5.6499999337 1.5 -1.1118474958e-06 -5.5999999329 1.4499999993 2.9827310755e-07 
-5.5999999329 1.5 -1.1397453363e-06 -5.5499999322 1.4499999993 3.0205660551e-07 -5.5499999322 1.5 -1.1542072116e-06 
-5.4999999315 1.4499999993 3.0992055144e-07 -5.4999999315 1.5 -1.1842137155e-06 -5.4499999307 1.4499999993 3.1823060453e-07 
-5.4499999307 1.5 -1.2158291156e-06 -5.39999993 1.4499999993 3.2695083974e-07 -5.39999993 1.5 -1.2491166217e-06 
-5.3499999292 1.4499999993 3.3614264794e-07 -5.3499999292 1.5 -1.2843213426e-06 -5.2999999285 1.4499999993 3.4586832953e-07 
-5.2999999285 1.5 -1.3216028947e-06 -5.2499999277 1.4499999993 3.5622156247e-07 -5.2499999277 1.5 -1.3610695078e-06 
-5.199999927 1.4499999993 3.6722826735e-07 -5.199999927 1.5 -1.4030158582e-06 -5.1499999262 1.4499999993 3.7892800719e-07 
-5.1499999262 1.5 -1.4477079731e-06 -5.0999999255 1.4499999993 3.914244644e-07 -5.0999999255 1.5 -1.4955091956e-06 
-5.0499999247 1.4499999993 4.048217761e-07 -5.0499999247 1.5 -1.5466118839e-06 -4.999999924 1.4499999993 4.1919497562e-07 
-4.999999924 1.5 -1.6015203528e-06 -4.9499999233 1.4499999993 4.34664571e-07 -4.9499999233 1.5 -1.6607211819e-06 
-4.8999999225 1.4499999993 4.5147157834e-07 -4.8999999225 1.5 -1.7247409687e-06 -4.8499999218 1.4499999993 4.6965419642e-07 
-4.8499999218 1.5 -1.7942286377e-06 -4.799999921 1.4499999993 4.8950573728e-07 -4.799999921 1.5 -1.870000915e-06 
-4.7499999203 1.4499999993 5.1126585277e-07 -4.7499999203 1.5 -1.9530014015e-06 -4.6999999195 1.4499999993 5.3518874665e-07 
-4.6999999195 1.5 -2.0443742414e-06 -4.6499999188 1.4499999993 5.6169506024e-07 -4.6499999188 1.5 -2.1454877697e-06 
-4.599999918 1.4499999993 5.9126364249e-07 -4.599999918 1.5 -2.2581350549e-06 -4.5499999173 1.4499999993 6.2431195147e-07 
-4.5499999173 1.5 -2.3844183943e-06 -4.4999999166 1.4499999993 6.6170923674e-07 -4.4999999166 1.5 -2.5269894195e-06 
-4.4499999158 1.4499999993 7.0429882726e-07 -4.4499999158 1.5 -2.6892948881e-06 -4.3999999151 1.4499999993 7.5323896453e-07 
-4.3999999151 1.5 -2.8757635846e-06 -4.3499999143 1.4499999993 8.1001803665e-07 -4.3499999143 1.5 -3.0920498375e-06 
-4.2999999136 1.4499999993 8.7668263404e-07 -4.2999999136 1.5 -3.3458152302e-06 -4.2499999128 1.4499999993 9.5592531579e-07 
-4.2499999128 1.5 -3.6471919884e-06 -4.1999999121 1.4499999993 1.0514247606e-06 -4.1999999121 1.5 -4.0101799641e-06 
-4.1499999113 1.4499999993 1.1684455785e-06 -4.1499999113 1.5 -4.4544253797e-06 -4.0999999106 1.4499999993 1.3144558579e-06 
-4.0999999106 1.5 -5.0080766414e-06 -4.0499999098 1.4499999993 1.5006685317e-06 -4.0499999098 1.5 -5.7128677327e-06 
-3.9999999091 1.4499999993 1.7442566786e-06 -3.9999999091 1.5 -6.6327120294e-06 -3.9499999084 1.4499999993 1.8956432086e-06 
[...]
CELL_DATA 9510
FIELD FieldData 4
Water_Depth_m 1 9510 float
0.759982 0.759944 0.759906 0.759866 0.759824 0.75978 0.759734 0.759685 0.759634 
0.759579 0.759521 0.75946 0.759396 0.759328 0.759258 0.759187 0.759114 0.759042 
0.758971 0.758905 0.758845 0.758792 0.758749 0.758716 0.758694 0.758684 0.758685 
0.758698 0.75872 0.758752 0.758792 0.758838 0.758891 0.758947 0.759008 0.759071 
0.759135 0.7592 0.759265 0.759329 0.759391 0.759451 0.759507 0.75956 0.759609 
0.759653 0.759693 0.759728 0.759758 0.759784 0.759803 0.759818 0.759827 0.75983 
0.759827 0.759818 0.759803 0.759781 0.759753 0.759717 0.759674 0.759625 0.759569 
0.759507 0.759439 0.759367 0.759292 0.759214 0.759135 0.759056 0.758978 0.758903 
0.758831 0.758763 0.7587 0.758645 0.758597 0.758557 0.758528 0.758509 0.758501 
0.758506 0.758523 0.758553 0.758594 0.758645 0.758706 0.758774 0.758848 0.758926 
0.759006 0.759086 0.759165 0.759241 0.759314 0.759383 0.759446 0.759504 0.759557 
0.759604 0.759645 0.759681 0.759712 0.759738 0.75976 0.759778 0.759791 0.759802 
0.759808 0.759812 0.759813 0.759811 0.759806 0.759799 0.75979 0.759778 0.759766 
0.759751 0.759736 0.759721 0.759705 0.75969 0.759676 0.759665 0.759657 0.759654 
0.759659 0.759673 0.759705 0.759792 0.760029 0.759929 0.754457 0.741084 0.721566 
0.697576 0.670412 0.641198 0.610984 0.580773 0.552104 0.525834 0.503009 0.485135 
0.474176 0.472454 0.472602 0.472737 0.47286 0.47297 0.473068 0.473156 0.473233 
0.4733 0.473359 0.47341 0.473455 0.473495 0.473531 0.473562 0.47359 0.473615 
0.473637 0.473657 0.473674 0.47369 0.473703 0.473719 0.473733 0.473771 0.47363 
0.472053 0.471512 0.471957 0.471694 0.470967 0.474033 0.479048 0.483548 0.486362 
0.48888 0.491263 0.493641 0.495215 0.495211 0.494023 0.493642 0.49491 0.499027 
0.500816 0.505474 0.511348 0.511592 0.508931 0.498583 0.493362 0.484571 0.481294 
0.483414 0.484821 0.487962 0.488805 0.48888 0.488979 0.489091 0.489068 0.487106 
0.475317 0.475105 0.475008 0.474998 0.475007 0.475022 0.475039 0.475055 0.47507 
0.475083 0.475095 0.475106 0.475115 0.475123 0.475129 0.475135 0.47514 0.475143 
0.475146 0.475149 0.47515 0.475151 0.475152 0.475152 0.475152 0.475151 0.47515 
0.475148 0.475147 0.475145 0.475143 0.475141 0.475138 0.475136 0.475133 0.475131 
0.475128 0.475125 0.475122 0.475119 0.475116 0.475113 0.47511 0.475107 0.475104 
0.475101 0.475098 0.475095 0.475092 0.475089 0.475086 0.475083 0.47508 0.475077 
0.475074 0.475071 0.475069 0.475066 0.475063 0.475061 0.475058 0.475055 0.475053 
0.47505 0.475048 0.475046 0.475043 0.475041 0.475039 0.475037 0.475035 0.475032 
0.47503 0.475028 0.475027 0.475025 0.475023 0.475021 0.47502 0.475018 0.475017 
0.475015 0.475014 0.475012 0.475011 0.47501 0.475009 0.470634 0.759982 0.759944 
0.759905 0.759865 0.759823 0.759779 0.759733 0.759684 0.759632 0.759577 0.759519 
0.759457 0.759392 0.759323 0.759253 0.75918 0.759106 0.759033 0.758961 0.758894 
0.758833 0.75878 0.758736 0.758703 0.758682 0.758672 0.758673 0.758686 0.75871 
0.758742 0.758782 0.75883 0.758883 0.75894 0.759001 0.759065 0.75913 0.759196 
0.759261 0.759326 0.759389 0.759449 0.759507 0.75956 0.75961 0.759655 0.759696 
0.759732 0.759762 0.759788 0.759808 0.759823 0.759832 0.759835 0.759832 0.759823 
0.759808 0.759785 0.759756 0.75972 0.759677 0.759626 0.759569 0.759506 0.759438 
0.759365 0.759288 0.75921 0.75913 0.75905 0.758972 0.758896 0.758823 0.758755 
0.758692 0.758635 0.758586 0.758546 0.758516 0.758497 0.758489 0.758493 0.75851 
0.75854 0.758581 0.758633 0.758695 0.758764 0.75884 0.758919 0.759 0.759081 
0.759161 0.759239 0.759313 0.759382 0.759446 0.759505 0.759558 0.759605 0.759646 
0.759682 0.759713 0.759739 0.759761 0.759778 0.759792 0.759802 0.759808 0.759812 
0.759812 0.75981 0.759805 0.759798 0.759789 0.759777 0.759763 0.759748 0.759732 
0.759715 0.759699 0.759682 0.759667 0.759653 0.759642 0.759636 0.759634 0.759638 
0.759651 0.759675 0.75974 0.759709 0.754806 0.74213 0.723073 0.699195 0.671869 
0.642313 0.611649 0.580909 0.551433 0.524368 0.501174 0.483613 0.473852 0.472482 
0.472624 0.472753 0.472874 0.472982 0.473078 0.473163 0.473238 0.473303 0.473361 
0.473411 0.473455 0.473494 0.473528 0.473559 0.473586 0.47361 0.473633 0.473653 
0.473671 0.473689 0.473707 0.473725 0.47375 0.473855 0.473626 0.469042 0.463833 
0.466186 0.468682 0.473282 0.47717 0.480358 0.484337 0.487457 0.489879 0.492454 
0.4951 0.497928 0.500583 0.503484 0.507082 0.511211 0.518736 0.518822 0.526901 
0.530458 0.529247 0.526977 0.515655 0.507944 0.490188 0.482331 0.485281 0.485831 
0.488112 0.48948 0.49001 0.49006 0.491683 0.492463 0.489848 0.47593 0.474865 
0.474902 0.474934 0.474964 0.47499 0.475014 0.475034 0.475053 0.475069 0.475082 
0.475094 0.475105 0.475114 0.475121 0.475127 0.475133 0.475137 0.47514 0.475143 
0.475145 0.475146 0.475147 0.475147 0.475147 0.475147 0.475146 0.475145 0.475143 
0.475141 0.47514 0.475137 0.475135 0.475133 0.47513 0.475128 0.475125 0.475122 
0.475119 0.475117 0.475114 0.475111 0.475108 0.475105 0.475102 0.475099 0.475096 
0.475093 0.47509 0.475087 0.475084 0.475081 0.475078 0.475075 0.475073 0.47507 
0.475067 0.475064 0.475062 0.475059 0.475056 0.475054 0.475051 0.475049 0.475047 
0.475044 0.475042 0.47504 0.475037 0.475035 0.475033 0.475031 0.475029 0.475027 
0.475025 0.475024 0.475022 0.47502 0.475018 0.475017 0.475015 0.475014 0.475012 
0.475011 0.47501 0.475009 0.475007 0.470631 0.759982 0.759944 0.759906 0.759865 
0.759823 0.759779 0.759732 0.759682 0.75963 0.759574 0.759514 0.759451 0.759384 
0.759314 0.759241 0.759166 0.75909 0.759015 0.758942 0.758873 0.75881 0.758756 
0.758712 0.758679 0.758658 0.758649 0.758651 0.758666 0.758691 0.758724 0.758766 
0.758815 0.758869 0.758927 0.758989 0.759054 0.759121 0.759188 0.759255 0.759321 
0.759386 0.759448 0.759507 0.759562 0.759613 0.75966 0.759702 0.759739 0.759771 
0.759798 0.759819 0.759834 0.759843 0.759846 0.759843 0.759834 0.759818 0.759795 
0.759765 0.759727 0.759682 0.75963 0.759571 0.759506 0.759436 0.759361 0.759282 
0.759202 0.759121 0.75904 0.75896 0.758883 0.75881 0.75874 0.758676 0.758618 
0.758568 0.758526 0.758494 0.758474 0.758465 0.758468 0.758485 0.758516 0.758558 
0.758612 0.758676 0.758748 0.758826 0.758907 0.758991 0.759075 0.759158 0.759238 
0.759313 0.759384 0.759449 0.759509 0.759562 0.75961 0.759651 0.759687 0.759718 
0.759744 0.759765 0.759782 0.759796 0.759806 0.759812 0.759816 0.759817 0.759814 
0.759809 0.759802 0.759792 0.75978 0.759766 0.759751 0.759734 0.759716 0.759698 
0.75968 0.759663 0.759647 0.759634 0.759625 0.759621 0.759623 0.759634 0.759658 
0.759769 0.759683 0.754927 0.742595 0.723867 0.70015 0.67279 0.643041 0.612071 
0.580984 0.551086 0.52367 0.500414 0.48317 0.473803 0.472479 0.472634 0.472772 
0.472895 0.473003 0.473099 0.473182 0.473255 0.473318 0.473374 0.473422 0.473465 
0.473502 0.473536 0.473565 0.473591 0.473615 0.473637 0.473656 0.473674 0.473691 
0.473707 0.473723 0.47374 0.473856 0.47363 0.468386 0.464372 0.466798 0.469426 
0.47426 0.477957 0.480395 0.484465 0.487263 0.489145 0.491867 0.495596 0.500193 
0.505351 0.509945 0.515154 0.518569 0.529909 0.530371 0.529819 0.532569 0.530854 
0.526488 0.517371 0.509353 0.502458 0.489822 0.487355 0.488 0.489462 0.490227 
0.490765 0.490806 0.492777 0.494212 0.492269 0.475628 0.474876 0.474914 0.474943 
0.474971 0.474997 0.47502 0.47504 0.475057 0.475073 0.475086 0.475098 0.475108 
0.475117 0.475124 0.47513 0.475135 0.475139 0.475142 0.475145 0.475146 0.475148 
0.475148 0.475148 0.475148 0.475147 0.475147 0.475145 0.475144 0.475142 0.47514 
0.475138 0.475136 0.475133 0.475131 0.475128 0.475125 0.475123 0.47512 0.475117 
0.475114 0.475111 0.475108 0.475105 0.475102 0.475099 0.475096 0.475093 0.47509 
0.475087 0.475084 0.475081 0.475078 0.475076 0.475073 0.47507 0.475067 0.475064 
0.475062 0.475059 0.475057 0.475054 0.475051 0.475049 0.475047 0.475044 0.475042 
0.47504 0.475038 0.475035 0.475033 0.475031 0.475029 0.475027 0.475025 0.475024 
0.475022 0.47502 0.475019 0.475017 0.475015 0.475014 0.475013 0.475011 0.47501 
0.475009 0.475007 0.470631 0.759982 0.759945 0.759906 0.759865 0.759823 0.759778 
0.75973 0.75968 0.759626 0.759569 0.759507 0.759442 0.759373 0.7593 0.759225 
0.759146 0.759067 0.758988 0.758912 0.758841 0.758776 0.75872 0.758676 0.758644 
0.758624 0.758617 0.758622 0.758638 0.758665 0.758701 0.758745 0.758794 0.75885 
0.75891 0.758973 0.75904 0.759108 0.759177 0.759246 0.759315 0.759381 0.759446 
0.759507 0.759564 0.759618 0.759666 0.75971 0.759749 0.759783 0.759811 0.759833 
0.759848 0.759858 0.759861 0.759858 0.759848 0.759832 0.759808 0.759776 0.759736 
0.759689 0.759635 0.759573 0.759505 0.759431 0.759354 0.759273 0.75919 0.759107 
0.759024 0.758943 0.758864 0.758789 0.758718 0.758652 0.758593 0.75854 0.758497 
0.758463 0.758441 0.75843 0.758433 0.758451 0.758482 0.758526 0.758583 0.75865 
0.758725 0.758807 0.758893 0.758981 0.759068 0.759155 0.759237 0.759316 0.759389 
0.759456 0.759516 0.759571 0.759618 0.75966 0.759696 0.759726 0.759752 0.759773 
0.759789 0.759802 0.759812 0.759819 0.759822 0.759823 0.75982 0.759815 0.759808 
0.759798 0.759785 0.75977 0.759754 0.759735 0.759716 0.759696 0.759676 0.759656 
0.759638 0.759621 0.759608 0.759599 0.759596 0.759601 0.759615 0.759715 0.75964 
0.754947 0.742782 0.724249 0.700658 0.673308 0.643457 0.612304 0.581016 0.5509 
0.523367 0.500146 0.48306 0.473836 0.472518 0.472673 0.47281 0.472931 0.473037 
0.47313 0.47321 0.47328 0.473341 0.473393 0.473439 0.473479 0.473515 0.473546 
0.473574 0.473599 0.473621 0.473642 0.47366 0.473678 0.473694 0.47371 0.473727 
0.473746 0.473864 0.473643 0.468443 0.464085 0.466527 0.469211 0.474289 0.477935 
0.480351 0.484177 0.486865 0.488848 0.491798 0.495413 0.499784 0.504784 0.509222 
0.514354 0.51909 0.52452 0.524646 0.52305 0.523032 0.519756 0.513532 0.511226 
0.507901 0.506058 0.505367 0.488881 0.490279 0.490734 0.490835 0.491275 0.491277 
0.492956 0.494877 0.492872 0.475967 0.474875 0.474913 0.474946 0.474976 0.475002 
0.475025 0.475045 0.475062 0.475077 0.47509 0.475102 0.475111 0.47512 0.475127 
0.475132 0.475137 0.475141 0.475144 0.475146 0.475148 0.475149 0.475149 0.475149 
0.475149 0.475148 0.475147 0.475146 0.475144 0.475143 0.475141 0.475138 0.475136 
0.475134 0.475131 0.475128 0.475126 0.475123 0.47512 0.475117 0.475114 0.475111 
0.475108 0.475105 0.475102 0.475099 0.475096 0.475093 0.47509 0.475087 0.475084 
0.475081 0.475078 0.475075 0.475073 0.47507 0.475067 0.475064 0.475062 0.475059 
0.475056 0.475054 0.475051 0.475049 0.475047 0.475044 0.475042 0.47504 0.475037 
0.475035 0.475033 0.475031 0.475029 0.475027 0.475025 0.475024 0.475022 0.47502 
0.475018 0.475017 0.475015 0.475014 0.475012 0.475011 0.47501 0.475009 0.475007 
0.470631 0.759982 0.759945 0.759907 0.759866 0.759823 0.759777 0.759729 0.759677 
0.759622 0.759562 0.759498 0.759431 0.759358 0.759282 0.759203 0.759121 0.759037 
0.758955 0.758875 0.758801 0.758734 0.758678 0.758634 0.758603 0.758585 0.758581 
0.75859 0.758609 0.758638 0.758676 0.75872 0.758771 0.758828 0.758889 0.758955 
0.759023 0.759093 0.759165 0.759236 0.759307 0.759377 0.759444 0.759507 0.759567 
0.759623 0.759674 0.759721 0.759761 0.759796 0.759826 0.759849 0.759866 0.759876 
0.75988 0.759876 0.759866 0.759848 0.759823 0.759789 0.759747 0.759697 0.759639 
0.759574 0.759502 0.759425 0.759344 0.759259 0.759174 0.759089 0.759004 0.758921 
0.758841 0.758765 0.758692 0.758625 0.758563 0.758508 0.758462 0.758426 0.758401 
0.758389 0.758392 0.758409 0.758441 0.758488 0.758547 0.758618 0.758698 0.758785 
0.758876 0.758969 0.759062 0.759153 0.75924 0.759322 0.759398 0.759467 0.759529 
0.759584 0.759632 0.759674 0.759709 0.759739 0.759764 0.759784 0.7598 0.759812 
0.759821 0.759828 0.759831 0.759831 0.759829 0.759824 0.759816 0.759805 0.759792 
0.759776 0.759758 0.759739 0.759717 0.759695 0.759672 0.759649 0.759626 0.759605 
0.759587 0.759572 0.759563 0.759562 0.759571 0.759666 0.759584 0.754914 0.742825 
0.724395 0.700883 0.673553 0.643654 0.612407 0.58102 0.550807 0.523248 0.500075 
0.483064 0.473883 0.472568 0.472725 0.472861 0.47298 0.473083 0.473172 0.473248 
0.473314 0.47337 0.473419 0.473461 0.473498 0.473531 0.47356 0.473586 0.473609 
0.47363 0.473649 0.473666 0.473682 0.473697 0.473712 0.473728 0.473749 0.473877 
0.473662 0.468473 0.462856 0.464867 0.466861 0.471096 0.473614 0.475633 0.477747 
0.479976 0.482568 0.485676 0.488059 0.490538 0.493934 0.497164 0.501045 0.508111 
0.508104 0.504902 0.505622 0.496174 0.497477 0.499553 0.503529 0.505989 0.506372 
0.506091 0.490418 0.491048 0.491749 0.492311 0.492846 0.492878 0.494657 0.49645 
0.494254 0.475906 0.474889 0.474926 0.474958 0.474987 0.475012 0.475034 0.475053 
0.47507 0.475085 0.475097 0.475108 0.475117 0.475125 0.475131 0.475137 0.475141 
0.475144 0.475147 0.475149 0.47515 0.475151 0.475151 0.475151 0.475151 0.47515 
0.475149 0.475147 0.475145 0.475144 0.475141 0.475139 0.475137 0.475134 0.475132 
0.475129 0.475126 0.475123 0.47512 0.475117 0.475114 0.475111 0.475108 0.475105 
0.475102 0.475099 0.475096 0.475093 0.47509 0.475087 0.475084 0.475081 0.475078 
0.475076 0.475073 0.47507 0.475067 0.475064 0.475062 0.475059 0.475056 0.475054 
0.475051 0.475049 0.475047 0.475044 0.475042 0.47504 0.475037 0.475035 0.475033 
0.475031 0.475029 0.475027 0.475025 0.475024 0.475022 0.47502 0.475018 0.475017 
0.475015 0.475014 0.475012 0.475011 0.47501 0.475009 0.475007 0.470631 0.759982 
0.759946 0.759908 0.759867 0.759824 0.759777 0.759727 0.759674 0.759616 0.759555 
0.759488 0.759417 0.759341 0.759261 0.759178 0.759091 0.759004 0.758918 0.758835 
0.758758 0.758691 0.758635 0.758592 0.758564 0.75855 0.758549 0.75856 0.758582 
0.758612 0.75865 0.758696 0.758747 0.758805 0.758867 0.758933 0.759004 0.759076 
0.75915 0.759225 0.759299 0.759371 0.759441 0.759508 0.759571 0.75963 0.759683 
0.759732 0.759774 0.759811 0.759842 0.759866 0.759884 0.759896 0.759899 0.759896 
0.759885 0.759866 0.759839 0.759803 0.759758 0.759705 0.759644 0.759575 0.759499 
0.759418 0.759333 0.759246 0.759158 0.759071 0.758985 0.758901 0.75882 0.758742 
0.758668 0.758599 0.758534 0.758477 0.758427 0.758388 0.75836 0.758346 0.758347 
0.758364 0.758397 0.758445 0.758508 0.758583 0.758668 0.75876 0.758857 0.758956 
0.759055 0.759151 0.759243 0.759329 0.759409 0.759481 0.759545 0.759602 0.759651 
0.759692 0.759727 0.759757 0.75978 0.759799 0.759814 0.759826 0.759834 0.75984 
0.759843 0.759843 0.759841 0.759835 0.759827 0.759815 0.759801 0.759784 0.759765 
0.759743 0.759719 0.759694 0.759667 0.75964 0.759613 0.759586 0.759561 0.759539 
0.759522 0.759511 0.759512 0.759599 0.759511 0.754844 0.742783 0.724402 0.700933 
0.673622 0.64371 0.612428 0.581007 0.550762 0.523213 0.500083 0.483113 0.47395 
0.472637 0.472794 0.472928 0.473043 0.473141 0.473225 0.473296 0.473356 0.473407 
0.473451 0.473489 0.473521 0.473551 0.473576 0.4736 0.473621 0.47364 0.473658 
0.473673 0.473688 0.473701 0.473713 0.473725 0.473744 0.473848 0.473689 0.470529 
0.465984 0.466467 0.466877 0.466886 0.466059 0.465229 0.467446 0.469316 0.47059 
0.47405 0.475479 0.475773 0.477399 0.480064 0.481904 0.482719 0.483601 0.486667 
0.487308 0.488967 0.492436 0.49644 0.499099 0.502699 0.503305 0.505545 0.491273 
0.491397 0.49302 0.493736 0.493317 0.492968 0.495909 0.49794 0.495695 0.476076 
0.474905 0.474942 0.474973 0.475001 0.475025 0.475046 0.475064 0.47508 0.475094 
0.475105 0.475115 0.475124 0.475131 0.475137 0.475142 0.475145 0.475148 0.475151 
0.475152 0.475153 0.475154 0.475154 0.475153 0.475153 0.475152 0.47515 0.475149 
0.475147 0.475145 0.475142 0.47514 0.475138 0.475135 0.475132 0.47513 0.475127 
0.475124 0.475121 0.475118 0.475115 0.475112 0.475109 0.475106 0.475103 0.475099 
0.475096 0.475093 0.47509 0.475087 0.475084 0.475081 0.475078 0.475076 0.475073 
0.47507 0.475067 0.475064 0.475062 0.475059 0.475056 0.475054 0.475051 0.475049 
0.475047 0.475044 0.475042 0.47504 0.475037 0.475035 0.475033 0.475031 0.475029 
0.475027 0.475025 0.475024 0.475022 0.47502 0.475018 0.475017 0.475015 0.475014 
0.475012 0.475011 0.47501 0.475009 0.475007 0.470631 0.759983 0.759947 0.759909 
0.759869 0.759825 0.759777 0.759726 0.759671 0.759611 0.759547 0.759477 0.759403 
0.759323 0.759239 0.759152 0.759061 0.758971 0.758881 0.758796 0.758719 0.758652 
0.758597 0.758557 0.758532 0.758521 0.758523 0.758536 0.758558 0.758588 0.758626 
0.758671 0.758722 0.758779 0.758843 0.758911 0.758983 0.759057 0.759134 0.759211 
0.759288 0.759364 0.759437 0.759507 0.759573 0.759635 0.759692 0.759742 0.759787 
0.759826 0.759858 0.759884 0.759902 0.759914 0.759918 0.759914 0.759903 0.759883 
0.759854 0.759816 0.759769 0.759713 0.759648 0.759576 0.759497 0.759412 0.759325 
0.759235 0.759146 0.759057 0.75897 0.758886 0.758804 0.758726 0.75865 0.758578 
0.75851 0.758448 0.758395 0.758351 0.758319 0.758301 0.758299 0.758315 0.758348 
0.758399 0.758465 0.758545 0.758635 0.758732 0.758835 0.758939 0.759043 0.759144 
0.75924 0.759331 0.759414 0.75949 0.759557 0.759617 0.759668 0.759711 0.759747 
0.759776 0.7598 0.759818 0.759832 0.759843 0.759851 0.759856 0.759859 0.759859 
0.759856 0.759851 0.759842 0.759829 0.759814 0.759795 0.759774 0.759749 0.759722 
0.759694 0.759663 0.759631 0.759598 0.759564 0.759531 0.7595 0.759472 0.759451 
0.759439 0.759515 0.759416 0.754742 0.742684 0.724319 0.700873 0.67358 0.643676 
0.612397 0.580984 0.550747 0.523224 0.500131 0.483189 0.474036 0.472725 0.47288 
0.473011 0.47312 0.473212 0.473289 0.473353 0.473406 0.47345 0.473488 0.47352 
0.473548 0.473573 0.473596 0.473616 0.473635 0.473652 0.473668 0.473682 0.473695 
0.473705 0.473714 0.473721 0.473727 0.473757 0.475712 0.477659 0.477118 0.474015 
0.475542 0.475393 0.47375 0.474071 0.476426 0.478048 0.479179 0.479133 0.478969 
0.480322 0.480618 0.482222 0.484137 0.484171 0.485203 0.486419 0.488472 0.488832 
0.488672 0.490985 0.492758 0.494467 0.4985 0.502061 0.491394 0.491949 0.494035 
0.494736 0.494237 0.493797 0.49625 0.498778 0.49687 0.476193 0.474926 0.474961 
0.474991 0.475017 0.47504 0.47506 0.475077 0.475092 0.475104 0.475115 0.475124 
0.475132 0.475138 0.475143 0.475148 0.475151 0.475153 0.475155 0.475156 0.475157 
0.475157 0.475157 0.475156 0.475155 0.475154 0.475152 0.47515 0.475148 0.475146 
0.475144 0.475141 0.475139 0.475136 0.475133 0.47513 0.475127 0.475124 0.475121 
0.475118 0.475115 0.475112 0.475109 0.475106 0.475103 0.4751 0.475097 0.475094 
0.475091 0.475087 0.475085 0.475082 0.475079 0.475076 0.475073 0.47507 0.475067 
0.475065 0.475062 0.475059 0.475057 0.475054 0.475051 0.475049 0.475047 0.475044 
0.475042 0.47504 0.475038 0.475035 0.475033 0.475031 0.475029 0.475027 0.475025 
0.475024 0.475022 0.47502 0.475018 0.475017 0.475015 0.475014 0.475012 0.475011 
0.47501 0.475009 0.475007 0.470631 0.759984 0.759949 0.759911 0.75987 0.759826 
0.759777 0.759725 0.759668 0.759606 0.759538 0.759466 0.759388 0.759305 0.759218 
0.759127 0.759034 0.75894 0.75885 0.758764 0.758687 0.758621 0.758569 0.758532 
0.75851 0.758501 0.758505 0.758517 0.758538 0.758566 0.758602 0.758645 0.758696 
0.758753 0.758817 0.758887 0.75896 0.759038 0.759117 0.759197 0.759277 0.759356 
0.759432 0.759505 0.759574 0.759638 0.759697 0.75975 0.759798 0.759838 0.759872 
0.759899 0.759918 0.75993 0.759934 0.75993 0.759918 0.759897 0.759867 0.759828 
0.759779 0.75972 0.759653 0.759578 0.759496 0.759409 0.759319 0.759228 0.759138 
0.759048 0.758961 0.758876 0.758793 0.758713 0.758634 0.758559 0.758487 0.75842 
0.758361 0.758311 0.758274 0.758252 0.758247 0.758262 0.758296 0.758349 0.758419 
0.758504 0.7586 0.758703 0.758812 0.758922 0.75903 0.759135 0.759234 0.759327 
0.759412 0.759489 0.759558 0.75962 0.759673 0.759719 0.759758 0.75979 0.759815 
0.759835 0.75985 0.759861 0.759869 0.759875 0.759878 0.759879 0.759876 0.75987 
0.75986 0.759847 0.75983 0.759809 0.759785 0.759758 0.759728 0.759695 0.75966 
0.759622 0.759583 0.759541 0.759499 0.759456 0.759415 0.759379 0.759351 0.759411 
0.759297 0.754608 0.742541 0.724172 0.700735 0.67346 0.64358 0.612331 0.580955 
0.550752 0.52327 0.500214 0.483294 0.474147 0.472836 0.472986 0.47311 0.473212 