# vtk DataFile Version 5.1
vtk output
ASCII
DATASET UNSTRUCTURED_GRID
POINTS 10043 double
-10.1 1.4499999993 8.6074358308e-08 -10.049999999 1.4499999993 1.0829877084e-07 -10.049999999 1.5 -4.2207125261e-07 
-9.9999999985 1.4499999993 1.1536372568e-07 -9.9999999985 1.5 -4.417981927e-07 -9.9499999978 1.4499999993 1.1746647743e-07 
-9.9499999978 1.5 -4.49126901e-07 -9.899999997 1.4499999993 1.1845600767e-07 -9.899999997 1.5 -4.5235742618e-07 
-9.8499999963 1.4499999993 1.1882162454e-07 -9.8499999963 1.5 -4.5398209636e-07 -9.7999999955 1.4499999993 1.1905809316e-07 
-9.7999999955 1.5 -4.5500223678e-07 -9.7499999948 1.4499999993 1.1926728405e-07 -9.7499999948 1.5 -4.5569709073e-07 
-9.699999994 1.4499999993 1.1940552724e-07 -9.699999994 1.5 -4.5634646995e-07 -9.6499999933 1.4499999993 1.1957651225e-07 
-9.6499999933 1.5 -4.570576948e-07 -9.5999999925 1.4499999993 1.1986209358e-07 -9.5999999925 1.5 -4.5790716285e-07 
-9.5499999918 1.4499999993 1.2016040785e-07 -9.5499999918 1.5 -4.5881665756e-07 -9.4999999911 1.4499999993 1.2036777264e-07 
-9.4999999911 1.5 -4.6006812227e-07 -9.4499999903 1.4499999993 1.2068609578e-07 -9.4499999903 1.5 -4.6140507948e-07 
-9.3999999896 1.4499999993 1.2116267101e-07 -9.3999999896 1.5 -4.6286208999e-07 -9.3499999888 1.4499999993 1.2152101192e-07 
-9.3499999888 1.5 -4.6463924264e-07 -9.2999999881 1.4499999993 1.2201759603e-07 -9.2999999881 1.5 -4.6643822316e-07 
-9.2499999873 1.4499999993 1.2262513849e-07 -9.2499999873 1.5 -4.6853006097e-07 -9.1999999866 1.4499999993 1.2313445552e-07 
-9.1999999866 1.5 -4.7071316089e-07 -9.1499999858 1.4499999993 1.2372562708e-07 -9.1499999858 1.5 -4.7313028517e-07 
-9.0999999851 1.4499999993 1.2443685193e-07 -9.0999999851 1.5 -4.7556591198e-07 -9.0499999844 1.4499999993 1.2516626668e-07 
-9.0499999844 1.5 -4.781888947e-07 -8.9999999836 1.4499999993 1.2597207899e-07 -8.9999999836 1.5 -4.8104652706e-07 
-8.9499999829 1.4499999993 1.2671240768e-07 -8.9499999829 1.5 -4.8408060138e-07 -8.8999999821 1.4499999993 1.2747456424e-07 
-8.8999999821 1.5 -4.8717288337e-07 -8.8499999814 1.4499999993 1.2840042984e-07 -8.8499999814 1.5 -4.905489277e-07 
-8.7999999806 1.4499999993 1.2926444981e-07 -8.7999999806 1.5 -4.9403229241e-07 -8.7499999799 1.4499999993 1.3018667744e-07 
-8.7499999799 1.5 -4.976047876e-07 -8.6999999791 1.4499999993 1.3071418437e-07 -8.6999999791 1.5 -4.9949835557e-07 
-8.6499999784 1.4499999993 1.3178556912e-07 -8.6499999784 1.5 -5.034237347e-07 -8.5999999776 1.4499999993 1.3279328925e-07 
-8.5999999776 1.5 -5.0736548474e-07 -8.5499999769 1.4499999993 1.3396108045e-07 -8.5499999769 1.5 -5.1160009207e-07 
-8.4999999762 1.4499999993 1.3501791329e-07 -8.4999999762 1.5 -5.1591109695e-07 -8.4499999754 1.4499999993 1.3617479055e-07 
-8.4499999754 1.5 -5.2056770983e-07 -8.3999999747 1.4499999993 1.3742261729e-07 -8.3999999747 1.5 -5.2525160754e-07 
-8.3499999739 1.4499999993 1.3879049732e-07 -8.3499999739 1.5 -5.2989730648e-07 -8.2999999732 1.4499999993 1.4006742788e-07 
-8.2999999732 1.5 -5.3501230468e-07 -8.2499999724 1.4499999993 1.4137528126e-07 -8.2499999724 1.5 -5.4020370044e-07 
-8.1999999717 1.4499999993 1.4282865379e-07 -8.1999999717 1.5 -5.4558273632e-07 -8.1499999709 1.4499999993 1.4433295803e-07 
-8.1499999709 1.5 -5.5106124819e-07 -8.0999999702 1.4499999993 1.4576814067e-07 -8.0999999702 1.5 -5.5682380662e-07 
-8.0499999695 1.4499999993 1.4738522225e-07 -8.0499999695 1.5 -5.6277190197e-07 -7.9999999687 1.4499999993 1.4905141654e-07 
-7.9999999687 1.5 -5.6889825828e-07 -7.949999968 1.4499999993 1.5059210057e-07 -7.949999968 1.5 -5.7515558183e-07 
-7.8999999672 1.4499999993 1.523037696e-07 -7.8999999672 1.5 -5.816657449e-07 -7.8499999665 1.4499999993 1.5408728871e-07 
-7.8499999665 1.5 -5.8836599237e-07 -7.7999999657 1.4499999993 1.5581805712e-07 -7.7999999657 1.5 -5.9524904827e-07 
-7.749999965 1.4499999993 1.5775800932e-07 -7.749999965 1.5 -6.024022241e-07 -7.6999999642 1.4499999993 1.5962520195e-07 
-7.6999999642 1.5 -6.0980642047e-07 -7.6499999635 1.4499999993 1.615733396e-07 -7.6499999635 1.5 -6.1740433921e-07 
-7.5999999627 1.4499999993 1.6366426792e-07 -7.5999999627 1.5 -6.2521780819e-07 -7.549999962 1.4499999993 1.6573154937e-07 
-7.549999962 1.5 -6.3326075406e-07 -7.4999999613 1.4499999993 1.6792979807e-07 -7.4999999613 1.5 -6.4163509705e-07 
-7.4499999605 1.4499999993 1.7021626775e-07 -7.4499999605 1.5 -6.5012886807e-07 -7.3999999598 1.4499999993 1.7251910833e-07 
-7.3999999598 1.5 -6.58982799e-07 -7.349999959 1.4499999993 1.7488652304e-07 -7.349999959 1.5 -6.6811685429e-07 
-7.2999999583 1.4499999993 1.7737762903e-07 -7.2999999583 1.5 -6.7762744038e-07 -7.2499999575 1.4499999993 1.7987510148e-07 
-7.2499999575 1.5 -6.873235634e-07 -7.1999999568 1.4499999993 1.8252627854e-07 -7.1999999568 1.5 -6.9734073804e-07 
-7.149999956 1.4499999993 1.8526021961e-07 -7.149999956 1.5 -7.0768533078e-07 -7.0999999553 1.4499999993 1.8658262491e-07 
-7.0999999553 1.5 -7.1295403359e-07 -7.0499999546 1.4499999993 1.8945389968e-07 -7.0499999546 1.5 -7.2385614658e-07 
-6.9999999538 1.4499999993 1.9239975302e-07 -6.9999999538 1.5 -7.3503292697e-07 -6.9499999531 1.4499999993 1.9542018492e-07 
-6.9499999531 1.5 -7.4662807492e-07 -6.8999999523 1.4499999993 1.9858795497e-07 -6.8999999523 1.5 -7.5860521065e-07 
-6.8499999516 1.4499999993 2.0181666116e-07 -6.8499999516 1.5 -7.7095160123e-07 -6.7999999508 1.4499999993 2.0516542065e-07 
-6.7999999508 1.5 -7.837791145e-07 -6.7499999501 1.4499999993 2.0862695749e-07 -6.7499999501 1.5 -7.9700043898e-07 
-6.6999999493 1.4499999993 2.1218308177e-07 -6.6999999493 1.5 -8.1070106717e-07 -6.6499999486 1.4499999993 2.1583925047e-07 
-6.6499999486 1.5 -8.248237009e-07 -6.5999999478 1.4499999993 2.1971187891e-07 -6.5999999478 1.5 -8.3951294982e-07 
-6.5499999471 1.4499999993 2.2368728025e-07 -6.5499999471 1.5 -8.5461630306e-07 -6.4999999464 1.4499999993 2.2778546338e-07 
-6.4999999464 1.5 -8.7033299678e-07 -6.4499999456 1.4499999993 2.3204917454e-07 -6.4499999456 1.5 -8.866893495e-07 
-6.3999999449 1.4499999993 2.3647477576e-07 -6.3999999449 1.5 -9.0359958449e-07 -6.3499999441 1.4499999993 2.4112136998e-07 
-6.3499999441 1.5 -9.210891676e-07 -6.2999999434 1.4499999993 2.4580799618e-07 -6.2999999434 1.5 -9.3937637757e-07 
-6.2499999426 1.4499999993 2.507656518e-07 -6.2499999426 1.5 -9.5826294455e-07 -6.1999999419 1.4499999993 2.5593521968e-07 
-6.1999999419 1.5 -9.779780612e-07 -6.1499999411 1.4499999993 2.6132670428e-07 -6.1499999411 1.5 -9.9841759038e-07 
-6.0999999404 1.4499999993 2.6687143873e-07 -6.0999999404 1.5 -1.0197097708e-06 -6.0499999397 1.4499999993 2.7268038139e-07 
-6.0499999397 1.5 -1.0419364571e-06 -5.9999999389 1.4499999993 2.7872988539e-07 -5.9999999389 1.5 -1.0650730928e-06 
-5.9499999382 1.4499999993 2.8504905458e-07 -5.9499999382 1.5 -1.0891874354e-06 -5.8999999374 1.4499999993 2.9164243642e-07 
-5.8999999374 1.5 -1.1144335303e-06 -5.8499999367 1.4499999993 2.9856505535e-07 -5.8499999367 1.5 -1.1407671536e-06 
-5.7999999359 1.4499999993 3.0575733945e-07 -5.7999999359 1.5 -1.1683662251e-06 -5.7499999352 1.4499999993 3.1334025152e-07 
-5.7499999352 1.5 -1.1972440461e-06 -5.6999999344 1.4499999993 3.2123102756e-07 -5.6999999344 1.5 -1.2275293102e-06 
-5.6499999337 1.4499999993 3.2958428164e-07 -5.6499999337 1.5 -1.2593243355e-06 -5.5999999329 1.4499999993 3.3830542634e-07 
-5.5999999329 1.5 -1.2927246189e-06 -5.5499999322 1.4499999993 3.4286426853e-07 -5.5499999322 1.5 -1.3100749356e-06 
-5.4999999315 1.4499999993 3.5229300011e-07 -5.4999999315 1.5 -1.3462024526e-06 -5.4499999307 1.4499999993 3.6226970224e-07 
-5.4499999307 1.5 -1.3843152828e-06 -5.39999993 1.4499999993 3.7282620724e-07 -5.39999993 1.5 -1.4245258626e-06 
-5.3499999292 1.4499999993 3.8394250623e-07 -5.3499999292 1.5 -1.4671311419e-06 -5.2999999285 1.4499999993 3.9573956201e-07 
-5.2999999285 1.5 -1.5123061985e-06 -5.2499999277 1.4499999993 4.083242402e-07 -5.2499999277 1.5 -1.5602452095e-06 
-5.199999927 1.4499999993 4.2166789171e-07 -5.199999927 1.5 -1.6113237962e-06 -5.1499999262 1.4499999993 4.359619652e-07 
-5.1499999262 1.5 -1.6657975266e-06 -5.0999999255 1.4499999993 4.5123510972e-07 -5.0999999255 1.5 -1.724088861e-06 
-5.0499999247 1.4499999993 4.6759600991e-07 -5.0499999247 1.5 -1.7866220787e-06 -4.999999924 1.4499999993 4.8519063967e-07 
-4.999999924 1.5 -1.8539178654e-06 -4.9499999233 1.4499999993 5.0421772357e-07 -4.9499999233 1.5 -1.9265178253e-06 
-4.8999999225 1.4499999993 5.2477912504e-07 -4.8999999225 1.5 -2.0050929379e-06 -4.8499999218 1.4499999993 5.4715542319e-07 
-4.8499999218 1.5 -2.0905376914e-06 -4.799999921 1.4499999993 5.716024134e-07 -4.799999921 1.5 -2.1837604436e-06 
-4.7499999203 1.4499999993 5.983772553e-07 -4.7499999203 1.5 -2.2859858291e-06 -4.6999999195 1.4499999993 6.2787398747e-07 
-4.6999999195 1.5 -2.39858241e-06 -4.6499999188 1.4499999993 6.6055508796e-07 -4.6499999188 1.5 -2.523319381e-06 
-4.599999918 1.4499999993 6.9698558036e-07 -4.599999918 1.5 -2.6622569749e-06 -4.5499999173 1.4499999993 7.3782985055e-07 
-4.5499999173 1.5 -2.8180729714e-06 -4.4999999166 1.4499999993 7.8398761616e-07 -4.4999999166 1.5 -2.9940770219e-06 
-4.4499999158 1.4499999993 8.3654617811e-07 -4.4499999158 1.5 -3.1944391594e-06 -4.3999999151 1.4499999993 8.9692866823e-07 
-4.3999999151 1.5 -3.4245747429e-06 -4.3499999143 1.4499999993 9.6698613561e-07 -4.3499999143 1.5 -3.6914882457e-06 
-4.2999999136 1.4499999993 1.0492428828e-06 -4.2999999136 1.5 -4.0044587877e-06 -4.2499999128 1.4499999993 1.1469021501e-06 
-4.2499999128 1.5 -4.3760551307e-06 -4.1999999121 1.4499999993 1.264614184e-06 -4.1999999121 1.5 -4.8233941925e-06 
-4.1499999113 1.4499999993 1.4087047475e-06 -4.1499999113 1.5 -5.3704866332e-06 -4.0999999106 1.4499999993 1.5884165805e-06 
-4.0999999106 1.5 -6.0518841565e-06 -4.0499999098 1.4499999993 1.8173982426e-06 -4.0499999098 1.5 -6.9186639848e-06 
-3.9999999091 1.4499999993 2.1167159048e-06 -3.9999999091 1.5 -8.0490499386e-06 -3.9499999084 1.4499999993 2.3025834253e-06 
[...]
CELL_DATA 9510
FIELD FieldData 4
Water_Depth_m 1 9510 float
0.584001 0.584002 0.584003 0.584005 0.584006 0.584007 0.584008 0.584009 0.58401 
0.584011 0.584013 0.584014 0.584015 0.584016 0.584017 0.584018 0.58402 0.584021 
0.584022 0.584023 0.584024 0.584026 0.584027 0.584028 0.584029 0.58403 0.584031 
0.584032 0.584034 0.584035 0.584036 0.584037 0.584038 0.584039 0.584041 0.584042 
0.584043 0.584044 0.584045 0.584046 0.584048 0.584049 0.58405 0.584051 0.584052 
0.584054 0.584055 0.584056 0.584057 0.584058 0.584059 0.584061 0.584062 0.584063 
0.584064 0.584065 0.584066 0.584068 0.584069 0.58407 0.584071 0.584072 0.584073 
0.584075 0.584076 0.584077 0.584078 0.584079 0.584081 0.584082 0.584083 0.584084 
0.584085 0.584086 0.584088 0.584089 0.58409 0.584091 0.584092 0.584094 0.584095 
0.584096 0.584097 0.584099 0.5841 0.584101 0.584102 0.584103 0.584105 0.584106 
0.584107 0.584108 0.58411 0.584111 0.584112 0.584114 0.584115 0.584116 0.584118 
0.584119 0.58412 0.584122 0.584123 0.584125 0.584126 0.584128 0.584129 0.584131 
0.584132 0.584134 0.584136 0.584138 0.584139 0.584141 0.584143 0.584145 0.584148 
0.58415 0.584152 0.584155 0.584158 0.584161 0.584165 0.584169 0.584174 0.58418 
0.584189 0.584202 0.584227 0.584307 0.584555 0.58441 0.577814 0.561687 0.53809 
0.50897 0.475799 0.439825 0.40218 0.363973 0.327162 0.291785 0.258956 0.2301 
0.206992 0.191592 0.183489 0.181701 0.185614 0.191163 0.19726 0.201789 0.205229 
0.209248 0.216669 0.225805 0.233196 0.237753 0.240058 0.241952 0.24255 0.239627 
0.233971 0.233466 0.234136 0.237353 0.240895 0.2446 0.247795 0.251399 0.254831 
0.257352 0.260751 0.263421 0.265877 0.269067 0.271015 0.272475 0.273133 0.274355 
0.280018 0.287801 0.292436 0.29719 0.297704 0.306187 0.315296 0.325098 0.340176 
0.360288 0.3839 0.408062 0.444436 0.473664 0.497658 0.526113 0.544743 0.556779 
0.625167 0.587177 0.527559 0.503563 0.481981 0.440352 0.405826 0.373153 0.370181 
0.370179 0.370177 0.370181 0.370187 0.370194 0.370201 0.370207 0.370212 0.370218 
0.370224 0.370229 0.370235 0.37024 0.370245 0.370251 0.370256 0.370262 0.370267 
0.370272 0.370278 0.370283 0.370289 0.370294 0.3703 0.370305 0.37031 0.370316 
0.370321 0.370327 0.370332 0.370338 0.370343 0.370349 0.370354 0.37036 0.370365 
0.37037 0.370376 0.370381 0.370387 0.370392 0.370398 0.370403 0.370409 0.370414 
0.37042 0.370425 0.370431 0.370436 0.370442 0.370447 0.370453 0.370458 0.370464 
0.370469 0.370475 0.37048 0.370486 0.370491 0.370497 0.370502 0.370508 0.370513 
0.370519 0.370524 0.37053 0.370535 0.370541 0.370546 0.370552 0.370557 0.370563 
0.370568 0.370574 0.370579 0.370585 0.37059 0.370596 0.370601 0.370607 0.370612 
0.370618 0.370623 0.370629 0.370634 0.37064 0.370347 0.364697 0.584001 0.584002 
0.584003 0.584004 0.584005 0.584006 0.584008 0.584009 0.58401 0.584011 0.584012 
0.584013 0.584015 0.584016 0.584017 0.584018 0.584019 0.58402 0.584022 0.584023 
0.584024 0.584025 0.584026 0.584027 0.584028 0.58403 0.584031 0.584032 0.584033 
0.584034 0.584036 0.584037 0.584038 0.584039 0.58404 0.584041 0.584042 0.584044 
0.584045 0.584046 0.584047 0.584048 0.584049 0.584051 0.584052 0.584053 0.584054 
0.584055 0.584056 0.584058 0.584059 0.58406 0.584061 0.584062 0.584063 0.584065 
0.584066 0.584067 0.584068 0.584069 0.58407 0.584072 0.584073 0.584074 0.584075 
0.584076 0.584077 0.584079 0.58408 0.584081 0.584082 0.584083 0.584084 0.584086 
0.584087 0.584088 0.584089 0.58409 0.584091 0.584093 0.584094 0.584095 0.584096 
0.584097 0.584099 0.5841 0.584101 0.584102 0.584103 0.584105 0.584106 0.584107 
0.584108 0.58411 0.584111 0.584112 0.584113 0.584115 0.584116 0.584117 0.584119 
0.58412 0.584121 0.584123 0.584124 0.584126 0.584127 0.584128 0.58413 0.584132 
0.584133 0.584135 0.584136 0.584138 0.58414 0.584142 0.584144 0.584145 0.584147 
0.584149 0.584152 0.584154 0.584156 0.584159 0.584161 0.584164 0.584167 0.58417 
0.584173 0.584179 0.584221 0.584159 0.578261 0.56301 0.540022 0.511087 0.47775 
0.44135 0.40311 0.364199 0.326225 0.290077 0.256741 0.227698 0.204984 0.18936 
0.181064 0.180168 0.184966 0.191943 0.199087 0.204219 0.208238 0.214479 0.220751 
0.22828 0.232069 0.237426 0.240302 0.240718 0.24051 0.237856 0.233223 0.232582 
0.235066 0.238703 0.242203 0.24445 0.247244 0.250456 0.254052 0.256816 0.259854 
0.262559 0.265352 0.268594 0.271029 0.273038 0.274586 0.277317 0.282909 0.290366 
0.293887 0.302687 0.304958 0.311163 0.319393 0.328657 0.339784 0.353704 0.379934 
0.411034 0.448488 0.485944 0.511955 0.539699 0.54991 0.555326 0.624898 0.587118 
0.527891 0.50356 0.481833 0.440242 0.405919 0.373727 0.370204 0.370191 0.37018 
0.370182 0.370186 0.370191 0.370197 0.370203 0.370208 0.370214 0.370219 0.370225 
0.37023 0.370236 0.370242 0.370247 0.370253 0.370258 0.370264 0.370269 0.370275 
0.37028 0.370286 0.370291 0.370297 0.370302 0.370308 0.370313 0.370319 0.370324 
0.37033 0.370335 0.370341 0.370347 0.370352 0.370358 0.370363 0.370369 0.370374 
0.37038 0.370385 0.370391 0.370396 0.370402 0.370407 0.370413 0.370418 0.370424 
0.370429 0.370435 0.37044 0.370446 0.370451 0.370457 0.370462 0.370468 0.370473 
0.370479 0.370484 0.37049 0.370495 0.370501 0.370506 0.370512 0.370517 0.370523 
0.370529 0.370534 0.37054 0.370545 0.370551 0.370556 0.370562 0.370567 0.370573 
0.370578 0.370584 0.370589 0.370595 0.3706 0.370606 0.370611 0.370617 0.370622 
0.370628 0.370633 0.370638 0.370346 0.364694 0.584001 0.584002 0.584003 0.584004 
0.584005 0.584006 0.584008 0.584009 0.58401 0.584011 0.584012 0.584013 0.584015 
0.584016 0.584017 0.584018 0.584019 0.58402 0.584022 0.584023 0.584024 0.584025 
0.584026 0.584027 0.584029 0.58403 0.584031 0.584032 0.584033 0.584034 0.584036 
0.584037 0.584038 0.584039 0.58404 0.584041 0.584042 0.584044 0.584045 0.584046 
0.584047 0.584048 0.58405 0.584051 0.584052 0.584053 0.584054 0.584055 0.584056 
0.584058 0.584059 0.58406 0.584061 0.584062 0.584063 0.584065 0.584066 0.584067 
0.584068 0.584069 0.58407 0.584072 0.584073 0.584074 0.584075 0.584076 0.584077 
0.584079 0.58408 0.584081 0.584082 0.584083 0.584085 0.584086 0.584087 0.584088 
0.584089 0.58409 0.584092 0.584093 0.584094 0.584095 0.584096 0.584098 0.584099 
0.5841 0.584101 0.584102 0.584104 0.584105 0.584106 0.584107 0.584108 0.58411 
0.584111 0.584112 0.584114 0.584115 0.584116 0.584117 0.584119 0.58412 0.584121 
0.584123 0.584124 0.584126 0.584127 0.584129 0.58413 0.584132 0.584133 0.584135 
0.584136 0.584138 0.58414 0.584142 0.584144 0.584145 0.584148 0.58415 0.584152 
0.584154 0.584156 0.584159 0.584162 0.584164 0.584167 0.584171 0.584176 0.584186 
0.584286 0.58416 0.57846 0.563682 0.541183 0.512549 0.479272 0.442715 0.404143 
0.364771 0.325788 0.289017 0.255307 0.226114 0.204731 0.18823 0.179488 0.179283 
0.184832 0.192308 0.200132 0.20578 0.209998 0.215184 0.220651 0.226542 0.229081 
0.232937 0.236226 0.236196 0.232191 0.228556 0.228908 0.230654 0.234232 0.238409 
0.242345 0.244272 0.245611 0.247996 0.250887 0.254141 0.257553 0.260135 0.263097 
0.266168 0.269152 0.272019 0.274598 0.277554 0.2827 0.289983 0.295431 0.300173 
0.30503 0.31049 0.317367 0.327913 0.337135 0.351714 0.384121 0.422748 0.450449 
0.49061 0.525734 0.547943 0.556082 0.558039 0.624956 0.586912 0.527566 0.503572 
0.481824 0.440206 0.405829 0.373516 0.370164 0.37017 0.370175 0.37018 0.370186 
0.370191 0.370197 0.370203 0.370208 0.370214 0.370219 0.370225 0.370231 0.370236 
0.370242 0.370247 0.370253 0.370258 0.370264 0.370269 0.370275 0.37028 0.370286 
0.370291 0.370297 0.370302 0.370308 0.370314 0.370319 0.370325 0.37033 0.370336 
0.370341 0.370347 0.370352 0.370358 0.370363 0.370369 0.370374 0.37038 0.370385 
0.370391 0.370396 0.370402 0.370407 0.370413 0.370418 0.370424 0.370429 0.370435 
0.37044 0.370446 0.370451 0.370457 0.370462 0.370468 0.370473 0.370479 0.370484 
0.37049 0.370495 0.370501 0.370507 0.370512 0.370518 0.370523 0.370529 0.370534 
0.37054 0.370545 0.370551 0.370556 0.370562 0.370567 0.370573 0.370578 0.370584 
0.370589 0.370595 0.3706 0.370606 0.370611 0.370617 0.370622 0.370628 0.370633 
0.370638 0.370346 0.364694 0.584001 0.584002 0.584003 0.584004 0.584005 0.584006 
0.584008 0.584009 0.58401 0.584011 0.584012 0.584013 0.584015 0.584016 0.584017 
0.584018 0.584019 0.58402 0.584022 0.584023 0.584024 0.584025 0.584026 0.584027 
0.584028 0.58403 0.584031 0.584032 0.584033 0.584034 0.584035 0.584037 0.584038 
0.584039 0.58404 0.584041 0.584042 0.584044 0.584045 0.584046 0.584047 0.584048 
0.584049 0.584051 0.584052 0.584053 0.584054 0.584055 0.584056 0.584058 0.584059 
0.58406 0.584061 0.584062 0.584063 0.584065 0.584066 0.584067 0.584068 0.584069 
0.58407 0.584072 0.584073 0.584074 0.584075 0.584076 0.584077 0.584079 0.58408 
0.584081 0.584082 0.584083 0.584084 0.584086 0.584087 0.584088 0.584089 0.58409 
0.584091 0.584093 0.584094 0.584095 0.584096 0.584097 0.584099 0.5841 0.584101 
0.584102 0.584103 0.584105 0.584106 0.584107 0.584108 0.58411 0.584111 0.584112 
0.584113 0.584115 0.584116 0.584117 0.584119 0.58412 0.584121 0.584123 0.584124 
0.584125 0.584127 0.584128 0.58413 0.584131 0.584133 0.584134 0.584136 0.584138 
0.584139 0.584141 0.584143 0.584145 0.584147 0.584149 0.584151 0.584153 0.584156 
0.584158 0.58416 0.584163 0.584166 0.584169 0.584171 0.584175 0.584268 0.584157 
0.578572 0.564098 0.541987 0.513691 0.480621 0.444117 0.405448 0.365835 0.326461 
0.288547 0.254272 0.225165 0.203648 0.187586 0.178344 0.178693 0.184731 0.192336 
0.19998 0.205758 0.210392 0.214741 0.218153 0.219163 0.222437 0.225421 0.226966 
0.2271 0.226511 0.226208 0.226899 0.228125 0.230123 0.235218 0.239682 0.242189 
0.24382 0.246604 0.24938 0.252387 0.255986 0.258645 0.26133 0.26406 0.264967 
0.267089 0.270407 0.273456 0.277524 0.283695 0.291375 0.291261 0.294959 0.298864 
0.302241 0.316981 0.327845 0.350946 0.383635 0.421701 0.449004 0.489295 0.524469 
0.548285 0.559382 0.561022 0.625006 0.586914 0.527568 0.503575 0.481828 0.440206 
0.405832 0.373554 0.370166 0.370172 0.370175 0.37018 0.370186 0.370191 0.370197 
0.370203 0.370208 0.370214 0.370219 0.370225 0.37023 0.370236 0.370241 0.370247 
0.370253 0.370258 0.370264 0.370269 0.370275 0.37028 0.370286 0.370291 0.370297 
0.370302 0.370308 0.370313 0.370319 0.370324 0.37033 0.370335 0.370341 0.370346 
0.370352 0.370358 0.370363 0.370369 0.370374 0.37038 0.370385 0.370391 0.370396 
0.370402 0.370407 0.370413 0.370418 0.370424 0.370429 0.370435 0.37044 0.370446 
0.370451 0.370457 0.370462 0.370468 0.370473 0.370479 0.370484 0.37049 0.370495 
0.370501 0.370506 0.370512 0.370517 0.370523 0.370528 0.370534 0.370539 0.370545 
0.37055 0.370556 0.370562 0.370567 0.370573 0.370578 0.370584 0.370589 0.370595 
0.3706 0.370606 0.370611 0.370617 0.370622 0.370628 0.370633 0.370638 0.370346 
0.364694 0.584001 0.584002 0.584003 0.584004 0.584005 0.584006 0.584008 0.584009 
0.58401 0.584011 0.584012 0.584013 0.584015 0.584016 0.584017 0.584018 0.584019 
0.58402 0.584022 0.584023 0.584024 0.584025 0.584026 0.584027 0.584028 0.58403 
0.584031 0.584032 0.584033 0.584034 0.584035 0.584037 0.584038 0.584039 0.58404 
0.584041 0.584042 0.584044 0.584045 0.584046 0.584047 0.584048 0.584049 0.584051 
0.584052 0.584053 0.584054 0.584055 0.584056 0.584058 0.584059 0.58406 0.584061 
0.584062 0.584063 0.584065 0.584066 0.584067 0.584068 0.584069 0.58407 0.584072 
0.584073 0.584074 0.584075 0.584076 0.584077 0.584079 0.58408 0.584081 0.584082 
0.584083 0.584084 0.584086 0.584087 0.584088 0.584089 0.58409 0.584091 0.584093 
0.584094 0.584095 0.584096 0.584097 0.584099 0.5841 0.584101 0.584102 0.584103 
0.584105 0.584106 0.584107 0.584108 0.58411 0.584111 0.584112 0.584113 0.584115 
0.584116 0.584117 0.584118 0.58412 0.584121 0.584123 0.584124 0.584125 0.584127 
0.584128 0.58413 0.584131 0.584133 0.584134 0.584136 0.584138 0.584139 0.584141 
0.584143 0.584145 0.584147 0.584149 0.584151 0.584153 0.584155 0.584158 0.58416 
0.584163 0.584166 0.584168 0.584172 0.584177 0.58427 0.584159 0.578662 0.564436 
0.542681 0.514761 0.482019 0.445753 0.407212 0.367605 0.328093 0.289833 0.254067 
0.222843 0.198251 0.183222 0.176506 0.1787 0.184825 0.192099 0.198952 0.204342 
0.208597 0.210612 0.212654 0.215744 0.216903 0.219563 0.222529 0.223346 0.224159 
0.225289 0.226192 0.227325 0.22987 0.236396 0.242388 0.245151 0.24703 0.250041 
0.252865 0.255247 0.258466 0.260566 0.261939 0.263114 0.265196 0.267812 0.270735 
0.272169 0.273928 0.276554 0.281991 0.290396 0.29281 0.295154 0.306891 0.317495 
0.32874 0.360673 0.383643 0.418068 0.45873 0.486663 0.516109 0.545124 0.556935 
0.558039 0.625056 0.587131 0.52785 0.503564 0.481837 0.440237 0.405911 0.37359 
0.370164 0.370169 0.370175 0.37018 0.370186 0.370191 0.370197 0.370203 0.370208 
0.370214 0.370219 0.370225 0.37023 0.370236 0.370241 0.370247 0.370253 0.370258 
0.370264 0.370269 0.370275 0.37028 0.370286 0.370291 0.370297 0.370302 0.370308 
0.370313 0.370319 0.370324 0.37033 0.370335 0.370341 0.370346 0.370352 0.370358 
0.370363 0.370369 0.370374 0.37038 0.370385 0.370391 0.370396 0.370402 0.370407 
0.370413 0.370418 0.370424 0.370429 0.370435 0.37044 0.370446 0.370451 0.370457 
0.370462 0.370468 0.370473 0.370479 0.370484 0.37049 0.370495 0.370501 0.370506 
0.370512 0.370517 0.370523 0.370528 0.370534 0.370539 0.370545 0.37055 0.370556 
0.370562 0.370567 0.370573 0.370578 0.370584 0.370589 0.370595 0.3706 0.370606 
0.370611 0.370617 0.370622 0.370628 0.370633 0.370638 0.370346 0.364694 0.584001 
0.584002 0.584003 0.584004 0.584005 0.584006 0.584008 0.584009 0.58401 0.584011 
0.584012 0.584013 0.584015 0.584016 0.584017 0.584018 0.584019 0.58402 0.584022 
0.584023 0.584024 0.584025 0.584026 0.584027 0.584028 0.58403 0.584031 0.584032 
0.584033 0.584034 0.584036 0.584037 0.584038 0.584039 0.58404 0.584041 0.584042 
0.584044 0.584045 0.584046 0.584047 0.584048 0.584049 0.584051 0.584052 0.584053 
0.584054 0.584055 0.584056 0.584058 0.584059 0.58406 0.584061 0.584062 0.584063 
0.584065 0.584066 0.584067 0.584068 0.584069 0.58407 0.584072 0.584073 0.584074 
0.584075 0.584076 0.584077 0.584079 0.58408 0.584081 0.584082 0.584083 0.584084 
0.584086 0.584087 0.584088 0.584089 0.58409 0.584091 0.584093 0.584094 0.584095 
0.584096 0.584097 0.584099 0.5841 0.584101 0.584102 0.584103 0.584105 0.584106 
0.584107 0.584108 0.58411 0.584111 0.584112 0.584113 0.584115 0.584116 0.584117 
0.584118 0.58412 0.584121 0.584122 0.584124 0.584125 0.584127 0.584128 0.584129 
0.584131 0.584132 0.584134 0.584136 0.584137 0.584139 0.584141 0.584143 0.584144 
0.584146 0.584148 0.58415 0.584152 0.584155 0.584157 0.584159 0.584162 0.584165 
0.584168 0.584171 0.584176 0.584269 0.58416 0.578756 0.564781 0.543401 0.51592 
0.483625 0.447772 0.409584 0.37026 0.330958 0.29284 0.25712 0.225293 0.199622 
0.184516 0.178538 0.180438 0.185812 0.192177 0.198918 0.202822 0.203619 0.205031 
0.207099 0.210931 0.213007 0.215292 0.216146 0.217306 0.219235 0.223733 0.227029 
0.229801 0.232206 0.237894 0.243088 0.245826 0.247695 0.250053 0.252952 0.255489 
0.258445 0.263465 0.266675 0.269056 0.271798 0.274424 0.277565 0.281093 0.2855 
0.294412 0.307566 0.308341 0.321488 0.325389 0.325744 0.337943 0.347516 0.358144 
0.382447 0.413722 0.452796 0.480809 0.510209 0.534559 0.541034 0.542329 0.625103 
0.587132 0.527858 0.503565 0.481838 0.440238 0.405911 0.373596 0.370165 0.37017 
0.370175 0.37018 0.370186 0.370191 0.370197 0.370203 0.370208 0.370214 0.370219 
0.370225 0.37023 0.370236 0.370241 0.370247 0.370253 0.370258 0.370264 0.370269 
0.370275 0.37028 0.370286 0.370291 0.370297 0.370302 0.370308 0.370313 0.370319 
0.370324 0.37033 0.370335 0.370341 0.370346 0.370352 0.370358 0.370363 0.370369 
0.370374 0.37038 0.370385 0.370391 0.370396 0.370402 0.370407 0.370413 0.370418 
0.370424 0.370429 0.370435 0.37044 0.370446 0.370451 0.370457 0.370462 0.370468 
0.370473 0.370479 0.370484 0.37049 0.370495 0.370501 0.370506 0.370512 0.370517 
0.370523 0.370528 0.370534 0.370539 0.370545 0.37055 0.370556 0.370562 0.370567 
0.370573 0.370578 0.370584 0.370589 0.370595 0.3706 0.370606 0.370611 0.370617 
0.370622 0.370628 0.370633 0.370638 0.370346 0.364694 0.584001 0.584002 0.584003 
0.584004 0.584005 0.584006 0.584008 0.584009 0.58401 0.584011 0.584012 0.584013 
0.584015 0.584016 0.584017 0.584018 0.584019 0.58402 0.584022 0.584023 0.584024 
0.584025 0.584026 0.584027 0.584029 0.58403 0.584031 0.584032 0.584033 0.584034 
0.584036 0.584037 0.584038 0.584039 0.58404 0.584041 0.584042 0.584044 0.584045 
0.584046 0.584047 0.584048 0.584049 0.584051 0.584052 0.584053 0.584054 0.584055 
0.584056 0.584058 0.584059 0.58406 0.584061 0.584062 0.584063 0.584065 0.584066 
0.584067 0.584068 0.584069 0.58407 0.584072 0.584073 0.584074 0.584075 0.584076 
0.584077 0.584079 0.58408 0.584081 0.584082 0.584083 0.584084 0.584086 0.584087 
0.584088 0.584089 0.58409 0.584091 0.584093 0.584094 0.584095 0.584096 0.584097 
0.584099 0.5841 0.584101 0.584102 0.584103 0.584105 0.584106 0.584107 0.584108 
0.584109 0.584111 0.584112 0.584113 0.584114 0.584116 0.584117 0.584118 0.58412 
0.584121 0.584122 0.584124 0.584125 0.584126 0.584128 0.584129 0.584131 0.584132 
0.584134 0.584135 0.584137 0.584139 0.58414 0.584142 0.584144 0.584146 0.584148 
0.58415 0.584152 0.584154 0.584156 0.584159 0.584161 0.584164 0.584167 0.584171 
0.584176 0.584268 0.584161 0.578865 0.565173 0.544217 0.517256 0.48553 0.450256 
0.412635 0.373856 0.3351 0.297621 0.262817 0.232359 0.20819 0.192502 0.184712 
0.183783 0.187838 0.192875 0.197969 0.201487 0.203239 0.204617 0.206722 0.210357 
0.212573 0.214479 0.21532 0.215449 0.218104 0.223163 0.226454 0.229217 0.232181 
0.238201 0.24351 0.24605 0.247852 0.249746 0.251211 0.25515 0.26124 0.263746 
0.267494 0.272157 0.274147 0.276426 0.280953 0.287739 0.292551 0.298553 0.307957 
0.311406 0.322549 0.328361 0.329525 0.341276 0.357773 0.358824 0.373514 0.396132 
0.430687 0.46297 0.49218 0.516709 0.529998 0.539547 0.625151 0.58713 0.527851 
0.503563 0.481841 0.440238 0.405909 0.373592 0.370165 0.37017 0.370175 0.37018 
0.370186 0.370192 0.370197 0.370203 0.370208 0.370214 0.370219 0.370225 0.37023 
0.370236 0.370241 0.370247 0.370253 0.370258 0.370264 0.370269 0.370275 0.37028 
0.370286 0.370291 0.370297 0.370302 0.370308 0.370313 0.370319 0.370324 0.37033 
0.370335 0.370341 0.370346 0.370352 0.370358 0.370363 0.370369 0.370374 0.37038 
0.370385 0.370391 0.370396 0.370402 0.370407 0.370413 0.370418 0.370424 0.370429 
0.370435 0.37044 0.370446 0.370451 0.370457 0.370462 0.370468 0.370473 0.370479 
0.370484 0.37049 0.370495 0.370501 0.370506 0.370512 0.370517 0.370523 0.370528 
0.370534 0.370539 0.370545 0.37055 0.370556 0.370562 0.370567 0.370573 0.370578 
0.370584 0.370589 0.370595 0.3706 0.370606 0.370611 0.370617 0.370622 0.370628 
0.370633 0.370638 0.370346 0.364694 0.584001 0.584002 0.584003 0.584004 0.584005 
0.584006 0.584008 0.584009 0.58401 0.584011 0.584012 0.584013 0.584015 0.584016 
0.584017 0.584018 0.584019 0.58402 0.584022 0.584023 0.584024 0.584025 0.584026 
0.584027 0.584029 0.58403 0.584031 0.584032 0.584033 0.584034 0.584036 0.584037 
0.584038 0.584039 0.58404 0.584041 0.584042 0.584044 0.584045 0.584046 0.584047 
0.584048 0.584049 0.584051 0.584052 0.584053 0.584054 0.584055 0.584056 0.584058 
0.584059 0.58406 0.584061 0.584062 0.584063 0.584065 0.584066 0.584067 0.584068 
0.584069 0.58407 0.584072 0.584073 0.584074 0.584075 0.584076 0.584077 0.584079 
0.58408 0.584081 0.584082 0.584083 0.584084 0.584086 0.584087 0.584088 0.584089 
0.58409 0.584091 0.584093 0.584094 0.584095 0.584096 0.584097 0.584099 0.5841 
0.584101 0.584102 0.584103 0.584105 0.584106 0.584107 0.584108 0.584109 0.584111 
0.584112 0.584113 0.584114 0.584116 0.584117 0.584118 0.584119 0.584121 0.584122 
0.584123 0.584125 0.584126 0.584128 0.584129 0.58413 0.584132 0.584133 0.584135 
0.584137 0.584138 0.58414 0.584142 0.584143 0.584145 0.584147 0.584149 0.584151 
0.584153 0.584155 0.584158 0.584161 0.584163 0.584166 0.58417 0.584176 0.584266 
0.58416 0.578992 0.565625 0.545155 0.518799 0.487758 0.453217 0.416349 0.378322 
0.34032 0.303665 0.269987 0.241352 0.219472 0.203118 0.192895 0.188971 0.191228 