# vtk DataFile Version 5.1
vtk output
ASCII
DATASET UNSTRUCTURED_GRID
POINTS 10043 double
-10.1 1.4499999993 -6.5110748437e-07 -10.049999999 1.4499999993 -4.742580586e-07 -10.049999999 1.5 1.7679119537e-06 
-9.9999999985 1.4499999993 -4.035521215e-07 -9.9999999985 1.5 1.5303246528e-06 -9.9499999978 1.4499999993 -3.6664664549e-07 
-9.9499999978 1.5 1.3956757812e-06 -9.899999997 1.4499999993 -3.4299978324e-07 -9.899999997 1.5 1.3077440144e-06 
-9.8499999963 1.4499999993 -3.2643606573e-07 -9.8499999963 1.5 1.2454199805e-06 -9.7999999955 1.4499999993 -3.1417971513e-07 
-9.7999999955 1.5 1.1994832221e-06 -9.7499999948 1.4499999993 -3.0487740332e-07 -9.7499999948 1.5 1.1643348898e-06 
-9.699999994 1.4499999993 -2.9767784326e-07 -9.699999994 1.5 1.1368626929e-06 -9.6499999933 1.4499999993 -2.9196075957e-07 
-9.6499999933 1.5 1.1152694697e-06 -9.5999999925 1.4499999993 -2.8744966585e-07 -9.5999999925 1.5 1.0980974139e-06 
-9.5499999918 1.4499999993 -2.8384442885e-07 -9.5499999918 1.5 1.084492169e-06 -9.4999999911 1.4499999993 -2.8108138395e-07 
-9.4999999911 1.5 1.0737182947e-06 -9.4499999903 1.4499999993 -2.7887858778e-07 -9.4499999903 1.5 1.065432798e-06 
-9.3999999896 1.4499999993 -2.7716146178e-07 -9.3999999896 1.5 1.0590517832e-06 -9.3499999888 1.4499999993 -2.7598093766e-07 
-9.3499999888 1.5 1.0543515145e-06 -9.2999999881 1.4499999993 -2.7515329748e-07 -9.2999999881 1.5 1.0511701021e-06 
-9.2499999873 1.4499999993 -2.7466580832e-07 -9.2499999873 1.5 1.0493238278e-06 -9.1999999866 1.4499999993 -2.7437295103e-07 
-9.1999999866 1.5 1.0485216535e-06 -9.1499999858 1.4499999993 -2.7442388273e-07 -9.1499999858 1.5 1.048774493e-06 
-9.0999999851 1.4499999993 -2.7480405151e-07 -9.0999999851 1.5 1.0498367828e-06 -9.0499999844 1.4499999993 -2.7528062674e-07 
-9.0499999844 1.5 1.0519904663e-06 -8.9999999836 1.4499999993 -2.7602095543e-07 -8.9999999836 1.5 1.0547626061e-06 
-8.9499999829 1.4499999993 -2.7695955396e-07 -8.9499999829 1.5 1.0582023151e-06 -8.8999999821 1.4499999993 -2.7799637792e-07 
-8.8999999821 1.5 1.062340516e-06 -8.8499999814 1.4499999993 -2.7923329071e-07 -8.8499999814 1.5 1.0671772088e-06 
-8.7999999806 1.4499999993 -2.8065028346e-07 -8.7999999806 1.5 1.0724395452e-06 -8.7499999799 1.4499999993 -2.8220915738e-07 
-8.7499999799 1.5 1.078471314e-06 -8.6999999791 1.4499999993 -2.8303134059e-07 -8.6999999791 1.5 1.0816945633e-06 
-8.6499999784 1.4499999993 -2.8484123504e-07 -8.6499999784 1.5 1.0884848507e-06 -8.5999999776 1.4499999993 -2.8673844099e-07 
-8.5999999776 1.5 1.0957735412e-06 -8.5499999769 1.4499999993 -2.8880026548e-07 -8.5499999769 1.5 1.1035178886e-06 
-8.4999999762 1.4499999993 -2.9096577236e-07 -8.4999999762 1.5 1.1117933809e-06 -8.4499999754 1.4499999993 -2.9324132811e-07 
-8.4499999754 1.5 1.1205809187e-06 -8.3999999747 1.4499999993 -2.9567786441e-07 -8.3999999747 1.5 1.1297249785e-06 
-8.3499999739 1.4499999993 -2.9820262171e-07 -8.3499999739 1.5 1.1394256489e-06 -8.2999999732 1.4499999993 -3.0080650504e-07 
-8.2999999732 1.5 1.1496074421e-06 -8.2499999724 1.4499999993 -3.0361775316e-07 -8.2499999724 1.5 1.1601848655e-06 
-8.1999999717 1.4499999993 -3.0648629945e-07 -8.1999999717 1.5 1.1712370451e-06 -8.1499999709 1.4499999993 -3.0947944651e-07 
-8.1499999709 1.5 1.1827439721e-06 -8.0999999702 1.4499999993 -3.1259810385e-07 -8.0999999702 1.5 1.1947211078e-06 
-8.0499999695 1.4499999993 -3.1591321203e-07 -8.0499999695 1.5 1.2071129731e-06 -7.9999999687 1.4499999993 -3.19266519e-07 
-7.9999999687 1.5 1.2200305264e-06 -7.949999968 1.4499999993 -3.2275534068e-07 -7.949999968 1.5 1.2334264738e-06 
-7.8999999672 1.4499999993 -3.2638240555e-07 -7.8999999672 1.5 1.2472471553e-06 -7.8499999665 1.4499999993 -3.3012861422e-07 
-7.8499999665 1.5 1.2616045524e-06 -7.7999999657 1.4499999993 -3.3401397559e-07 -7.7999999657 1.5 1.2764364783e-06 
-7.749999965 1.4499999993 -3.3799665289e-07 -7.749999965 1.5 1.2917814729e-06 -7.6999999642 1.4499999993 -3.4214758671e-07 
-7.6999999642 1.5 1.3075584775e-06 -7.6499999635 1.4499999993 -3.4645495361e-07 -7.6499999635 1.5 1.3239803138e-06 
-7.5999999627 1.4499999993 -3.5084690353e-07 -7.5999999627 1.5 1.3407868664e-06 -7.549999962 1.4499999993 -3.5546349864e-07 
-7.549999962 1.5 1.3582655356e-06 -7.4999999613 1.4499999993 -3.6018104765e-07 -7.4999999613 1.5 1.376303544e-06 
-7.4499999605 1.4499999993 -3.6505957723e-07 -7.4499999605 1.5 1.3948972537e-06 -7.3999999598 1.4499999993 -3.7002450881e-07 
-7.3999999598 1.5 1.4140202893e-06 -7.349999959 1.4499999993 -3.7520044316e-07 -7.349999959 1.5 1.4338718302e-06 
-7.2999999583 1.4499999993 -3.8055918594e-07 -7.2999999583 1.5 1.4542872577e-06 -7.2499999575 1.4499999993 -3.8607890929e-07 
-7.2499999575 1.5 1.475349336e-06 -7.1999999568 1.4499999993 -3.9182418732e-07 -7.1999999568 1.5 1.4971562905e-06 
-7.149999956 1.4499999993 -3.9767678572e-07 -7.149999956 1.5 1.5195507785e-06 -7.0999999553 1.4499999993 -4.0066356632e-07 
-7.0999999553 1.5 1.5310176877e-06 -7.0499999546 1.4499999993 -4.0681811697e-07 -7.0499999546 1.5 1.5546127088e-06 
-6.9999999538 1.4499999993 -4.1320640776e-07 -6.9999999538 1.5 1.578864385e-06 -6.9499999531 1.4499999993 -4.1973021325e-07 
-6.9499999531 1.5 1.6039928141e-06 -6.8999999523 1.4499999993 -4.2655142352e-07 -6.8999999523 1.5 1.6298988612e-06 
-6.8499999516 1.4499999993 -4.3358090807e-07 -6.8499999516 1.5 1.6566116301e-06 -6.7999999508 1.4499999993 -4.4074954531e-07 
-6.7999999508 1.5 1.6843084722e-06 -6.7499999501 1.4499999993 -4.4825105761e-07 -6.7499999501 1.5 1.7128643321e-06 
-6.6999999493 1.4499999993 -4.5597448661e-07 -6.6999999493 1.5 1.7424297312e-06 -6.6499999486 1.4499999993 -4.6396485232e-07 
-6.6499999486 1.5 1.7729564661e-06 -6.5999999478 1.4499999993 -4.7226171773e-07 -6.5999999478 1.5 1.8045377601e-06 
-6.5499999471 1.4499999993 -4.8081324167e-07 -6.5499999471 1.5 1.837251375e-06 -6.4999999464 1.4499999993 -4.8966717259e-07 
-6.4999999464 1.5 1.8710959466e-06 -6.4499999456 1.4499999993 -4.9884579312e-07 -6.4499999456 1.5 1.906130592e-06 
-6.3999999449 1.4499999993 -5.0834864851e-07 -6.3999999449 1.5 1.9424294351e-06 -6.3499999441 1.4499999993 -5.1820029512e-07 
-6.3499999441 1.5 1.9800402242e-06 -6.2999999434 1.4499999993 -5.2840118769e-07 -6.2999999434 1.5 2.0190702799e-06 
-6.2499999426 1.4499999993 -5.3899043451e-07 -6.2499999426 1.5 2.0595432488e-06 -6.1999999419 1.4499999993 -5.5000532484e-07 
-6.1999999419 1.5 2.1015418952e-06 -6.1499999411 1.4499999993 -5.6141448113e-07 -6.1499999411 1.5 2.1452076453e-06 
-6.0999999404 1.4499999993 -5.7329748415e-07 -6.0999999404 1.5 2.1905323138e-06 -6.0499999397 1.4499999993 -5.8564523897e-07 
-6.0499999397 1.5 2.2376837023e-06 -5.9999999389 1.4499999993 -5.9848593992e-07 -5.9999999389 1.5 2.2867909593e-06 
-5.9499999382 1.4499999993 -6.1184687183e-07 -5.9499999382 1.5 2.3378609058e-06 -5.8999999374 1.4499999993 -6.2579488258e-07 
-5.8999999374 1.5 2.3911131848e-06 -5.8499999367 1.4499999993 -6.4033088165e-07 -5.8499999367 1.5 2.4466351078e-06 
-5.7999999359 1.4499999993 -6.5552035267e-07 -5.7999999359 1.5 2.5046058454e-06 -5.7499999352 1.4499999993 -6.7138785198e-07 
-5.7499999352 1.5 2.5651422675e-06 -5.6999999344 1.4499999993 -6.8796202868e-07 -5.6999999344 1.5 2.6284953947e-06 
-5.6499999337 1.4499999993 -7.052865385e-07 -5.6499999337 1.5 2.6947529932e-06 -5.5999999329 1.4499999993 -7.2349553193e-07 
-5.5999999329 1.5 2.7641897304e-06 -5.5499999322 1.4499999993 -7.3291926128e-07 -5.5499999322 1.5 2.8001702503e-06 
-5.4999999315 1.4499999993 -7.5245293374e-07 -5.4999999315 1.5 2.8747879242e-06 -5.4499999307 1.4499999993 -7.7296976997e-07 
-5.4499999307 1.5 2.9531895507e-06 -5.39999993 1.4499999993 -7.9458595792e-07 -5.39999993 1.5 3.0356638945e-06 
-5.3499999292 1.4499999993 -8.173299193e-07 -5.3499999292 1.5 3.1225681596e-06 -5.2999999285 1.4499999993 -8.413278465e-07 
-5.2999999285 1.5 3.2142240798e-06 -5.2499999277 1.4499999993 -8.6668546828e-07 -5.2499999277 1.5 3.3110475215e-06 
-5.199999927 1.4499999993 -8.9354170996e-07 -5.199999927 1.5 3.4135091482e-06 -5.1499999262 1.4499999993 -9.2199002211e-07 
-5.1499999262 1.5 3.5221303278e-06 -5.0999999255 1.4499999993 -9.5219229479e-07 -5.0999999255 1.5 3.6374453884e-06 
-5.0499999247 1.4499999993 -9.8431746665e-07 -5.0499999247 1.5 3.7601485019e-06 -4.999999924 1.4499999993 -1.0185947303e-06 
-4.999999924 1.5 3.8909161049e-06 -4.9499999233 1.4499999993 -1.0551846117e-06 -4.9499999233 1.5 4.0306472329e-06 
-4.8999999225 1.4499999993 -1.0943685993e-06 -4.8999999225 1.5 4.1802341002e-06 -4.8499999218 1.4499999993 -1.1364654711e-06 
-4.8499999218 1.5 4.3407562771e-06 -4.799999921 1.4499999993 -1.1817196537e-06 -4.799999921 1.5 4.5135006985e-06 
-4.7499999203 1.4499999993 -1.2305599739e-06 -4.7499999203 1.5 4.6998593461e-06 -4.6999999195 1.4499999993 -1.283410711e-06 
-4.6999999195 1.5 4.9014583965e-06 -4.6499999188 1.4499999993 -1.3407670849e-06 -4.6499999188 1.5 5.1202009672e-06 
-4.599999918 1.4499999993 -1.4031663795e-06 -4.599999918 1.5 5.3582434703e-06 -4.5499999173 1.4499999993 -1.4712975371e-06 
-4.5499999173 1.5 5.6180747379e-06 -4.4999999166 1.4499999993 -1.5458783764e-06 -4.4999999166 1.5 5.9025178416e-06 
-4.4499999158 1.4499999993 -1.627789743e-06 -4.4499999158 1.5 6.2148028519e-06 -4.3999999151 1.4499999993 -1.7179445422e-06 
-4.3999999151 1.5 6.5585095399e-06 -4.3499999143 1.4499999993 -1.8173378749e-06 -4.3499999143 1.5 6.9374714258e-06 
-4.2999999136 1.4499999993 -1.9269762106e-06 -4.2999999136 1.5 7.3554924711e-06 -4.2499999128 1.4499999993 -2.0476709324e-06 
-4.2499999128 1.5 7.8158309407e-06 -4.1999999121 1.4499999993 -2.1797031877e-06 -4.1999999121 1.5 8.3197892309e-06 
-4.1499999113 1.4499999993 -2.3220243293e-06 -4.1499999113 1.5 8.8640254035e-06 -4.0999999106 1.4499999993 -2.4705921078e-06 
-4.0999999106 1.5 9.4343968158e-06 -4.0499999098 1.4499999993 -2.6144921321e-06 -4.0499999098 1.5 9.9926628536e-06 
-3.9999999091 1.4499999993 -2.7268406484e-06 -3.9999999091 1.5 1.0444807231e-05 -3.9499999084 1.4499999993 -2.7532391869e-06 
[...]
CELL_DATA 9510
FIELD FieldData 4
Water_Depth_m 1 9510 float
0.639977 0.639931 0.639885 0.639839 0.639794 0.639751 0.63971 0.639671 0.639635 
0.639602 0.639574 0.63955 0.639531 0.639517 0.639509 0.639507 0.639511 0.639522 
0.639539 0.639563 0.639592 0.639628 0.639669 0.639715 0.639765 0.639819 0.639875 
0.639934 0.639994 0.640055 0.640115 0.640174 0.640232 0.640287 0.64034 0.640389 
0.640435 0.640477 0.640516 0.640549 0.640579 0.640604 0.640626 0.640642 0.640655 
0.640663 0.640667 0.640667 0.640663 0.640655 0.640643 0.640626 0.640605 0.64058 
0.640551 0.640517 0.640478 0.640435 0.640387 0.640335 0.640278 0.640217 0.640151 
0.640082 0.64001 0.639934 0.639857 0.639778 0.639699 0.63962 0.639543 0.639467 
0.639396 0.639328 0.639265 0.639208 0.639156 0.639112 0.639074 0.639043 0.639019 
0.639002 0.638991 0.638986 0.638987 0.638992 0.639002 0.639016 0.639033 0.639054 
0.639076 0.639101 0.639128 0.639156 0.639186 0.639217 0.639249 0.639283 0.639318 
0.639355 0.639393 0.639434 0.639476 0.63952 0.639566 0.639615 0.639666 0.639719 
0.639775 0.639834 0.639896 0.639961 0.640029 0.640102 0.640178 0.640258 0.640343 
0.640433 0.640527 0.640627 0.640732 0.640841 0.640954 0.641071 0.641189 0.641306 
0.641438 0.64166 0.642224 0.641757 0.624094 0.586382 0.54039 0.494325 0.455798 
0.424062 0.395088 0.364798 0.32876 0.289912 0.254593 0.227688 0.21281 0.20983 
0.215393 0.222689 0.229845 0.236264 0.244079 0.249332 0.253063 0.258413 0.264289 
0.271798 0.280786 0.290816 0.303017 0.31319 0.323665 0.336085 0.341835 0.341296 
0.335104 0.322819 0.319589 0.328113 0.334834 0.339737 0.345438 0.351836 0.35894 
0.36568 0.371904 0.378534 0.385389 0.392992 0.400493 0.407837 0.414715 0.422302 
0.431526 0.441012 0.447983 0.454299 0.460492 0.466943 0.473903 0.481335 0.486763 
0.491765 0.495818 0.502066 0.51145 0.514403 0.515739 0.518078 0.518355 0.515641 
0.478544 0.463213 0.450675 0.43813 0.426281 0.407072 0.38387 0.366887 0.36358 
0.36443 0.364365 0.362915 0.362852 0.362813 0.359313 0.355602 0.355636 0.355675 
0.355717 0.355758 0.3558 0.35584 0.355878 0.355915 0.355951 0.355984 0.356016 
0.356046 0.356074 0.356101 0.356126 0.35615 0.356173 0.356194 0.356215 0.356235 
0.356253 0.356271 0.356288 0.356305 0.356321 0.356336 0.356351 0.356366 0.35638 
0.356394 0.356408 0.356421 0.356435 0.356448 0.356461 0.356473 0.356486 0.356499 
0.356511 0.356523 0.356536 0.356548 0.35656 0.356573 0.356585 0.356597 0.356609 
0.356622 0.356634 0.356646 0.356658 0.356671 0.356683 0.356696 0.356708 0.356721 
0.356733 0.356746 0.356758 0.356771 0.356784 0.356796 0.356809 0.356822 0.356835 
0.356848 0.356861 0.356874 0.356887 0.3569 0.356913 0.356926 0.356939 0.356953 
0.356966 0.356979 0.356993 0.357006 0.357017 0.35641 0.350628 0.639978 0.639931 
0.639884 0.639838 0.639793 0.639749 0.639707 0.639668 0.639632 0.639599 0.63957 
0.639545 0.639525 0.639511 0.639503 0.6395 0.639504 0.639515 0.639532 0.639556 
0.639585 0.639621 0.639662 0.639708 0.639759 0.639813 0.63987 0.639929 0.639989 
0.64005 0.640111 0.640171 0.640229 0.640285 0.640339 0.640389 0.640435 0.640478 
0.640517 0.640551 0.640581 0.640607 0.640628 0.640646 0.640658 0.640667 0.640671 
0.640671 0.640667 0.640659 0.640647 0.64063 0.640609 0.640584 0.640554 0.64052 
0.640481 0.640438 0.64039 0.640337 0.640279 0.640218 0.640151 0.640082 0.640008 
0.639932 0.639854 0.639775 0.639694 0.639615 0.639537 0.639461 0.639389 0.63932 
0.639257 0.6392 0.639149 0.639104 0.639067 0.639036 0.639012 0.638996 0.638985 
0.638981 0.638982 0.638988 0.638999 0.639013 0.639031 0.639052 0.639075 0.6391 
0.639127 0.639155 0.639185 0.639216 0.639248 0.639282 0.639317 0.639354 0.639392 
0.639432 0.639474 0.639518 0.639564 0.639612 0.639663 0.639716 0.639772 0.63983 
0.639892 0.639956 0.640024 0.640096 0.640171 0.640251 0.640336 0.640425 0.640519 
0.640618 0.640723 0.640833 0.640947 0.641064 0.641184 0.641305 0.641423 0.641543 
0.641842 0.641538 0.623955 0.584837 0.535057 0.485285 0.445522 0.414078 0.386045 
0.356486 0.321588 0.283509 0.248917 0.224409 0.210683 0.217215 0.228411 0.235476 
0.239413 0.243726 0.247881 0.253894 0.26096 0.267134 0.272609 0.278506 0.28464 
0.289879 0.300295 0.311607 0.32505 0.347877 0.385914 0.411415 0.390197 0.340454 
0.331828 0.342071 0.348609 0.352738 0.354863 0.358246 0.363272 0.369658 0.378291 
0.386487 0.39414 0.402283 0.408518 0.415869 0.420074 0.425892 0.432899 0.440879 
0.450353 0.458606 0.461295 0.465569 0.467522 0.472252 0.479833 0.48788 0.491569 
0.495008 0.502109 0.508518 0.509135 0.508251 0.511288 0.512954 0.473482 0.463037 
0.457349 0.448915 0.44063 0.427715 0.40773 0.384773 0.366834 0.366002 0.365903 
0.363865 0.362892 0.362843 0.35923 0.355598 0.355637 0.355676 0.355718 0.355761 
0.355802 0.355843 0.355882 0.355919 0.355954 0.355987 0.356019 0.356049 0.356077 
0.356104 0.356129 0.356153 0.356175 0.356197 0.356217 0.356237 0.356255 0.356273 
0.35629 0.356307 0.356322 0.356338 0.356353 0.356367 0.356382 0.356395 0.356409 
0.356422 0.356436 0.356449 0.356461 0.356474 0.356487 0.356499 0.356512 0.356524 
0.356536 0.356549 0.356561 0.356573 0.356585 0.356598 0.35661 0.356622 0.356634 
0.356647 0.356659 0.356671 0.356684 0.356696 0.356708 0.356721 0.356734 0.356746 
0.356759 0.356771 0.356784 0.356797 0.356809 0.356822 0.356835 0.356848 0.356861 
0.356874 0.356887 0.3569 0.356913 0.356926 0.35694 0.356953 0.356966 0.35698 
0.356993 0.357006 0.357018 0.35641 0.350629 0.639977 0.639929 0.639882 0.639835 
0.639789 0.639744 0.639702 0.639661 0.639624 0.63959 0.63956 0.639535 0.639514 
0.639499 0.63949 0.639487 0.63949 0.6395 0.639517 0.639541 0.63957 0.639606 
0.639648 0.639694 0.639745 0.6398 0.639858 0.639918 0.63998 0.640042 0.640104 
0.640165 0.640224 0.640282 0.640336 0.640388 0.640435 0.640479 0.640519 0.640554 
0.640585 0.640612 0.640634 0.640652 0.640665 0.640674 0.640679 0.640679 0.640675 
0.640667 0.640655 0.640638 0.640617 0.640592 0.640561 0.640527 0.640487 0.640443 
0.640394 0.64034 0.640282 0.640218 0.640151 0.64008 0.640005 0.639927 0.639847 
0.639766 0.639685 0.639604 0.639524 0.639447 0.639374 0.639305 0.639241 0.639183 
0.639132 0.639087 0.63905 0.63902 0.638997 0.638981 0.638972 0.638969 0.638971 
0.638979 0.63899 0.639006 0.639025 0.639046 0.63907 0.639095 0.639123 0.639151 
0.639181 0.639212 0.639244 0.639278 0.639313 0.639349 0.639387 0.639426 0.639468 
0.639511 0.639557 0.639604 0.639654 0.639707 0.639762 0.639819 0.63988 0.639943 
0.64001 0.640081 0.640155 0.640234 0.640317 0.640405 0.640498 0.640596 0.640701 
0.64081 0.640925 0.641045 0.641169 0.641295 0.641425 0.641565 0.64197 0.641563 
0.623237 0.582308 0.529873 0.47826 0.436182 0.404181 0.376806 0.348582 0.315255 
0.278449 0.245316 0.221043 0.216277 0.225169 0.236012 0.243267 0.24755 0.251917 
0.256812 0.263195 0.27077 0.278203 0.28506 0.289793 0.292471 0.294874 0.298454 
0.30754 0.324389 0.346409 0.378006 0.395824 0.380104 0.341511 0.346139 0.354246 
0.361047 0.365122 0.365201 0.368535 0.375204 0.383669 0.393128 0.402034 0.409199 
0.416112 0.421546 0.427065 0.434463 0.441563 0.448947 0.457606 0.465247 0.471573 
0.472765 0.47426 0.482124 0.491184 0.497731 0.503696 0.511685 0.52005 0.523774 
0.525626 0.525791 0.529312 0.532954 0.533351 0.499189 0.485268 0.474553 0.464988 
0.454795 0.44417 0.429083 0.411578 0.385202 0.36707 0.366198 0.365059 0.363407 
0.363341 0.359183 0.355588 0.355626 0.35567 0.355715 0.355759 0.355801 0.355842 
0.355882 0.355919 0.355954 0.355988 0.35602 0.356049 0.356078 0.356104 0.356129 
0.356153 0.356176 0.356197 0.356217 0.356236 0.356255 0.356273 0.35629 0.356306 
0.356322 0.356337 0.356352 0.356367 0.356381 0.356395 0.356408 0.356422 0.356435 
0.356448 0.356461 0.356473 0.356486 0.356499 0.356511 0.356523 0.356536 0.356548 
0.35656 0.356572 0.356585 0.356597 0.356609 0.356621 0.356634 0.356646 0.356658 
0.356671 0.356683 0.356695 0.356708 0.35672 0.356733 0.356745 0.356758 0.356771 
0.356783 0.356796 0.356809 0.356822 0.356835 0.356847 0.35686 0.356873 0.356886 
0.3569 0.356913 0.356926 0.356939 0.356952 0.356966 0.356979 0.356993 0.357006 
0.357017 0.356409 0.350628 0.639976 0.639927 0.639879 0.639831 0.639784 0.639738 
0.639694 0.639652 0.639614 0.639578 0.639547 0.63952 0.639498 0.639482 0.639471 
0.639467 0.63947 0.639479 0.639495 0.639518 0.639548 0.639584 0.639626 0.639673 
0.639725 0.639781 0.639841 0.639902 0.639965 0.640029 0.640093 0.640156 0.640218 
0.640277 0.640333 0.640387 0.640436 0.640482 0.640523 0.64056 0.640592 0.64062 
0.640643 0.640662 0.640676 0.640686 0.640691 0.640692 0.640689 0.640681 0.640668 
0.640651 0.64063 0.640604 0.640573 0.640538 0.640497 0.640452 0.640401 0.640346 
0.640286 0.64022 0.640151 0.640077 0.64 0.63992 0.639838 0.639754 0.63967 
0.639586 0.639505 0.639426 0.639351 0.63928 0.639215 0.639157 0.639105 0.639061 
0.639024 0.638995 0.638974 0.638959 0.638952 0.63895 0.638955 0.638964 0.638978 
0.638995 0.639015 0.639038 0.639063 0.63909 0.639117 0.639146 0.639176 0.639207 
0.639239 0.639272 0.639307 0.639342 0.63938 0.639419 0.639459 0.639502 0.639547 
0.639594 0.639643 0.639694 0.639748 0.639805 0.639864 0.639926 0.639992 0.64006 
0.640133 0.64021 0.640291 0.640377 0.640469 0.640566 0.64067 0.640779 0.640896 
0.641018 0.641147 0.641281 0.641419 0.641563 0.641985 0.641588 0.622566 0.580077 
0.525277 0.469927 0.427344 0.394825 0.367584 0.34127 0.310289 0.27838 0.255242 
0.239369 0.231134 0.233622 0.239358 0.246987 0.254624 0.260934 0.267184 0.274106 
0.281752 0.289498 0.296176 0.300348 0.302245 0.303927 0.307615 0.314274 0.322525 
0.333254 0.335025 0.336319 0.344307 0.35281 0.359401 0.364494 0.366199 0.367886 
0.373522 0.380221 0.389054 0.398662 0.407241 0.41507 0.421074 0.427233 0.434982 
0.442905 0.450464 0.458593 0.465154 0.471196 0.478511 0.484369 0.486785 0.49125 
0.503648 0.515991 0.522487 0.526617 0.535654 0.543576 0.544707 0.547738 0.550378 
0.553941 0.554536 0.553525 0.530331 0.521477 0.509288 0.491432 0.474983 0.460223 
0.44481 0.429246 0.40654 0.378556 0.366634 0.365759 0.363923 0.363681 0.359105 
0.355577 0.35562 0.355668 0.355715 0.355761 0.355805 0.355847 0.355887 0.355924 
0.35596 0.355993 0.356025 0.356054 0.356082 0.356109 0.356133 0.356157 0.356179 
0.3562 0.35622 0.356239 0.356257 0.356275 0.356292 0.356308 0.356324 0.356339 
0.356354 0.356368 0.356382 0.356396 0.356409 0.356423 0.356436 0.356449 0.356461 
0.356474 0.356487 0.356499 0.356511 0.356524 0.356536 0.356548 0.35656 0.356573 
0.356585 0.356597 0.356609 0.356622 0.356634 0.356646 0.356658 0.356671 0.356683 
0.356695 0.356708 0.35672 0.356733 0.356745 0.356758 0.356771 0.356783 0.356796 
0.356809 0.356822 0.356835 0.356848 0.35686 0.356873 0.356887 0.3569 0.356913 
0.356926 0.356939 0.356952 0.356966 0.356979 0.356993 0.357006 0.357017 0.356409 
0.350628 0.639975 0.639925 0.639875 0.639825 0.639777 0.639729 0.639683 0.63964 
0.639599 0.639562 0.639529 0.6395 0.639477 0.639458 0.639446 0.639441 0.639442 
0.639451 0.639466 0.639489 0.639519 0.639555 0.639598 0.639646 0.639699 0.639757 
0.639818 0.639881 0.639947 0.640013 0.640079 0.640145 0.640209 0.640271 0.64033 
0.640386 0.640438 0.640486 0.640529 0.640568 0.640603 0.640632 0.640657 0.640677 
0.640693 0.640703 0.640709 0.640711 0.640707 0.640699 0.640687 0.64067 0.640648 
0.640621 0.640589 0.640553 0.640511 0.640464 0.640411 0.640354 0.640291 0.640223 
0.640151 0.640074 0.639993 0.639909 0.639823 0.639736 0.639648 0.639561 0.639477 
0.639395 0.639317 0.639245 0.639179 0.63912 0.639068 0.639024 0.638988 0.63896 
0.638941 0.638929 0.638923 0.638925 0.638932 0.638944 0.63896 0.63898 0.639003 
0.639028 0.639054 0.639082 0.63911 0.63914 0.63917 0.639201 0.639232 0.639265 
0.639298 0.639333 0.63937 0.639408 0.639448 0.63949 0.639533 0.639579 0.639627 
0.639678 0.639731 0.639786 0.639843 0.639904 0.639967 0.640033 0.640103 0.640177 
0.640256 0.64034 0.640429 0.640524 0.640626 0.640736 0.640853 0.640978 0.641112 
0.641255 0.641406 0.64157 0.642016 0.64161 0.622099 0.578584 0.522852 0.467768 
0.421611 0.386404 0.35775 0.331502 0.304963 0.28157 0.26573 0.255223 0.247985 
0.244624 0.249049 0.255738 0.263411 0.270692 0.277401 0.284522 0.29213 0.299634 
0.306261 0.310218 0.311832 0.313522 0.316565 0.321637 0.328118 0.334635 0.341661 
0.348746 0.355671 0.362689 0.369066 0.373184 0.374406 0.377797 0.383978 0.392105 
0.40136 0.410448 0.418501 0.425689 0.432435 0.439529 0.448218 0.457066 0.464577 
0.472661 0.482248 0.489996 0.493157 0.495848 0.505225 0.516668 0.528073 0.541133 
0.549678 0.557708 0.562238 0.564402 0.567673 0.575675 0.576551 0.577679 0.578977 
0.580323 0.552762 0.547709 0.537855 0.520983 0.499681 0.480288 0.462205 0.444411 
0.424053 0.399211 0.375336 0.365491 0.364236 0.363766 0.359025 0.355566 0.355614 
0.355666 0.355716 0.355764 0.35581 0.355853 0.355893 0.355931 0.355967 0.356 
0.356031 0.356061 0.356088 0.356114 0.356139 0.356162 0.356184 0.356204 0.356224 
0.356243 0.356261 0.356278 0.356294 0.35631 0.356326 0.356341 0.356355 0.35637 
0.356384 0.356397 0.356411 0.356424 0.356437 0.356449 0.356462 0.356475 0.356487 
0.3565 0.356512 0.356524 0.356536 0.356549 0.356561 0.356573 0.356585 0.356597 
0.356609 0.356622 0.356634 0.356646 0.356658 0.356671 0.356683 0.356696 0.356708 
0.35672 0.356733 0.356745 0.356758 0.356771 0.356783 0.356796 0.356809 0.356822 
0.356835 0.356847 0.35686 0.356873 0.356887 0.3569 0.356913 0.356926 0.356939 
0.356952 0.356966 0.356979 0.356992 0.357006 0.357017 0.356409 0.350628 0.639974 
0.639922 0.63987 0.639819 0.639768 0.639719 0.639671 0.639625 0.639582 0.639543 
0.639507 0.639476 0.639451 0.63943 0.639416 0.639409 0.639409 0.639417 0.639431 
0.639454 0.639484 0.63952 0.639563 0.639613 0.639667 0.639727 0.63979 0.639856 
0.639924 0.639993 0.640063 0.640131 0.640199 0.640264 0.640326 0.640385 0.640441 
0.640492 0.640538 0.64058 0.640617 0.640649 0.640675 0.640697 0.640714 0.640726 
0.640733 0.640735 0.640732 0.640724 0.640711 0.640694 0.640671 0.640644 0.640611 
0.640573 0.640529 0.64048 0.640425 0.640364 0.640298 0.640226 0.64015 0.640069 
0.639983 0.639895 0.639804 0.639712 0.639619 0.639528 0.639439 0.639354 0.639273 
0.639198 0.63913 0.63907 0.639018 0.638975 0.638941 0.638915 0.638898 0.638889 
0.638887 0.638892 0.638903 0.638919 0.638939 0.638962 0.638987 0.639015 0.639043 
0.639072 0.639102 0.639132 0.639162 0.639193 0.639224 0.639256 0.639289 0.639322 
0.639358 0.639395 0.639433 0.639474 0.639517 0.639562 0.639609 0.639658 0.639709 
0.639762 0.639818 0.639876 0.639936 0.64 0.640067 0.640138 0.640213 0.640293 
0.640378 0.640471 0.64057 0.640678 0.640795 0.640923 0.641061 0.641212 0.641376 
0.641556 0.642026 0.641616 0.621645 0.577145 0.520162 0.46232 0.415437 0.378738 
0.349341 0.323614 0.301562 0.283502 0.271504 0.264826 0.259006 0.255862 0.259668 
0.266093 0.273623 0.280962 0.288155 0.294695 0.300793 0.307029 0.313341 0.317233 
0.319083 0.321826 0.325641 0.330246 0.335479 0.341644 0.349148 0.357026 0.364332 
0.369997 0.372625 0.375859 0.382218 0.388593 0.395645 0.403568 0.412835 0.421577 
0.428838 0.436039 0.444599 0.45319 0.461344 0.469625 0.478824 0.487662 0.498148 
0.507321 0.510435 0.515967 0.527415 0.540307 0.550016 0.557665 0.572888 0.585114 
0.588855 0.590379 0.596324 0.600902 0.602595 0.607005 0.610663 0.610992 0.566589 
0.563894 0.556604 0.545625 0.5271 0.506073 0.484918 0.462394 0.439061 0.418602 
0.390723 0.368035 0.36464 0.364227 0.35897 0.355554 0.355609 0.355666 0.35572 
0.35577 0.355817 0.355861 0.355902 0.35594 0.355976 0.356009 0.35604 0.356069 
0.356096 0.356121 0.356145 0.356168 0.356189 0.35621 0.356229 0.356247 0.356265 
0.356282 0.356298 0.356313 0.356329 0.356343 0.356358 0.356372 0.356385 0.356399 
0.356412 0.356425 0.356438 0.356451 0.356463 0.356476 0.356488 0.3565 0.356513 
0.356525 0.356537 0.356549 0.356561 0.356573 0.356585 0.356598 0.35661 0.356622 
0.356634 0.356646 0.356659 0.356671 0.356683 0.356696 0.356708 0.356721 0.356733 
0.356746 0.356758 0.356771 0.356783 0.356796 0.356809 0.356822 0.356835 0.356848 
0.35686 0.356873 0.356887 0.3569 0.356913 0.356926 0.356939 0.356952 0.356966 
0.356979 0.356992 0.357006 0.357017 0.356409 0.350628 0.639973 0.63992 0.639866 
0.639812 0.639759 0.639707 0.639657 0.639608 0.639563 0.639521 0.639483 0.639449 
0.639421 0.639398 0.639382 0.639373 0.639371 0.639377 0.639391 0.639413 0.639443 
0.63948 0.639524 0.639575 0.639631 0.639692 0.639758 0.639827 0.639898 0.639971 
0.640044 0.640116 0.640188 0.640257 0.640323 0.640386 0.640445 0.640499 0.640549 
0.640594 0.640634 0.640669 0.640698 0.640722 0.640741 0.640754 0.640762 0.640765 
0.640763 0.640755 0.640742 0.640724 0.640701 0.640672 0.640638 0.640597 0.640551 
0.640499 0.640441 0.640377 0.640307 0.640231 0.640149 0.640062 0.639971 0.639876 
0.639779 0.639681 0.639583 0.639486 0.639392 0.639302 0.639217 0.63914 0.63907 
0.639009 0.638957 0.638914 0.638882 0.638859 0.638845 0.63884 0.638842 0.638852 
0.638868 0.638888 0.638913 0.63894 0.638969 0.639 0.639031 0.639062 0.639093 
0.639124 0.639154 0.639185 0.639215 0.639246 0.639278 0.63931 0.639344 0.63938 
0.639417 0.639457 0.639498 0.639542 0.639587 0.639635 0.639684 0.639736 0.639789 
0.639845 0.639902 0.639962 0.640025 0.640092 0.640162 0.640237 0.640318 0.640406 
0.640501 0.640606 0.640721 0.640849 0.64099 0.641148 0.641322 0.641519 0.642017 
0.641599 0.62096 0.575019 0.516622 0.459272 0.40916 0.371237 0.342999 0.321058 
0.300762 0.283742 0.272329 0.266096 0.26155 0.26516 0.271691 0.277618 0.283199 
0.289742 0.296626 0.302276 0.306741 0.310964 0.314604 0.318516 0.322937 0.327522 
0.332916 0.337572 0.341464 0.346753 0.353354 0.361107 0.369053 0.374642 0.378133 
0.382937 0.390314 0.398656 0.406321 0.414876 0.422673 0.431048 0.439869 0.448194 
0.4571 0.466127 0.475566 0.485658 0.496088 0.504666 0.511196 0.516934 0.52524 
0.536184 0.549329 0.56319 0.573834 0.584644 0.595257 0.605153 0.611204 0.616743 
0.624269 0.628437 0.631097 0.637627 0.639753 0.639982 0.574813 0.573274 0.571627 
0.566725 0.554955 0.537398 0.512145 0.484947 0.45637 0.432319 0.407066 0.377787 
0.364728 0.364233 0.358924 0.355544 0.355606 0.355669 0.355726 0.355779 0.355828 
0.355873 0.355914 0.355952 0.355987 0.35602 0.356051 0.356079 0.356105 0.35613 
0.356153 0.356175 0.356196 0.356216 0.356235 0.356252 0.35627 0.356286 0.356302 
0.356317 0.356332 0.356346 0.35636 0.356374 0.356388 0.356401 0.356414 0.356427 
0.356439 0.356452 0.356464 0.356477 0.356489 0.356501 0.356513 0.356525 0.356538 
0.35655 0.356562 0.356574 0.356586 0.356598 0.35661 0.356622 0.356634 0.356647 
0.356659 0.356671 0.356683 0.356696 0.356708 0.356721 0.356733 0.356746 0.356758 
0.356771 0.356784 0.356796 0.356809 0.356822 0.356835 0.356848 0.35686 0.356874 
0.356887 0.3569 0.356913 0.356926 0.356939 0.356952 0.356966 0.356979 0.356992 
0.357006 0.357017 0.356409 0.350628 0.639972 0.639917 0.639861 0.639805 0.639749 
0.639694 0.639641 0.63959 0.639542 0.639497 0.639456 0.639419 0.639388 0.639363 
0.639345 0.639333 0.63933 0.639334 0.639347 0.639368 0.639398 0.639435 0.63948 
0.639533 0.639591 0.639655 0.639723 0.639796 0.63987 0.639947 0.640024 0.640101 
0.640176 0.640249 0.64032 0.640387 0.64045 0.640509 0.640563 0.640611 0.640654 
0.640692 0.640724 0.640751 0.640772 0.640787 0.640797 0.640801 0.640799 0.640792 
0.640779 0.64076 0.640736 0.640706 0.64067 0.640627 0.640579 0.640523 0.640461 
0.640392 0.640317 0.640235 0.640147 0.640054 0.639956 0.639854 0.639749 0.639644 
0.639538 0.639434 0.639334 0.639239 0.63915 0.639069 0.638997 0.638935 0.638883 
0.638842 0.638811 0.638792 0.638782 0.638782 0.63879 0.638806 0.638827 0.638854 
0.638884 0.638916 0.63895 0.638984 0.639019 0.639052 0.639085 0.639117 0.639147 
0.639177 0.639207 0.639237 0.639267 0.639298 0.639331 0.639365 0.639401 0.639439 
0.63948 0.639522 0.639566 0.639612 0.63966 0.639709 0.63976 0.639812 0.639866 
0.639922 0.639981 0.640042 0.640107 0.640176 0.640251 0.640332 0.640421 0.64052 
0.640631 0.640756 0.640897 0.641057 0.641239 0.641448 0.641973 0.641549 0.620069 
0.572164 0.510415 0.447845 0.399243 0.363061 0.335664 0.31445 0.296599 0.282083 
0.271472 0.264845 0.265189 0.270759 0.277205 0.283664 0.289666 0.295541 0.301145 