# vtk DataFile Version 5.1
vtk output
ASCII
DATASET UNSTRUCTURED_GRID
POINTS 10043 double
-10.1 1.4499999993 0 -10.049999999 1.4499999993 0 -10.049999999 1.5 0 
-9.9999999985 1.4499999993 0 -9.9999999985 1.5 0 -9.9499999978 1.4499999993 0 
-9.9499999978 1.5 0 -9.899999997 1.4499999993 0 -9.899999997 1.5 0 
-9.8499999963 1.4499999993 0 -9.8499999963 1.5 0 -9.7999999955 1.4499999993 0 
-9.7999999955 1.5 0 -9.7499999948 1.4499999993 0 -9.7499999948 1.5 0 
-9.699999994 1.4499999993 0 -9.699999994 1.5 0 -9.6499999933 1.4499999993 0 
-9.6499999933 1.5 0 -9.5999999925 1.4499999993 0 -9.5999999925 1.5 0 
-9.5499999918 1.4499999993 0 -9.5499999918 1.5 0 -9.4999999911 1.4499999993 0 
-9.4999999911 1.5 0 -9.4499999903 1.4499999993 0 -9.4499999903 1.5 0 
-9.3999999896 1.4499999993 0 -9.3999999896 1.5 0 -9.3499999888 1.4499999993 0 
-9.3499999888 1.5 0 -9.2999999881 1.4499999993 0 -9.2999999881 1.5 0 
-9.2499999873 1.4499999993 0 -9.2499999873 1.5 0 -9.1999999866 1.4499999993 0 
-9.1999999866 1.5 0 -9.1499999858 1.4499999993 0 -9.1499999858 1.5 0 
-9.0999999851 1.4499999993 0 -9.0999999851 1.5 0 -9.0499999844 1.4499999993 0 
-9.0499999844 1.5 0 -8.9999999836 1.4499999993 0 -8.9999999836 1.5 0 
-8.9499999829 1.4499999993 0 -8.9499999829 1.5 0 -8.8999999821 1.4499999993 0 
-8.8999999821 1.5 0 -8.8499999814 1.4499999993 0 -8.8499999814 1.5 0 
-8.7999999806 1.4499999993 0 -8.7999999806 1.5 0 -8.7499999799 1.4499999993 0 
-8.7499999799 1.5 0 -8.6999999791 1.4499999993 0 -8.6999999791 1.5 0 
-8.6499999784 1.4499999993 0 -8.6499999784 1.5 0 -8.5999999776 1.4499999993 0 
-8.5999999776 1.5 0 -8.5499999769 1.4499999993 0 -8.5499999769 1.5 0 
-8.4999999762 1.4499999993 0 -8.4999999762 1.5 0 -8.4499999754 1.4499999993 0 
-8.4499999754 1.5 0 -8.3999999747 1.4499999993 0 -8.3999999747 1.5 0 
-8.3499999739 1.4499999993 0 -8.3499999739 1.5 0 -8.2999999732 1.4499999993 0 
-8.2999999732 1.5 0 -8.2499999724 1.4499999993 0 -8.2499999724 1.5 0 
-8.1999999717 1.4499999993 0 -8.1999999717 1.5 0 -8.1499999709 1.4499999993 0 
-8.1499999709 1.5 0 -8.0999999702 1.4499999993 0 -8.0999999702 1.5 0 
-8.0499999695 1.4499999993 0 -8.0499999695 1.5 0 -7.9999999687 1.4499999993 0 
-7.9999999687 1.5 0 -7.949999968 1.4499999993 0 -7.949999968 1.5 0 
-7.8999999672 1.4499999993 0 -7.8999999672 1.5 0 -7.8499999665 1.4499999993 0 
-7.8499999665 1.5 0 -7.7999999657 1.4499999993 0 -7.7999999657 1.5 0 
-7.749999965 1.4499999993 0 -7.749999965 1.5 0 -7.6999999642 1.4499999993 0 
-7.6999999642 1.5 0 -7.6499999635 1.4499999993 0 -7.6499999635 1.5 0 
-7.5999999627 1.4499999993 0 -7.5999999627 1.5 0 -7.549999962 1.4499999993 0 
-7.549999962 1.5 0 -7.4999999613 1.4499999993 0 -7.4999999613 1.5 0 
-7.4499999605 1.4499999993 0 -7.4499999605 1.5 0 -7.3999999598 1.4499999993 0 
-7.3999999598 1.5 0 -7.349999959 1.4499999993 0 -7.349999959 1.5 0 
-7.2999999583 1.4499999993 0 -7.2999999583 1.5 0 -7.2499999575 1.4499999993 0 
-7.2499999575 1.5 0 -7.1999999568 1.4499999993 0 -7.1999999568 1.5 0 
-7.149999956 1.4499999993 0 -7.149999956 1.5 0 -7.0999999553 1.4499999993 0 
-7.0999999553 1.5 0 -7.0499999546 1.4499999993 0 -7.0499999546 1.5 0 
-6.9999999538 1.4499999993 0 -6.9999999538 1.5 0 -6.9499999531 1.4499999993 0 
-6.9499999531 1.5 0 -6.8999999523 1.4499999993 0 -6.8999999523 1.5 0 
-6.8499999516 1.4499999993 0 -6.8499999516 1.5 0 -6.7999999508 1.4499999993 0 
-6.7999999508 1.5 0 -6.7499999501 1.4499999993 0 -6.7499999501 1.5 0 
-6.6999999493 1.4499999993 0 -6.6999999493 1.5 0 -6.6499999486 1.4499999993 0 
-6.6499999486 1.5 0 -6.5999999478 1.4499999993 0 -6.5999999478 1.5 0 
-6.5499999471 1.4499999993 0 -6.5499999471 1.5 0 -6.4999999464 1.4499999993 0 
-6.4999999464 1.5 0 -6.4499999456 1.4499999993 0 -6.4499999456 1.5 0 
-6.3999999449 1.4499999993 0 -6.3999999449 1.5 0 -6.3499999441 1.4499999993 0 
-6.3499999441 1.5 0 -6.2999999434 1.4499999993 0 -6.2999999434 1.5 0 
-6.2499999426 1.4499999993 0 -6.2499999426 1.5 0 -6.1999999419 1.4499999993 0 
-6.1999999419 1.5 0 -6.1499999411 1.4499999993 0 -6.1499999411 1.5 0 
-6.0999999404 1.4499999993 0 -6.0999999404 1.5 0 -6.0499999397 1.4499999993 0 
-6.0499999397 1.5 0 -5.9999999389 1.4499999993 0 -5.9999999389 1.5 0 
-5.9499999382 1.4499999993 0 -5.9499999382 1.5 0 -5.8999999374 1.4499999993 0 
-5.8999999374 1.5 0 -5.8499999367 1.4499999993 0 -5.8499999367 1.5 0 
-5.7999999359 1.4499999993 0 -5.7999999359 1.5 0 -5.7499999352 1.4499999993 0 
-5.7499999352 1.5 0 -5.6999999344 1.4499999993 0 -5.6999999344 1.5 0 
-5.6499999337 1.4499999993 0 -5.6499999337 1.5 0 -5.5999999329 1.4499999993 0 
-5.5999999329 1.5 0 -5.5499999322 1.4499999993 0 -5.5499999322 1.5 0 
-5.4999999315 1.4499999993 0 -5.4999999315 1.5 0 -5.4499999307 1.4499999993 0 
-5.4499999307 1.5 0 -5.39999993 1.4499999993 0 -5.39999993 1.5 0 
-5.3499999292 1.4499999993 0 -5.3499999292 1.5 0 -5.2999999285 1.4499999993 0 
-5.2999999285 1.5 0 -5.2499999277 1.4499999993 0 -5.2499999277 1.5 0 
-5.199999927 1.4499999993 0 -5.199999927 1.5 0 -5.1499999262 1.4499999993 0 
-5.1499999262 1.5 0 -5.0999999255 1.4499999993 0 -5.0999999255 1.5 0 
-5.0499999247 1.4499999993 0 -5.0499999247 1.5 0 -4.999999924 1.4499999993 0 
-4.999999924 1.5 0 -4.9499999233 1.4499999993 0 -4.9499999233 1.5 0 
-4.8999999225 1.4499999993 0 -4.8999999225 1.5 0 -4.8499999218 1.4499999993 0 
-4.8499999218 1.5 0 -4.799999921 1.4499999993 0 -4.799999921 1.5 0 
-4.7499999203 1.4499999993 0 -4.7499999203 1.5 0 -4.6999999195 1.4499999993 0 
-4.6999999195 1.5 0 -4.6499999188 1.4499999993 0 -4.6499999188 1.5 0 
-4.599999918 1.4499999993 0 -4.599999918 1.5 0 -4.5499999173 1.4499999993 0 
-4.5499999173 1.5 0 -4.4999999166 1.4499999993 0 -4.4999999166 1.5 0 
-4.4499999158 1.4499999993 0 -4.4499999158 1.5 0 -4.3999999151 1.4499999993 0 
-4.3999999151 1.5 0 -4.3499999143 1.4499999993 0 -4.3499999143 1.5 0 
-4.2999999136 1.4499999993 0 -4.2999999136 1.5 0 -4.2499999128 1.4499999993 0 
-4.2499999128 1.5 0 -4.1999999121 1.4499999993 0 -4.1999999121 1.5 0 
-4.1499999113 1.4499999993 0 -4.1499999113 1.5 0 -4.0999999106 1.4499999993 0 
-4.0999999106 1.5 0 -4.0499999098 1.4499999993 0 -4.0499999098 1.5 0 
-3.9999999091 1.4499999993 0 -3.9999999091 1.5 0 -3.9499999084 1.4499999993 0 
-3.9499999084 1.5 0 -3.8999999076 1.4499999993 0 -3.8999999076 1.5 0 
-3.8499999069 1.4499999993 0 -3.8499999069 1.5 0 -3.7999999061 1.4499999993 0 
-3.7999999061 1.5 0 -3.7499999054 1.4499999993 0 -3.7499999054 1.5 0 
-3.6999999046 1.4499999993 0 -3.6999999046 1.5 0 -3.6499999039 1.4499999993 0 
-3.6499999039 1.5 0 -3.5999999031 1.4499999993 0 -3.5999999031 1.5 0 
-3.5499999024 1.4499999993 0 -3.5499999024 1.5 0 -3.4999999017 1.4499999993 0 
-3.4999999017 1.5 0 -3.4499999009 1.4499999993 0 -3.4499999009 1.5 0 
-3.3999999002 1.4499999993 0 -3.3999999002 1.5 0 -3.3499998994 1.4499999993 0 
-3.3499998994 1.5 0 -3.2999998987 1.4499999993 0 -3.2999998987 1.5 0 
-3.2499998979 1.4499999993 0 -3.2499998979 1.5 0 -3.1999998972 1.4499999993 0 
-3.1999998972 1.5 0 -3.1499998964 1.4499999993 0 -3.1499998964 1.5 0 
-3.0999998957 1.4499999993 0 -3.0999998957 1.5 0 -3.0499998949 1.4499999993 0 
-3.0499998949 1.5 0 -2.9999998942 1.4499999993 0 -2.9999998942 1.5 0 
-2.9499998935 1.4499999993 0 -2.9499998935 1.5 0 -2.8999998927 1.4499999993 0 
-2.8999998927 1.5 0 -2.849999892 1.4499999993 0 -2.849999892 1.5 0 
-2.7999998912 1.4499999993 0 -2.7999998912 1.5 0 -2.7499998905 1.4499999993 0 
-2.7499998905 1.5 0 -2.6999998897 1.4499999993 0 -2.6999998897 1.5 0 
-2.649999889 1.4499999993 0 -2.649999889 1.5 0 -2.5999998882 1.4499999993 0 
-2.5999998882 1.5 0 -2.5499998875 1.4499999993 0 -2.5499998875 1.5 0 
-2.4999998868 1.4499999993 0 -2.4999998868 1.5 0 -2.449999886 1.4499999993 0 
-2.449999886 1.5 0 -2.3999998853 1.4499999993 0 -2.3999998853 1.5 0 
-2.3499998845 1.4499999993 0 -2.3499998845 1.5 0 -2.2999998838 1.4499999993 0 
-2.2999998838 1.5 0 -2.249999883 1.4499999993 0 -2.249999883 1.5 0 
-2.1999998823 1.4499999993 0 -2.1999998823 1.5 0 -2.1499998815 1.4499999993 0 
-2.1499998815 1.5 0 -2.0999998808 1.4499999993 0 -2.0999998808 1.5 0 
-2.04999988 1.4499999993 0 -2.04999988 1.5 0 -1.9999998793 1.4499999993 0 
-1.9999998793 1.5 0 -1.9499998786 1.4499999993 0 -1.9499998786 1.5 0 
-1.8999998778 1.4499999993 0 -1.8999998778 1.5 0 -1.8499998771 1.4499999993 0 
-1.8499998771 1.5 0 -1.7999998763 1.4499999993 0 -1.7999998763 1.5 0 
-1.7499998756 1.4499999993 0 -1.7499998756 1.5 0 -1.6999998748 1.4499999993 0 
-1.6999998748 1.5 0 -1.6499998741 1.4499999993 0 -1.6499998741 1.5 0 
-1.5999998733 1.4499999993 0 -1.5999998733 1.5 0 -1.5499998726 1.4499999993 0 
-1.5499998726 1.5 0 -1.4999998718 1.4499999993 0 -1.4999998718 1.5 0 
-1.4499998711 1.4499999993 0 -1.4499998711 1.5 0 -1.3999998704 1.4499999993 0 
-1.3999998704 1.5 0 -1.3499998696 1.4499999993 0 -1.3499998696 1.5 0 
-1.2999998689 1.4499999993 0 -1.2999998689 1.5 0 -1.2499998681 1.4499999993 0 
-1.2499998681 1.5 0 -1.1999998674 1.4499999993 0 -1.1999998674 1.5 0 
-1.1499998666 1.4499999993 0 -1.1499998666 1.5 0 -1.0999998659 1.4499999993 0 
-1.0999998659 1.5 0 -1.0499998651 1.4499999993 0 -1.0499998651 1.5 0 
-0.9999998644 1.4499999993 0 -0.9999998644 1.5 0 -0.94999986365 1.4499999993 0 
-0.94999986365 1.5 0 -0.89999986291 1.4499999993 0 -0.89999986291 1.5 0 
-0.84999986216 1.4499999993 0 -0.84999986216 1.5 0 -0.79999986142 1.4499999993 0 
-0.79999986142 1.5 0 -0.74999986067 1.4499999993 0 -0.74999986067 1.5 0 
-0.69999985993 1.4499999993 0 -0.69999985993 1.5 0 -0.64999985918 1.4499999993 0 
-0.64999985918 1.5 0 -0.59999985844 1.4499999993 0 -0.59999985844 1.5 0 
-0.54999985769 1.4499999993 0 -0.54999985769 1.5 0 -0.49999985695 1.4499999993 0 
-0.49999985695 1.5 0 -0.4499998562 1.4499999993 0 -0.4499998562 1.5 0 
-0.39999985546 1.4499999993 0 -0.39999985546 1.5 0 -0.34999985471 1.4499999993 0 
-0.34999985471 1.5 0 -0.29999985397 1.4499999993 0 -0.29999985397 1.5 0 
-0.24999985322 1.4499999993 0 -0.24999985322 1.5 0 -0.191663057 1.4499999993 0 
-0.17548248559 1.5 0 0.18862900414 1.4499999993 0 0.25000015423 1.4499999993 0 
[...]
CELL_DATA 9510
FIELD FieldData 4
Water_Depth_m 1 9510 float
0.344977 0.34493 0.344884 0.344837 0.344792 0.344748 0.344705 0.344663 0.344623 
0.344585 0.344549 0.344515 0.344484 0.344455 0.34443 0.344408 0.344389 0.344375 
0.344364 0.344357 0.344355 0.344358 0.344366 0.344378 0.344396 0.344418 0.344446 
0.344479 0.344517 0.344559 0.344606 0.344657 0.344713 0.344771 0.344833 0.344897 
0.344963 0.345031 0.3451 0.345168 0.345237 0.345305 0.345371 0.345434 0.345496 
0.345554 0.345608 0.345659 0.345705 0.345746 0.345781 0.345811 0.345836 0.345854 
0.345867 0.345873 0.345873 0.345867 0.345854 0.345836 0.345812 0.345782 0.345746 
0.345706 0.34566 0.345611 0.345558 0.345501 0.345441 0.345379 0.345315 0.34525 
0.345183 0.345116 0.345049 0.344981 0.344914 0.344848 0.344783 0.344718 0.344655 
0.344594 0.344533 0.344474 0.344417 0.34436 0.344305 0.344251 0.344196 0.344142 
0.344088 0.344033 0.343976 0.343918 0.343858 0.343795 0.343729 0.343659 0.343585 
0.343508 0.343427 0.343343 0.343255 0.343164 0.343072 0.342978 0.342884 0.342791 
0.3427 0.342612 0.342529 0.34245 0.342377 0.342312 0.342253 0.342201 0.342157 
0.34212 0.34209 0.342065 0.342046 0.342031 0.34202 0.342011 0.342005 0.342 
0.341996 0.341993 0.341992 0.341994 0.341998 0.342008 0.342023 0.342045 0.342076 
0.342114 0.342162 0.342217 0.34228 0.342347 0.342418 0.34249 0.34256 0.342627 
0.342687 0.342741 0.342785 0.342821 0.342846 0.342863 0.34287 0.34287 0.342863 
0.342851 0.342834 0.342813 0.342792 0.342769 0.342747 0.342726 0.342707 0.342689 
0.342674 0.342662 0.342652 0.342644 0.342639 0.342636 0.342635 0.342636 0.342639 
0.342645 0.342652 0.342663 0.342676 0.342693 0.342714 0.342739 0.34277 0.342807 
0.342852 0.342905 0.342967 0.34304 0.343126 0.343226 0.343341 0.343474 0.343626 
0.343798 0.343993 0.344213 0.344457 0.344727 0.345023 0.345347 0.345692 0.346137 
0.349548 0.349914 0.350214 0.350489 0.350738 0.350962 0.351162 0.351341 0.351499 
0.351639 0.351762 0.35187 0.351964 0.352046 0.352117 0.352179 0.352232 0.352277 
0.352316 0.352349 0.352377 0.3524 0.352418 0.352434 0.352446 0.352455 0.352462 
0.352467 0.352469 0.35247 0.35247 0.352468 0.352465 0.352461 0.352456 0.35245 
0.352444 0.352437 0.352429 0.352421 0.352413 0.352405 0.352396 0.352387 0.352378 
0.352368 0.352359 0.352349 0.35234 0.352331 0.352321 0.352312 0.352303 0.352293 
0.352284 0.352275 0.352266 0.352258 0.352249 0.352241 0.352232 0.352224 0.352216 
0.352209 0.352201 0.352194 0.352187 0.35218 0.352173 0.352167 0.35216 0.352154 
0.352149 0.352143 0.352138 0.352132 0.352128 0.352123 0.352118 0.352114 0.35211 
0.352107 0.352103 0.3521 0.352097 0.352094 0.352092 0.352089 0.352087 0.352086 
0.352084 0.352083 0.352082 0.352081 0.35208 0.35208 0.347336 0.344977 0.34493 
0.344883 0.344837 0.344791 0.344747 0.344703 0.344662 0.344621 0.344583 0.344547 
0.344513 0.344481 0.344453 0.344427 0.344405 0.344386 0.344371 0.34436 0.344353 
0.344351 0.344353 0.34436 0.344373 0.34439 0.344413 0.344441 0.344473 0.344511 
0.344554 0.344601 0.344652 0.344708 0.344767 0.344829 0.344893 0.34496 0.345028 
0.345097 0.345167 0.345236 0.345304 0.345371 0.345435 0.345497 0.345556 0.345611 
0.345662 0.345709 0.34575 0.345786 0.345817 0.345842 0.34586 0.345873 0.345879 
0.345879 0.345873 0.34586 0.345842 0.345817 0.345787 0.345751 0.34571 0.345664 
0.345614 0.34556 0.345503 0.345443 0.345381 0.345316 0.34525 0.345183 0.345116 
0.345048 0.344981 0.344913 0.344847 0.344781 0.344717 0.344654 0.344592 0.344532 
0.344473 0.344415 0.344359 0.344304 0.34425 0.344196 0.344142 0.344088 0.344034 
0.343978 0.34392 0.34386 0.343797 0.343731 0.343661 0.343587 0.34351 0.343429 
0.343343 0.343255 0.343164 0.34307 0.342975 0.34288 0.342786 0.342694 0.342606 
0.342521 0.342442 0.342369 0.342303 0.342244 0.342193 0.342149 0.342113 0.342083 
0.342059 0.342041 0.342027 0.342017 0.342009 0.342002 0.341997 0.341993 0.34199 
0.341989 0.341989 0.341993 0.342001 0.342016 0.342037 0.342067 0.342105 0.342153 
0.34221 0.342274 0.342343 0.342416 0.34249 0.342563 0.342631 0.342694 0.342748 
0.342794 0.342829 0.342855 0.342871 0.342878 0.342877 0.342868 0.342854 0.342836 
0.342815 0.342792 0.342768 0.342746 0.342724 0.342704 0.342687 0.342672 0.342659 
0.342649 0.342642 0.342637 0.342634 0.342633 0.342634 0.342637 0.342642 0.34265 
0.34266 0.342673 0.342689 0.342709 0.342734 0.342764 0.3428 0.342844 0.342895 
0.342956 0.343028 0.343112 0.34321 0.343323 0.343454 0.343603 0.343774 0.343967 
0.344183 0.344425 0.344693 0.344989 0.345311 0.345663 0.346095 0.349549 0.349919 
0.350222 0.350498 0.350748 0.350973 0.351174 0.351353 0.35151 0.35165 0.351772 
0.351879 0.351972 0.352054 0.352124 0.352185 0.352238 0.352283 0.352321 0.352353 
0.352381 0.352403 0.352422 0.352437 0.352449 0.352458 0.352464 0.352469 0.352471 
0.352472 0.352471 0.352469 0.352466 0.352462 0.352457 0.352451 0.352445 0.352437 
0.35243 0.352422 0.352414 0.352405 0.352396 0.352387 0.352378 0.352369 0.352359 
0.35235 0.35234 0.352331 0.352321 0.352312 0.352303 0.352293 0.352284 0.352275 
0.352266 0.352258 0.352249 0.352241 0.352232 0.352224 0.352216 0.352209 0.352201 
0.352194 0.352187 0.35218 0.352173 0.352167 0.35216 0.352154 0.352149 0.352143 
0.352138 0.352132 0.352128 0.352123 0.352118 0.352114 0.35211 0.352107 0.352103 
0.3521 0.352097 0.352094 0.352092 0.352089 0.352087 0.352086 0.352084 0.352083 
0.352082 0.352081 0.35208 0.35208 0.347336 0.344977 0.344929 0.344882 0.344835 
0.344789 0.344744 0.344701 0.344658 0.344618 0.344579 0.344542 0.344508 0.344476 
0.344447 0.34442 0.344398 0.344378 0.344363 0.344351 0.344344 0.344341 0.344343 
0.34435 0.344362 0.344379 0.344402 0.344429 0.344462 0.3445 0.344543 0.34459 
0.344642 0.344698 0.344757 0.34482 0.344886 0.344953 0.345023 0.345093 0.345163 
0.345234 0.345303 0.345371 0.345437 0.345501 0.345561 0.345617 0.345669 0.345717 
0.345759 0.345797 0.345828 0.345853 0.345873 0.345885 0.345892 0.345892 0.345885 
0.345872 0.345853 0.345828 0.345797 0.34576 0.345718 0.345672 0.345621 0.345566 
0.345508 0.345447 0.345383 0.345318 0.345251 0.345184 0.345116 0.345047 0.344979 
0.344911 0.344845 0.344779 0.344714 0.344651 0.344589 0.344529 0.34447 0.344413 
0.344357 0.344302 0.344249 0.344195 0.344142 0.344089 0.344035 0.34398 0.343923 
0.343863 0.343801 0.343735 0.343665 0.343592 0.343514 0.343431 0.343345 0.343255 
0.343162 0.343067 0.34297 0.342873 0.342777 0.342683 0.342593 0.342507 0.342426 
0.342353 0.342286 0.342228 0.342177 0.342134 0.342098 0.34207 0.342048 0.342031 
0.342019 0.34201 0.342003 0.341998 0.341993 0.341989 0.341985 0.341982 0.341981 
0.341982 0.341988 0.342 0.342019 0.342048 0.342087 0.342136 0.342195 0.342262 
0.342335 0.342413 0.342491 0.342568 0.342641 0.342706 0.342763 0.342811 0.342847 
0.342873 0.342888 0.342893 0.34289 0.342879 0.342862 0.342841 0.342818 0.342792 
0.342767 0.342743 0.34272 0.342699 0.342682 0.342667 0.342654 0.342644 0.342637 
0.342632 0.342629 0.342629 0.34263 0.342633 0.342638 0.342645 0.342654 0.342666 
0.342681 0.3427 0.342724 0.342752 0.342786 0.342827 0.342877 0.342935 0.343004 
0.343084 0.343178 0.343288 0.343414 0.343559 0.343725 0.343913 0.344125 0.344363 
0.344627 0.344919 0.345239 0.345592 0.34602 0.349552 0.34993 0.350238 0.350518 
0.35077 0.350997 0.351198 0.351376 0.351533 0.351671 0.351792 0.351898 0.35199 
0.35207 0.352139 0.352199 0.35225 0.352294 0.352331 0.352362 0.352389 0.35241 
0.352428 0.352443 0.352454 0.352462 0.352468 0.352472 0.352475 0.352475 0.352474 
0.352472 0.352468 0.352464 0.352459 0.352453 0.352446 0.352439 0.352431 0.352423 
0.352415 0.352406 0.352397 0.352388 0.352378 0.352369 0.35236 0.35235 0.352341 
0.352331 0.352322 0.352312 0.352303 0.352294 0.352284 0.352275 0.352267 0.352258 
0.352249 0.352241 0.352233 0.352224 0.352216 0.352209 0.352201 0.352194 0.352187 
0.35218 0.352173 0.352167 0.35216 0.352154 0.352149 0.352143 0.352138 0.352132 
0.352128 0.352123 0.352118 0.352114 0.35211 0.352107 0.352103 0.3521 0.352097 
0.352094 0.352092 0.352089 0.352087 0.352086 0.352084 0.352083 0.352082 0.352081 
0.35208 0.35208 0.347336 0.344976 0.344928 0.34488 0.344833 0.344787 0.344741 
0.344697 0.344654 0.344612 0.344573 0.344535 0.3445 0.344468 0.344438 0.344411 
0.344387 0.344367 0.344351 0.344339 0.344331 0.344327 0.344328 0.344335 0.344346 
0.344363 0.344385 0.344412 0.344445 0.344483 0.344526 0.344574 0.344626 0.344683 
0.344743 0.344807 0.344874 0.344943 0.345014 0.345086 0.345158 0.345231 0.345302 
0.345372 0.34544 0.345506 0.345568 0.345626 0.34568 0.345729 0.345773 0.345812 
0.345844 0.345871 0.345891 0.345904 0.345911 0.345911 0.345904 0.34589 0.345871 
0.345844 0.345812 0.345774 0.345731 0.345683 0.34563 0.345574 0.345514 0.345452 
0.345387 0.345321 0.345253 0.345184 0.345115 0.345046 0.344977 0.344908 0.344841 
0.344775 0.34471 0.344646 0.344584 0.344524 0.344465 0.344409 0.344353 0.344299 
0.344246 0.344194 0.344142 0.34409 0.344038 0.343984 0.343928 0.343869 0.343807 
0.343742 0.343672 0.343598 0.343519 0.343436 0.343348 0.343255 0.34316 0.343062 
0.342962 0.342862 0.342762 0.342666 0.342572 0.342484 0.342402 0.342327 0.34226 
0.342202 0.342151 0.34211 0.342076 0.34205 0.342031 0.342017 0.342007 0.342001 
0.341996 0.341992 0.341988 0.341983 0.341978 0.341972 0.341968 0.341966 0.341968 
0.341976 0.341993 0.34202 0.342058 0.342109 0.342171 0.342242 0.342322 0.342407 
0.342493 0.342577 0.342656 0.342727 0.342788 0.342837 0.342875 0.3429 0.342913 
0.342916 0.342909 0.342895 0.342874 0.342849 0.342821 0.342793 0.342764 0.342738 
0.342714 0.342692 0.342674 0.342659 0.342646 0.342637 0.34263 0.342626 0.342623 
0.342623 0.342624 0.342626 0.342631 0.342637 0.342646 0.342657 0.34267 0.342687 
0.342708 0.342734 0.342766 0.342804 0.342849 0.342903 0.342967 0.343043 0.343132 
0.343235 0.343355 0.343493 0.343651 0.343832 0.344037 0.344268 0.344526 0.344813 
0.345129 0.345481 0.345911 0.349557 0.349946 0.350262 0.350548 0.350804 0.351032 
0.351234 0.351411 0.351567 0.351704 0.351823 0.351926 0.352016 0.352094 0.352161 
0.352218 0.352268 0.35231 0.352345 0.352375 0.3524 0.352421 0.352438 0.352451 
0.352462 0.352469 0.352475 0.352478 0.35248 0.35248 0.352478 0.352475 0.352472 
0.352467 0.352461 0.352455 0.352448 0.352441 0.352433 0.352425 0.352416 0.352407 
0.352398 0.352389 0.352379 0.35237 0.35236 0.352351 0.352341 0.352332 0.352322 
0.352313 0.352303 0.352294 0.352285 0.352276 0.352267 0.352258 0.352249 0.352241 
0.352233 0.352225 0.352217 0.352209 0.352201 0.352194 0.352187 0.35218 0.352173 
0.352167 0.35216 0.352154 0.352149 0.352143 0.352138 0.352132 0.352128 0.352123 
0.352118 0.352114 0.35211 0.352107 0.352103 0.3521 0.352097 0.352094 0.352092 
0.352089 0.352087 0.352086 0.352084 0.352083 0.352082 0.352081 0.35208 0.35208 
0.347336 0.344976 0.344927 0.344879 0.344831 0.344783 0.344737 0.344692 0.344648 
0.344606 0.344565 0.344527 0.344491 0.344457 0.344427 0.344399 0.344374 0.344353 
0.344336 0.344322 0.344313 0.344309 0.344309 0.344315 0.344325 0.344341 0.344363 
0.34439 0.344423 0.344461 0.344504 0.344552 0.344605 0.344663 0.344725 0.34479 
0.344858 0.344929 0.345002 0.345076 0.345151 0.345226 0.3453 0.345373 0.345444 
0.345512 0.345577 0.345638 0.345694 0.345746 0.345792 0.345832 0.345867 0.345894 
0.345915 0.345929 0.345936 0.345936 0.345929 0.345915 0.345894 0.345866 0.345833 
0.345793 0.345748 0.345698 0.345643 0.345585 0.345523 0.345459 0.345392 0.345324 
0.345255 0.345184 0.345114 0.345044 0.344974 0.344904 0.344836 0.344769 0.344703 
0.34464 0.344578 0.344517 0.344459 0.344403 0.344348 0.344295 0.344243 0.344193 
0.344142 0.344092 0.344041 0.343988 0.343934 0.343877 0.343816 0.343751 0.343682 
0.343607 0.343527 0.343442 0.343351 0.343256 0.343157 0.343055 0.342951 0.342846 
0.342742 0.342642 0.342545 0.342453 0.342369 0.342293 0.342225 0.342166 0.342117 
0.342077 0.342046 0.342023 0.342008 0.341998 0.341992 0.341989 0.341987 0.341985 
0.341982 0.341977 0.341969 0.341961 0.341951 0.341944 0.34194 0.341943 0.341955 
0.341979 0.342017 0.34207 0.342136 0.342215 0.342303 0.342398 0.342495 0.342589 
0.342677 0.342755 0.342822 0.342875 0.342913 0.342938 0.342949 0.342947 0.342936 
0.342916 0.342889 0.342858 0.342825 0.342792 0.34276 0.34273 0.342704 0.342681 
0.342663 0.342647 0.342636 0.342627 0.342621 0.342617 0.342615 0.342615 0.342616 
0.342619 0.342623 0.342628 0.342635 0.342644 0.342656 0.34267 0.342689 0.342711 
0.342739 0.342772 0.342813 0.342862 0.34292 0.342989 0.34307 0.343165 0.343276 
0.343405 0.343553 0.343724 0.343919 0.34414 0.344389 0.344669 0.34498 0.345329 
0.345759 0.349564 0.34997 0.350297 0.350591 0.350851 0.351081 0.351283 0.35146 
0.351613 0.351747 0.351863 0.351964 0.35205 0.352125 0.352189 0.352244 0.352291 
0.352331 0.352365 0.352393 0.352416 0.352435 0.352451 0.352463 0.352472 0.352479 
0.352483 0.352486 0.352486 0.352486 0.352484 0.35248 0.352476 0.352471 0.352465 
0.352458 0.352451 0.352443 0.352435 0.352427 0.352418 0.352409 0.3524 0.35239 
0.352381 0.352371 0.352361 0.352352 0.352342 0.352332 0.352323 0.352313 0.352304 
0.352294 0.352285 0.352276 0.352267 0.352258 0.35225 0.352241 0.352233 0.352225 
0.352217 0.352209 0.352202 0.352194 0.352187 0.35218 0.352173 0.352167 0.352161 
0.352154 0.352149 0.352143 0.352138 0.352133 0.352128 0.352123 0.352119 0.352114 
0.35211 0.352107 0.352103 0.3521 0.352097 0.352094 0.352092 0.352089 0.352087 
0.352086 0.352084 0.352083 0.352082 0.352081 0.35208 0.35208 0.347336 0.344976 
0.344926 0.344877 0.344828 0.344779 0.344732 0.344686 0.344641 0.344597 0.344556 
0.344517 0.34448 0.344445 0.344413 0.344384 0.344358 0.344336 0.344317 0.344302 
0.344292 0.344286 0.344285 0.34429 0.3443 0.344315 0.344336 0.344362 0.344395 
0.344433 0.344476 0.344525 0.344579 0.344638 0.344701 0.344768 0.344838 0.344912 
0.344987 0.345064 0.345142 0.34522 0.345297 0.345374 0.345448 0.345519 0.345588 
0.345652 0.345711 0.345766 0.345815 0.345858 0.345894 0.345923 0.345946 0.34596 
0.345968 0.345968 0.34596 0.345945 0.345923 0.345894 0.345858 0.345816 0.345769 
0.345716 0.345659 0.345598 0.345534 0.345467 0.345398 0.345328 0.345257 0.345185 
0.345113 0.345041 0.344969 0.344899 0.34483 0.344762 0.344696 0.344631 0.344569 
0.344509 0.344451 0.344395 0.344341 0.34429 0.344239 0.34419 0.344142 0.344094 
0.344045 0.343995 0.343942 0.343887 0.343827 0.343764 0.343694 0.343619 0.343538 
0.34345 0.343357 0.343258 0.343154 0.343046 0.342936 0.342826 0.342717 0.34261 
0.342509 0.342414 0.342326 0.342248 0.342179 0.342121 0.342073 0.342035 0.342008 
0.341989 0.341978 0.341974 0.341973 0.341975 0.341978 0.341979 0.341977 0.341971 
0.341961 0.341948 0.341932 0.341916 0.341904 0.341899 0.341905 0.341925 0.341961 
0.342016 0.342088 0.342177 0.342278 0.342386 0.342497 0.342605 0.342705 0.342794 
0.342867 0.342924 0.342964 0.342987 0.342995 0.342988 0.34297 0.342943 0.342908 
0.342869 0.342829 0.34279 0.342753 0.34272 0.342691 0.342667 0.342648 0.342633 
0.342622 0.342614 0.342609 0.342606 0.342605 0.342605 0.342607 0.342609 0.342613 
0.342617 0.342622 0.342629 0.342639 0.34265 0.342665 0.342683 0.342706 0.342734 
0.342769 0.342811 0.342862 0.342922 0.342994 0.343079 0.343179 0.343296 0.343432 
0.343589 0.343771 0.343979 0.344215 0.344484 0.344787 0.345131 0.345561 0.349576 
0.350004 0.350345 0.350647 0.350913 0.351145 0.351346 0.351521 0.351672 0.351802 
0.351914 0.352011 0.352093 0.352164 0.352225 0.352277 0.35232 0.352357 0.352388 
0.352414 0.352435 0.352453 0.352466 0.352477 0.352485 0.35249 0.352493 0.352495 
0.352495 0.352493 0.35249 0.352486 0.352482 0.352476 0.352469 0.352462 0.352455 
0.352447 0.352438 0.352429 0.35242 0.352411 0.352401 0.352392 0.352382 0.352372 
0.352363 0.352353 0.352343 0.352333 0.352324 0.352314 0.352305 0.352295 0.352286 
0.352277 0.352268 0.352259 0.35225 0.352242 0.352233 0.352225 0.352217 0.352209 
0.352202 0.352194 0.352187 0.35218 0.352173 0.352167 0.352161 0.352155 0.352149 
0.352143 0.352138 0.352133 0.352128 0.352123 0.352119 0.352114 0.35211 0.352107 
0.352103 0.3521 0.352097 0.352094 0.352092 0.352089 0.352087 0.352086 0.352084 
0.352083 0.352082 0.352081 0.35208 0.35208 0.347336 0.344976 0.344925 0.344874 
0.344824 0.344775 0.344726 0.344678 0.344632 0.344588 0.344545 0.344505 0.344467 
0.344431 0.344397 0.344367 0.34434 0.344316 0.344296 0.344279 0.344267 0.34426 
0.344258 0.344261 0.344269 0.344283 0.344304 0.34433 0.344362 0.3444 0.344443 
0.344493 0.344548 0.344608 0.344673 0.344742 0.344814 0.34489 0.344969 0.345049 
0.34513 0.345212 0.345293 0.345374 0.345452 0.345528 0.3456 0.345668 0.345732 
0.34579 0.345842 0.345888 0.345927 0.345959 0.345982 0.345998 0.346006 0.346006 
0.345998 0.345982 0.345958 0.345927 0.345889 0.345845 0.345794 0.345738 0.345678 
0.345614 0.345547 0.345477 0.345405 0.345332 0.345259 0.345184 0.34511 0.345037 
0.344964 0.344892 0.344822 0.344753 0.344686 0.344621 0.344558 0.344498 0.34444 
0.344385 0.344333 0.344282 0.344234 0.344187 0.344141 0.344096 0.34405 0.344002 
0.343952 0.343899 0.343842 0.343779 0.34371 0.343635 0.343552 0.343461 0.343364 
0.34326 0.34315 0.343036 0.342919 0.342801 0.342685 0.342571 0.342464 0.342364 
0.342272 0.342191 0.342122 0.342064 0.342018 0.341984 0.341961 0.341948 0.341943 
0.341946 0.341952 0.341961 0.341969 0.341974 0.341974 0.341968 0.341954 0.341935 
0.34191 0.341884 0.34186 0.341844 0.34184 0.341853 0.341887 0.341944 0.342024 
0.342125 0.342243 0.342371 0.342501 0.342627 0.342743 0.342844 0.342927 0.342989 
0.34303 0.343051 0.343053 0.34304 0.343012 0.342975 0.34293 0.342881 0.342832 
0.342785 0.342742 0.342704 0.342673 0.342648 0.342629 0.342615 0.342605 0.342598 
0.342595 0.342594 0.342594 0.342595 0.342597 0.342599 0.342602 0.342605 0.342608 
0.342613 0.342619 0.342627 0.342637 0.342651 0.342668 0.342691 0.342718 0.342752 
0.342794 0.342845 0.342906 0.342979 0.343065 0.343167 0.343287 0.343428 0.343593 
0.343784 0.344004 0.344258 0.344547 0.344882 0.345308 0.349596 0.350051 0.350408 
0.350721 0.350991 0.351225 0.351425 0.351596 0.351743 0.351868 0.351975 0.352067 
0.352145 0.352211 0.352267 0.352315 0.352355 0.352389 0.352416 0.352439 0.352458 
0.352473 0.352485 0.352493 0.352499 0.352503 0.352505 0.352506 0.352504 0.352502 
0.352498 0.352493 0.352488 0.352482 0.352474 0.352467 0.352459 0.35245 0.352441 
0.352432 0.352423 0.352413 0.352404 0.352394 0.352384 0.352374 0.352364 0.352354 
0.352344 0.352334 0.352325 0.352315 0.352305 0.352296 0.352286 0.352277 0.352268 
0.352259 0.35225 0.352242 0.352234 0.352225 0.352217 0.35221 0.352202 0.352194 
0.352187 0.35218 0.352174 0.352167 0.352161 0.352155 0.352149 0.352143 0.352138 
0.352133 0.352128 0.352123 0.352119 0.352114 0.35211 0.352107 0.352103 0.3521 
0.352097 0.352094 0.352092 0.352089 0.352087 0.352086 0.352084 0.352083 0.352082 
0.352081 0.35208 0.35208 0.347336 0.344975 0.344923 0.344871 0.344819 0.344768 
0.344718 0.34467 0.344622 0.344577 0.344533 0.344491 0.344452 0.344415 0.34438 
0.344348 0.344319 0.344294 0.344272 0.344254 0.34424 0.344231 0.344227 0.344228 
0.344235 0.344248 0.344267 0.344292 0.344324 0.344361 0.344405 0.344456 0.344511 
0.344573 0.344639 0.34471 0.344786 0.344865 0.344947 0.345031 0.345116 0.345202 
0.345288 0.345373 0.345456 0.345537 0.345614 0.345687 0.345755 0.345818 0.345874 
0.345923 0.345965 0.345999 0.346025 0.346042 0.34605 0.34605 0.346041 0.346024 
0.345999 0.345966 0.345925 0.345877 0.345823 0.345764 0.3457 0.345632 0.345561 
0.345488 0.345413 0.345337 0.34526 0.345184 0.345108 0.345032 0.344958 0.344884 
0.344812 0.344742 0.344674 0.344608 0.344545 0.344485 0.344427 0.344373 0.344322 
0.344273 0.344227 0.344182 0.34414 0.344097 0.344055 0.344011 0.343965 0.343915 
0.34386 0.343799 0.34373 0.343654 0.343569 0.343476 0.343374 0.343263 0.343146 
0.343024 0.342898 0.342771 0.342645 0.342524 0.342409 0.342302 0.342207 0.342123 
0.342052 0.341995 0.341951 0.341921 0.341903 0.341898 0.341902 0.341913 0.341929 
0.341946 0.341962 0.341973 0.341976 0.341969 0.341952 0.341924 0.341887 0.341846 
0.341806 0.341774 0.341756 0.34176 0.34179 0.341849 0.341939 0.342058 0.342199 
0.342352 0.342508 0.342657 0.342793 0.34291 0.343003 0.34307 0.343112 0.343129 