# vtk DataFile Version 5.1
vtk output
ASCII
DATASET UNSTRUCTURED_GRID
POINTS 10043 double
-10.1 1.4499999993 -2.1070103173e-07 -10.049999999 1.4499999993 -1.1911856035e-07 -10.049999999 1.5 4.3043814912e-07 
-9.9999999985 1.4499999993 -8.3775596238e-08 -9.9999999985 1.5 3.1405920708e-07 -9.9499999978 1.4499999993 -6.6266004239e-08 
-9.9499999978 1.5 2.5035637918e-07 -9.899999997 1.4499999993 -5.5230191975e-08 -9.899999997 1.5 2.0955282309e-07 
-9.8499999963 1.4499999993 -4.7554056692e-08 -9.8499999963 1.5 1.8083798636e-07 -9.7999999955 1.4499999993 -4.1867895817e-08 
-9.7999999955 1.5 1.5949423471e-07 -9.7499999948 1.4499999993 -3.7516873164e-08 -9.7499999948 1.5 1.4295598305e-07 
-9.699999994 1.4499999993 -3.4017137551e-08 -9.699999994 1.5 1.297810428e-07 -9.6499999933 1.4499999993 -3.1265006584e-08 
-9.6499999933 1.5 1.1901625641e-07 -9.5999999925 1.4499999993 -2.8843933464e-08 -9.5999999925 1.5 1.1007592349e-07 
-9.5499999918 1.4499999993 -2.6899433792e-08 -9.5499999918 1.5 1.0257804917e-07 -9.4999999911 1.4499999993 -2.5180488805e-08 
-9.4999999911 1.5 9.6186120402e-08 -9.4499999903 1.4499999993 -2.3807151805e-08 -9.4499999903 1.5 9.070368634e-08 
-9.3999999896 1.4499999993 -2.2492022467e-08 -9.3999999896 1.5 8.6043435488e-08 -9.3499999888 1.4499999993 -2.1549785956e-08 
-9.3499999888 1.5 8.195070933e-08 -9.2999999881 1.4499999993 -2.0540246837e-08 -9.2999999881 1.5 7.8447335738e-08 
-9.2499999873 1.4499999993 -1.9789004213e-08 -9.2499999873 1.5 7.5247733378e-08 -9.1999999866 1.4499999993 -1.891407031e-08 
-9.1999999866 1.5 7.2597678979e-08 -9.1499999858 1.4499999993 -1.8413848224e-08 -9.1499999858 1.5 7.0223684645e-08 
-9.0999999851 1.4499999993 -1.7853599488e-08 -9.0999999851 1.5 6.8106380979e-08 -9.0499999844 1.4499999993 -1.7407947084e-08 
-9.0499999844 1.5 6.6205537053e-08 -8.9999999836 1.4499999993 -1.6925914892e-08 -8.9999999836 1.5 6.4721241699e-08 
-8.9499999829 1.4499999993 -1.6556660043e-08 -8.9499999829 1.5 6.3280602092e-08 -8.8999999821 1.4499999993 -1.6285630622e-08 
-8.8999999821 1.5 6.2025499403e-08 -8.8499999814 1.4499999993 -1.6032791095e-08 -8.8499999814 1.5 6.1065072998e-08 
-8.7999999806 1.4499999993 -1.5769037631e-08 -8.7999999806 1.5 6.0141026381e-08 -8.7499999799 1.4499999993 -1.562169949e-08 
-8.7499999799 1.5 5.9438900024e-08 -8.6999999791 1.4499999993 -1.549800821e-08 -8.6999999791 1.5 5.9169689592e-08 
-8.6499999784 1.4499999993 -1.5474361348e-08 -8.6499999784 1.5 5.8638544687e-08 -8.5999999776 1.4499999993 -1.5290643418e-08 
-8.5999999776 1.5 5.8269289838e-08 -8.5499999769 1.4499999993 -1.5239711715e-08 -8.5499999769 1.5 5.8041916162e-08 
-8.4999999762 1.4499999993 -1.5139667298e-08 -8.4999999762 1.5 5.7867293179e-08 -8.4499999754 1.4499999993 -1.5177866075e-08 
-8.4499999754 1.5 5.7792714614e-08 -8.3999999747 1.4499999993 -1.5170590117e-08 -8.3999999747 1.5 5.7809085519e-08 
-8.3499999739 1.4499999993 -1.5145124266e-08 -8.3499999739 1.5 5.7954604671e-08 -8.2999999732 1.4499999993 -1.5181504054e-08 
-8.2999999732 1.5 5.8236548028e-08 -8.2499999724 1.4499999993 -1.5394325814e-08 -8.2499999724 1.5 5.8603983888e-08 
-8.1999999717 1.4499999993 -1.5403420761e-08 -8.1999999717 1.5 5.8976940664e-08 -8.1499999709 1.4499999993 -1.5668993214e-08 
-8.1499999709 1.5 5.9471641833e-08 -8.0999999702 1.4499999993 -1.5759942684e-08 -8.0999999702 1.5 6.0131931434e-08 
-8.0499999695 1.4499999993 -1.6014601201e-08 -8.0499999695 1.5 6.0714008043e-08 -7.9999999687 1.4499999993 -1.6185586205e-08 
-7.9999999687 1.5 6.1479802582e-08 -7.949999968 1.4499999993 -1.6356571209e-08 -7.949999968 1.5 6.2272881962e-08 
-7.8999999672 1.4499999993 -1.653665116e-08 -7.8999999672 1.5 6.3216937463e-08 -7.8499999665 1.4499999993 -1.6826779969e-08 
-7.8499999665 1.5 6.4253761423e-08 -7.7999999657 1.4499999993 -1.7117818274e-08 -7.7999999657 1.5 6.5393358284e-08 
-7.749999965 1.4499999993 -1.7407947084e-08 -7.749999965 1.5 6.6563877965e-08 -7.6999999642 1.4499999993 -1.7789025364e-08 
-7.6999999642 1.5 6.7835351558e-08 -7.6499999635 1.4499999993 -1.8100982047e-08 -7.6499999635 1.5 6.9121377066e-08 
-7.5999999627 1.4499999993 -1.8465689422e-08 -7.5999999627 1.5 7.0629319282e-08 -7.549999962 1.4499999993 -1.8919527278e-08 
-7.549999962 1.5 7.212467068e-08 -7.4999999613 1.4499999993 -1.937245564e-08 -7.4999999613 1.5 7.3742519646e-08 
-7.4499999605 1.4499999993 -1.9744438973e-08 -7.4499999605 1.5 7.5435998781e-08 -7.3999999598 1.4499999993 -2.0252846511e-08 
-7.3999999598 1.5 7.7240436269e-08 -7.349999959 1.4499999993 -2.0665757106e-08 -7.349999959 1.5 7.9170384026e-08 
-7.2999999583 1.4499999993 -2.1272390072e-08 -7.2999999583 1.5 8.1097603299e-08 -7.2499999575 1.4499999993 -2.1798078009e-08 
-7.2499999575 1.5 8.3190350608e-08 -7.1999999568 1.4499999993 -2.2385611587e-08 -7.1999999568 1.5 8.5406789196e-08 
-7.149999956 1.4499999993 -2.3023167373e-08 -7.149999956 1.5 8.769962534e-08 -7.0999999553 1.4499999993 -2.3301472751e-08 
-7.0999999553 1.5 8.8875601989e-08 -7.0499999546 1.4499999993 -2.3889915823e-08 -7.0499999546 1.5 9.1324871221e-08 
-6.9999999538 1.4499999993 -2.4578403313e-08 -6.9999999538 1.5 9.3878732343e-08 -6.9499999531 1.4499999993 -2.5275076254e-08 
-6.9499999531 1.5 9.6594483523e-08 -6.8999999523 1.4499999993 -2.600358151e-08 -6.8999999523 1.5 9.9355709438e-08 
-6.8499999516 1.4499999993 -2.6782108975e-08 -6.8499999516 1.5 1.0233339509e-07 -6.7999999508 1.4499999993 -2.7596106733e-08 
-6.7999999508 1.5 1.0532563266e-07 -6.7499999501 1.4499999993 -2.8370996219e-08 -6.7499999501 1.5 1.0843792353e-07 
-6.6999999493 1.4499999993 -2.9272305468e-08 -6.6999999493 1.5 1.1173302283e-07 -6.6499999486 1.4499999993 -3.0166336984e-08 
-6.6499999486 1.5 1.151718223e-07 -6.5999999478 1.4499999993 -3.1115849453e-08 -6.5999999478 1.5 1.1873158456e-07 
-6.5499999471 1.4499999993 -3.2104470193e-08 -6.5499999471 1.5 1.2244598224e-07 -6.4999999464 1.4499999993 -3.3069444072e-08 
-6.4999999464 1.5 1.2629949708e-07 -6.4499999456 1.4499999993 -3.4128095905e-08 -6.4499999456 1.5 1.3026671297e-07 
-6.3999999449 1.4499999993 -3.5209485105e-08 -6.3999999449 1.5 1.3439127144e-07 -6.3499999441 1.4499999993 -3.629360279e-08 
-6.3499999441 1.5 1.386904529e-07 -6.2999999434 1.4499999993 -3.7535063058e-08 -6.2999999434 1.5 1.4313060603e-07 
-6.2499999426 1.4499999993 -3.8707401728e-08 -6.2499999426 1.5 1.4773264922e-07 -6.1999999419 1.4499999993 -3.9946133512e-08 
-6.1999999419 1.5 1.5253478125e-07 -6.1499999411 1.4499999993 -4.1259443861e-08 -6.1499999411 1.5 1.5743877668e-07 
-6.0999999404 1.4499999993 -4.2600948547e-08 -6.0999999404 1.5 1.6250193369e-07 -6.0499999397 1.4499999993 -4.3930629801e-08 
-6.0499999397 1.5 1.6777700296e-07 -5.9999999389 1.4499999993 -4.5307604779e-08 -5.9999999389 1.5 1.7320941481e-07 
-5.9499999382 1.4499999993 -4.6796902353e-08 -5.9499999382 1.5 1.7871367675e-07 -5.8999999374 1.4499999993 -4.8291202148e-08 
-5.8999999374 1.5 1.8446786498e-07 -5.8499999367 1.4499999993 -4.9846438088e-08 -5.8499999367 1.5 1.9035066146e-07 
-5.7999999359 1.4499999993 -5.1439418058e-08 -5.7999999359 1.5 1.9635287174e-07 -5.7499999352 1.4499999993 -5.3058773375e-08 
-5.7499999352 1.5 2.0249059673e-07 -5.6999999344 1.4499999993 -5.4661757787e-08 -5.6999999344 1.5 2.0872882089e-07 
-5.6499999337 1.4499999993 -5.6370243584e-08 -5.6499999337 1.5 2.1512302339e-07 -5.5999999329 1.4499999993 -5.802052172e-08 
-5.5999999329 1.5 2.2156906709e-07 -5.5499999322 1.4499999993 -5.8888179666e-08 -5.5499999322 1.5 2.2479423478e-07 
-5.4999999315 1.4499999993 -6.0567110438e-08 -5.4999999315 1.5 2.313188503e-07 -5.4499999307 1.4499999993 -6.2298333603e-08 
-5.4499999307 1.5 2.3778626712e-07 -5.39999993 1.4499999993 -6.396907537e-08 -5.39999993 1.5 2.442677669e-07 
-5.3499999292 1.4499999993 -6.5615715528e-08 -5.3499999292 1.5 2.5060649023e-07 -5.2999999285 1.4499999993 -6.7274633864e-08 
-5.2999999285 1.5 2.5678696147e-07 -5.2499999277 1.4499999993 -6.8788487795e-08 -5.2499999277 1.5 2.6268457987e-07 
-5.199999927 1.4499999993 -7.0209573266e-08 -5.199999927 1.5 2.6822067412e-07 -5.1499999262 1.4499999993 -7.1546530478e-08 
-5.1499999262 1.5 2.7326200325e-07 -5.0999999255 1.4499999993 -7.2701588749e-08 -5.0999999255 1.5 2.7761257115e-07 
-5.0499999247 1.4499999993 -7.3616540419e-08 -5.0499999247 1.5 2.8115050554e-07 -4.999999924 1.4499999993 -7.4270012362e-08 
-4.999999924 1.5 2.8361705517e-07 -4.9499999233 1.4499999993 -7.453649431e-08 -4.9499999233 1.5 2.8467252378e-07 
-4.8999999225 1.4499999993 -7.4355959612e-08 -4.8999999225 1.5 2.8400407359e-07 -4.8499999218 1.4499999993 -7.3602897999e-08 
-4.8499999218 1.5 2.8115687201e-07 -4.799999921 1.4499999993 -7.2127242845e-08 -4.799999921 1.5 2.7559713089e-07 
-4.7499999203 1.4499999993 -6.9775289546e-08 -4.7499999203 1.5 2.6659995456e-07 -4.6999999195 1.4499999993 -6.6284194133e-08 
-4.6999999195 1.5 2.5336498766e-07 -4.6499999188 1.4499999993 -6.1390203143e-08 -4.6499999188 1.5 2.3474173361e-07 
-4.599999918 1.4499999993 -5.4708596764e-08 -4.599999918 1.5 2.0939911849e-07 -4.5499999173 1.4499999993 -4.5817831307e-08 
-4.5499999173 1.5 1.7560229537e-07 -4.4999999166 1.4499999993 -3.4077618949e-08 -4.4999999166 1.5 1.3107434427e-07 
-4.4499999158 1.4499999993 -1.8797427614e-08 -4.4499999158 1.5 7.286121928e-08 -4.3999999151 1.4499999993 1.1323300075e-09 
-4.3999999151 1.5 -2.8014619513e-09 -4.3499999143 1.4499999993 2.7004952941e-08 -4.3499999143 1.5 -1.0104462689e-07 
-4.2999999136 1.4499999993 6.067171654e-08 -4.2999999136 1.5 -2.2876655237e-07 -4.2499999128 1.4499999993 1.0456734145e-07 
-4.2499999128 1.5 -3.9525232864e-07 -4.1999999121 1.4499999993 1.6216246479e-07 -4.1999999121 1.5 -6.1355785874e-07 
-4.1499999113 1.4499999993 2.3839790231e-07 -4.1499999113 1.5 -9.0212120085e-07 -4.0999999106 1.4499999993 3.403890787e-07 
-4.0999999106 1.5 -1.2877328572e-06 -4.0499999098 1.4499999993 4.7886487664e-07 -4.0499999098 1.5 -1.8103603452e-06 
-3.9999999091 1.4499999993 6.7041332841e-07 -3.9999999091 1.5 -2.5316787742e-06 -3.9499999084 1.4499999993 7.9389110397e-07 
[...]
CELL_DATA 9510
FIELD FieldData 4
Water_Depth_m 1 9510 float
0.639982 0.639946 0.63991 0.639875 0.639842 0.63981 0.639782 0.639757 0.639735 
0.639717 0.639703 0.639695 0.639691 0.639692 0.639699 0.63971 0.639727 0.639748 
0.639774 0.639804 0.639838 0.639875 0.639914 0.639955 0.639998 0.640041 0.640085 
0.640129 0.640172 0.640214 0.640255 0.640293 0.640329 0.640363 0.640395 0.640423 
0.640448 0.64047 0.640489 0.640505 0.640518 0.640527 0.640533 0.640537 0.640537 
0.640533 0.640527 0.640518 0.640506 0.64049 0.640472 0.64045 0.640425 0.640397 
0.640364 0.640329 0.640289 0.640245 0.640196 0.640143 0.640084 0.64002 0.63995 
0.639874 0.639791 0.639702 0.639607 0.639505 0.639398 0.639286 0.63917 0.639053 
0.638935 0.63882 0.63871 0.638608 0.638517 0.63844 0.638379 0.638337 0.638315 
0.638314 0.638334 0.638374 0.638432 0.638506 0.638593 0.638691 0.638796 0.638904 
0.639014 0.639123 0.639229 0.639329 0.639424 0.639511 0.63959 0.639661 0.639723 
0.639777 0.639823 0.639862 0.639893 0.639917 0.639935 0.639947 0.639954 0.639957 
0.639956 0.639952 0.639945 0.639936 0.639926 0.639915 0.639904 0.639895 0.639887 
0.639881 0.639878 0.63988 0.639887 0.639899 0.639918 0.639944 0.639979 0.640022 
0.640076 0.640142 0.640226 0.640363 0.640647 0.640579 0.635115 0.621727 0.602185 
0.578157 0.550937 0.521646 0.491328 0.460979 0.43212 0.405644 0.382621 0.364612 
0.35358 0.351823 0.351935 0.352037 0.35213 0.352213 0.352288 0.352355 0.352415 
0.35247 0.35252 0.352569 0.352618 0.352669 0.352795 0.352402 0.345392 0.32227 
0.304927 0.305284 0.309831 0.313964 0.317276 0.319862 0.321269 0.323817 0.328363 
0.333185 0.33718 0.340988 0.344335 0.349707 0.35476 0.359494 0.366429 0.369952 
0.376312 0.38502 0.390525 0.39872 0.406663 0.411663 0.41689 0.424177 0.433516 
0.44056 0.441834 0.443954 0.448969 0.455929 0.462254 0.471905 0.476828 0.47814 
0.423267 0.404028 0.381899 0.367614 0.366582 0.366587 0.366207 0.363923 0.3605 
0.359627 0.359576 0.35623 0.353422 0.353453 0.353479 0.353503 0.353525 0.353547 
0.353567 0.353586 0.353604 0.353619 0.353633 0.353646 0.353657 0.353667 0.353676 
0.353683 0.353689 0.353694 0.353698 0.353701 0.353704 0.353706 0.353707 0.353708 
0.353708 0.353707 0.353707 0.353706 0.353705 0.353703 0.353701 0.3537 0.353697 
0.353695 0.353693 0.353691 0.353688 0.353686 0.353684 0.353681 0.353679 0.353677 
0.353675 0.353672 0.35367 0.353668 0.353666 0.353664 0.353663 0.353661 0.353659 
0.353658 0.353657 0.353655 0.353654 0.353654 0.353653 0.353652 0.353652 0.353651 
0.353651 0.353651 0.353651 0.353651 0.353652 0.353652 0.353653 0.353654 0.353655 
0.353656 0.353658 0.353659 0.353661 0.353663 0.353665 0.353667 0.353669 0.353672 
0.353674 0.353677 0.35368 0.353683 0.353687 0.35369 0.34872 0.639982 0.639945 
0.639908 0.639873 0.639839 0.639808 0.639779 0.639753 0.639731 0.639713 0.639699 
0.63969 0.639686 0.639687 0.639693 0.639705 0.639722 0.639743 0.639769 0.639799 
0.639833 0.63987 0.63991 0.639951 0.639994 0.640038 0.640083 0.640127 0.64017 
0.640213 0.640254 0.640293 0.640329 0.640363 0.640395 0.640424 0.640449 0.640472 
0.640491 0.640507 0.64052 0.64053 0.640536 0.640539 0.640539 0.640536 0.64053 
0.640521 0.640509 0.640494 0.640475 0.640453 0.640428 0.640399 0.640367 0.640331 
0.640291 0.640247 0.640198 0.640144 0.640085 0.64002 0.639949 0.639872 0.639789 
0.639699 0.639602 0.639499 0.63939 0.639277 0.63916 0.63904 0.638921 0.638804 
0.638692 0.638589 0.638496 0.638418 0.638357 0.638315 0.638294 0.638294 0.638314 
0.638355 0.638415 0.638491 0.63858 0.63868 0.638787 0.638898 0.639009 0.63912 
0.639227 0.639329 0.639424 0.639512 0.639592 0.639663 0.639726 0.639781 0.639827 
0.639865 0.639896 0.639921 0.639938 0.639951 0.639958 0.63996 0.639959 0.639954 
0.639946 0.639937 0.639926 0.639915 0.639903 0.639893 0.639884 0.639877 0.639874 
0.639874 0.639879 0.639891 0.639908 0.639932 0.639964 0.640005 0.640053 0.640111 
0.640178 0.640254 0.640369 0.640371 0.635467 0.622766 0.603675 0.579755 0.552375 
0.522752 0.491997 0.461121 0.431431 0.404121 0.380717 0.363039 0.353252 0.351853 
0.351957 0.352052 0.352143 0.352226 0.352301 0.352367 0.352427 0.352481 0.352532 
0.352581 0.352631 0.352684 0.352976 0.352576 0.343829 0.315063 0.296378 0.303238 
0.306259 0.309038 0.312831 0.317848 0.32254 0.327988 0.332275 0.33775 0.342909 
0.349355 0.355276 0.361181 0.365964 0.372052 0.378283 0.385739 0.392583 0.399649 
0.4073 0.415061 0.422187 0.428509 0.434655 0.442051 0.451094 0.458281 0.458588 
0.454953 0.469427 0.480618 0.48676 0.4946 0.501924 0.50262 0.445162 0.431931 
0.407857 0.380045 0.369731 0.367553 0.366494 0.364627 0.360768 0.360126 0.360052 
0.356268 0.353394 0.353423 0.353452 0.353479 0.353505 0.35353 0.353552 0.353573 
0.353592 0.353609 0.353624 0.353638 0.35365 0.35366 0.353669 0.353677 0.353683 
0.353689 0.353693 0.353697 0.3537 0.353702 0.353703 0.353704 0.353704 0.353704 
0.353704 0.353703 0.353702 0.3537 0.353699 0.353697 0.353695 0.353693 0.353691 
0.353689 0.353687 0.353684 0.353682 0.35368 0.353677 0.353675 0.353673 0.353671 
0.353669 0.353667 0.353665 0.353663 0.353661 0.35366 0.353658 0.353657 0.353656 
0.353654 0.353653 0.353652 0.353652 0.353651 0.353651 0.35365 0.35365 0.35365 
0.35365 0.353651 0.353651 0.353652 0.353652 0.353653 0.353654 0.353655 0.353657 
0.353658 0.35366 0.353662 0.353664 0.353666 0.353668 0.353671 0.353674 0.353676 
0.353679 0.353683 0.353686 0.353689 0.348718 0.639981 0.639943 0.639906 0.63987 
0.639835 0.639802 0.639773 0.639746 0.639723 0.639704 0.639689 0.63968 0.639675 
0.639676 0.639682 0.639694 0.639711 0.639732 0.639759 0.639789 0.639824 0.639861 
0.639901 0.639944 0.639988 0.640032 0.640078 0.640123 0.640167 0.64021 0.640252 
0.640291 0.640329 0.640364 0.640396 0.640425 0.640451 0.640474 0.640494 0.640511 
0.640524 0.640534 0.640541 0.640544 0.640545 0.640542 0.640536 0.640527 0.640515 
0.6405 0.640481 0.640459 0.640434 0.640405 0.640373 0.640336 0.640295 0.64025 
0.640201 0.640146 0.640086 0.64002 0.639947 0.639869 0.639784 0.639691 0.639592 
0.639487 0.639375 0.639258 0.639138 0.639015 0.638892 0.638771 0.638656 0.63855 
0.638455 0.638375 0.638313 0.63827 0.63825 0.638251 0.638274 0.638317 0.63838 
0.63846 0.638554 0.638658 0.638769 0.638884 0.639 0.639114 0.639224 0.639328 
0.639425 0.639515 0.639596 0.639669 0.639733 0.639788 0.639834 0.639873 0.639904 
0.639928 0.639946 0.639957 0.639964 0.639966 0.639964 0.639958 0.639949 0.639939 
0.639927 0.639914 0.639901 0.639889 0.639879 0.63987 0.639865 0.639864 0.639868 
0.639877 0.639893 0.639916 0.639947 0.639986 0.640034 0.640092 0.640159 0.640239 
0.640401 0.640353 0.635601 0.623247 0.604485 0.580726 0.553316 0.5235 0.492437 
0.461208 0.431097 0.403431 0.379962 0.362602 0.353202 0.351841 0.351957 0.35206 
0.352153 0.352235 0.352307 0.352371 0.352427 0.352476 0.35252 0.35256 0.352597 
0.352635 0.352906 0.352502 0.344521 0.317798 0.304192 0.312056 0.315694 0.318216 
0.321812 0.326396 0.331666 0.337198 0.342767 0.348518 0.354298 0.360506 0.366664 
0.372176 0.37601 0.381367 0.389661 0.398339 0.405347 0.412003 0.419593 0.428011 
0.436452 0.444569 0.450808 0.45685 0.464557 0.469899 0.473154 0.478429 0.488403 
0.502965 0.506205 0.511731 0.514539 0.514177 0.45755 0.446434 0.432377 0.408542 
0.383189 0.368245 0.366556 0.365797 0.362314 0.360937 0.36087 0.356776 0.353393 
0.353424 0.353454 0.353482 0.353509 0.353534 0.353556 0.353577 0.353596 0.353613 
0.353628 0.353641 0.353653 0.353663 0.353672 0.35368 0.353686 0.353691 0.353695 
0.353699 0.353702 0.353703 0.353705 0.353705 0.353706 0.353705 0.353705 0.353704 
0.353703 0.353701 0.3537 0.353698 0.353696 0.353694 0.353691 0.353689 0.353687 
0.353685 0.353682 0.35368 0.353678 0.353675 0.353673 0.353671 0.353669 0.353667 
0.353665 0.353663 0.353661 0.35366 0.353658 0.353657 0.353656 0.353654 0.353653 
0.353653 0.353652 0.353651 0.353651 0.35365 0.35365 0.35365 0.35365 0.353651 
0.353651 0.353652 0.353652 0.353653 0.353654 0.353655 0.353657 0.353658 0.35366 
0.353662 0.353664 0.353666 0.353668 0.353671 0.353674 0.353676 0.353679 0.353683 
0.353686 0.353689 0.348718 0.63998 0.639941 0.639902 0.639865 0.639829 0.639795 
0.639763 0.639735 0.639711 0.639691 0.639675 0.639665 0.63966 0.63966 0.639666 
0.639678 0.639695 0.639717 0.639743 0.639775 0.63981 0.639848 0.639889 0.639933 
0.639978 0.640024 0.64007 0.640116 0.640162 0.640206 0.640249 0.64029 0.640328 
0.640364 0.640398 0.640428 0.640455 0.640479 0.640499 0.640517 0.64053 0.640541 
0.640548 0.640552 0.640553 0.640551 0.640545 0.640536 0.640524 0.640509 0.64049 
0.640468 0.640443 0.640414 0.640381 0.640344 0.640302 0.640256 0.640205 0.640149 
0.640087 0.640019 0.639945 0.639864 0.639776 0.63968 0.639577 0.639468 0.639352 
0.63923 0.639104 0.638976 0.638847 0.638721 0.6386 0.638489 0.63839 0.638307 
0.638243 0.638201 0.638181 0.638185 0.638212 0.638259 0.638328 0.638415 0.638516 
0.638627 0.638744 0.638865 0.638987 0.639105 0.63922 0.639328 0.639428 0.639521 
0.639604 0.639678 0.639743 0.639799 0.639846 0.639885 0.639916 0.63994 0.639957 
0.639968 0.639974 0.639975 0.639971 0.639965 0.639955 0.639942 0.639928 0.639914 
0.639899 0.639884 0.639871 0.639861 0.639853 0.639849 0.63985 0.639857 0.639871 
0.639891 0.63992 0.639957 0.640003 0.640059 0.640124 0.640199 0.640356 0.640322 
0.635641 0.623463 0.604902 0.581272 0.553873 0.523952 0.492697 0.461259 0.430932 
0.403152 0.379716 0.362505 0.353234 0.351873 0.351988 0.35209 0.35218 0.35226 
0.35233 0.352391 0.352444 0.35249 0.352529 0.352563 0.352591 0.352614 0.352829 
0.352422 0.345542 0.32315 0.312375 0.320237 0.323665 0.326417 0.330131 0.334216 
0.33865 0.343666 0.349837 0.356379 0.361782 0.367607 0.373766 0.379295 0.38306 
0.388257 0.397408 0.407333 0.413963 0.420933 0.428499 0.43739 0.447355 0.456567 
0.46417 0.470736 0.475302 0.481251 0.48698 0.495263 0.49994 0.505927 0.512053 
0.519093 0.522721 0.52553 0.477711 0.460604 0.447487 0.430303 0.406688 0.37963 
0.36741 0.366005 0.363227 0.362196 0.362103 0.357114 0.35339 0.353423 0.353455 
0.353484 0.353512 0.353537 0.35356 0.353581 0.3536 0.353617 0.353632 0.353645 
0.353657 0.353667 0.353675 0.353683 0.353689 0.353694 0.353698 0.353701 0.353704 
0.353705 0.353706 0.353707 0.353707 0.353707 0.353706 0.353705 0.353704 0.353702 
0.3537 0.353698 0.353696 0.353694 0.353692 0.35369 0.353687 0.353685 0.353683 
0.35368 0.353678 0.353676 0.353673 0.353671 0.353669 0.353667 0.353665 0.353663 
0.353661 0.35366 0.353658 0.353657 0.353656 0.353654 0.353653 0.353653 0.353652 
0.353651 0.353651 0.35365 0.35365 0.35365 0.35365 0.353651 0.353651 0.353652 
0.353652 0.353653 0.353654 0.353655 0.353657 0.353658 0.35366 0.353662 0.353664 
0.353666 0.353668 0.353671 0.353674 0.353676 0.353679 0.353683 0.353686 0.353689 
0.348718 0.63998 0.639938 0.639898 0.639858 0.63982 0.639784 0.639751 0.639722 
0.639696 0.639674 0.639658 0.639646 0.63964 0.63964 0.639645 0.639657 0.639674 
0.639696 0.639724 0.639756 0.639792 0.639831 0.639874 0.639919 0.639965 0.640013 
0.640061 0.640108 0.640156 0.640202 0.640246 0.640288 0.640328 0.640365 0.6404 
0.640431 0.64046 0.640485 0.640506 0.640524 0.640539 0.64055 0.640558 0.640563 
0.640564 0.640563 0.640557 0.640549 0.640537 0.640522 0.640503 0.640481 0.640455 
0.640425 0.640392 0.640354 0.640311 0.640264 0.640211 0.640153 0.640089 0.640019 
0.639942 0.639857 0.639765 0.639665 0.639557 0.639442 0.63932 0.639191 0.639058 
0.638922 0.638785 0.638651 0.638523 0.638405 0.638301 0.638214 0.638148 0.638106 
0.638089 0.638096 0.638129 0.638184 0.638261 0.638358 0.638468 0.638589 0.638715 
0.638844 0.638973 0.639098 0.639218 0.639331 0.639435 0.63953 0.639616 0.639692 
0.639758 0.639815 0.639863 0.639902 0.639933 0.639957 0.639973 0.639983 0.639988 
0.639987 0.639982 0.639974 0.639962 0.639947 0.639931 0.639913 0.639895 0.639878 
0.639862 0.639848 0.639837 0.63983 0.639827 0.639831 0.639841 0.639858 0.639884 
0.639918 0.639963 0.640017 0.640081 0.640158 0.640317 0.640282 0.635633 0.623543 
0.605095 0.581549 0.55417 0.524197 0.492838 0.461291 0.430863 0.403057 0.379664 
0.362517 0.353275 0.351914 0.352028 0.352128 0.352217 0.352294 0.352361 0.352418 
0.352467 0.352508 0.352542 0.352568 0.352587 0.352595 0.352759 0.35236 0.346132 
0.325669 0.316917 0.324804 0.328603 0.332051 0.338024 0.343002 0.344371 0.347333 
0.354184 0.360246 0.365508 0.370898 0.376939 0.382946 0.38842 0.394838 0.402286 
0.410118 0.419204 0.427369 0.43599 0.445377 0.45716 0.4672 0.473537 0.477908 
0.480474 0.484013 0.491918 0.497402 0.502509 0.514256 0.52432 0.527383 0.532142 
0.536132 0.502593 0.482428 0.46083 0.447918 0.429814 0.400671 0.375973 0.36535 
0.363365 0.362315 0.362207 0.357151 0.353389 0.353426 0.353459 0.35349 0.353518 
0.353544 0.353567 0.353588 0.353607 0.353624 0.353639 0.353652 0.353663 0.353672 
0.353681 0.353687 0.353693 0.353698 0.353702 0.353705 0.353707 0.353708 0.353709 
0.353709 0.353709 0.353709 0.353708 0.353707 0.353705 0.353703 0.353701 0.353699 
0.353697 0.353695 0.353693 0.35369 0.353688 0.353685 0.353683 0.353681 0.353678 
0.353676 0.353674 0.353671 0.353669 0.353667 0.353665 0.353663 0.353662 0.35366 
0.353658 0.353657 0.353656 0.353655 0.353654 0.353653 0.353652 0.353651 0.353651 
0.35365 0.35365 0.35365 0.35365 0.353651 0.353651 0.353652 0.353652 0.353653 
0.353654 0.353655 0.353657 0.353658 0.35366 0.353662 0.353664 0.353666 0.353668 
0.353671 0.353674 0.353676 0.353679 0.353683 0.353686 0.353689 0.348718 0.639979 
0.639935 0.639892 0.639851 0.63981 0.639772 0.639737 0.639705 0.639678 0.639655 
0.639636 0.639623 0.639616 0.639615 0.639621 0.639632 0.639649 0.639672 0.6397 
0.639733 0.639771 0.639812 0.639856 0.639902 0.639951 0.64 0.64005 0.6401 
0.640149 0.640197 0.640243 0.640287 0.640328 0.640367 0.640403 0.640436 0.640466 
0.640492 0.640515 0.640534 0.64055 0.640562 0.640571 0.640576 0.640578 0.640577 
0.640572 0.640564 0.640552 0.640537 0.640518 0.640496 0.64047 0.64044 0.640405 
0.640366 0.640323 0.640274 0.640219 0.640159 0.640092 0.640019 0.639938 0.639849 
0.639752 0.639646 0.639532 0.639409 0.639279 0.639142 0.638999 0.638854 0.638707 
0.638563 0.638426 0.6383 0.63819 0.638099 0.638031 0.63799 0.637977 0.637992 
0.638032 0.638099 0.638189 0.638297 0.638419 0.638551 0.638687 0.638825 0.638962 
0.639094 0.63922 0.639338 0.639446 0.639545 0.639634 0.639712 0.63978 0.639837 
0.639885 0.639925 0.639955 0.639978 0.639994 0.640003 0.640006 0.640004 0.639997 
0.639986 0.639971 0.639954 0.639934 0.639913 0.639892 0.63987 0.63985 0.639832 
0.639817 0.639805 0.639798 0.639797 0.639803 0.639816 0.639838 0.639869 0.63991 
0.639962 0.640025 0.640101 0.640261 0.64023 0.635596 0.623547 0.605158 0.581664 
0.554304 0.524313 0.492908 0.461315 0.430846 0.403043 0.379683 0.362566 0.353332 
0.351967 0.35208 0.352178 0.352263 0.352337 0.3524 0.352454 0.352499 0.352535 
0.352563 0.352583 0.352593 0.352591 0.352729 0.352336 0.346268 0.326169 0.318554 
0.32695 0.331926 0.335854 0.340337 0.345372 0.350645 0.355592 0.359267 0.363984 
0.368969 0.373939 0.379846 0.385671 0.393184 0.400866 0.408388 0.41696 0.425945 
0.435992 0.445077 0.454594 0.465817 0.47776 0.480321 0.482084 0.488597 0.494893 
0.502288 0.506534 0.508226 0.529197 0.533102 0.539487 0.541594 0.545625 0.523384 
0.508879 0.485581 0.465075 0.445105 0.419203 0.394181 0.371672 0.363447 0.361963 
0.361885 0.357153 0.353391 0.35343 0.353465 0.353497 0.353526 0.353553 0.353576 
0.353597 0.353616 0.353633 0.353647 0.353659 0.35367 0.353679 0.353687 0.353693 
0.353699 0.353703 0.353706 0.353709 0.353711 0.353712 0.353712 0.353712 0.353712 
0.353711 0.35371 0.353708 0.353707 0.353705 0.353703 0.353701 0.353698 0.353696 
0.353694 0.353691 0.353689 0.353686 0.353684 0.353681 0.353679 0.353676 0.353674 
0.353672 0.35367 0.353668 0.353666 0.353664 0.353662 0.35366 0.353659 0.353657 
0.353656 0.353655 0.353654 0.353653 0.353652 0.353651 0.353651 0.35365 0.35365 
0.35365 0.35365 0.353651 0.353651 0.353652 0.353652 0.353653 0.353654 0.353655 
0.353657 0.353658 0.35366 0.353662 0.353664 0.353666 0.353668 0.353671 0.353674 
0.353676 0.353679 0.353683 0.353686 0.353689 0.348718 0.639977 0.639932 0.639886 
0.639842 0.639799 0.639759 0.639721 0.639687 0.639657 0.639632 0.639612 0.639598 
0.63959 0.639588 0.639593 0.639604 0.639621 0.639645 0.639674 0.639708 0.639747 
0.639789 0.639835 0.639884 0.639934 0.639986 0.640038 0.64009 0.640142 0.640192 
0.64024 0.640286 0.64033 0.64037 0.640408 0.640443 0.640474 0.640501 0.640525 
0.640546 0.640563 0.640576 0.640586 0.640592 0.640595 0.640594 0.64059 0.640582 
0.640571 0.640555 0.640537 0.640514 0.640487 0.640457 0.640422 0.640382 0.640336 
0.640286 0.640229 0.640166 0.640096 0.640019 0.639933 0.639839 0.639736 0.639624 
0.639502 0.639371 0.639231 0.639083 0.63893 0.638772 0.638615 0.63846 0.638313 
0.638179 0.638062 0.637969 0.637902 0.637865 0.637859 0.637884 0.637937 0.638018 
0.638122 0.638243 0.638377 0.638519 0.638665 0.638812 0.638956 0.639094 0.639226 
0.639349 0.639461 0.639563 0.639655 0.639735 0.639804 0.639863 0.639912 0.639951 
0.639981 0.640004 0.640018 0.640026 0.640027 0.640023 0.640014 0.64 0.639983 
0.639962 0.639939 0.639914 0.639888 0.639862 0.639837 0.639814 0.639793 0.639776 
0.639764 0.639758 0.639758 0.639766 0.639783 0.639809 0.639847 0.639895 0.639956 
0.640031 0.640191 0.640162 0.635536 0.623506 0.605148 0.581685 0.554344 0.524354 
0.492941 0.461339 0.430861 0.403071 0.379735 0.362633 0.3534 0.352034 0.352144 
0.352238 0.35232 0.352389 0.352448 0.352497 0.352538 0.352569 0.352592 0.352606 
0.35261 0.352603 0.352737 0.352354 0.346299 0.326303 0.319228 0.327793 0.332521 
0.336152 0.340564 0.346072 0.352897 0.358385 0.362176 0.366878 0.373602 0.380831 
0.385837 0.392196 0.400107 0.408335 0.416429 0.424756 0.435304 0.445377 0.456909 
0.466431 0.472548 0.477334 0.488961 0.499753 0.506523 0.51371 0.522644 0.527141 
0.533134 0.540414 0.546804 0.558657 0.562342 0.5649 0.539372 0.527547 0.507068 
0.480951 0.458461 0.437409 0.414699 0.382027 0.36443 0.363398 0.362694 0.357136 
0.353395 0.353436 0.353473 0.353507 0.353537 0.353564 0.353588 0.353609 0.353627 
0.353643 0.353657 0.353669 0.353679 0.353688 0.353695 0.353701 0.353705 0.353709 
0.353712 0.353714 0.353715 0.353716 0.353716 0.353716 0.353715 0.353714 0.353712 
0.353711 0.353709 0.353707 0.353705 0.353702 0.3537 0.353697 0.353695 0.353692 
0.35369 0.353687 0.353684 0.353682 0.353679 0.353677 0.353675 0.353672 0.35367 
0.353668 0.353666 0.353664 0.353662 0.35366 0.353659 0.353657 0.353656 0.353655 
0.353654 0.353653 0.353652 0.353651 0.353651 0.353651 0.35365 0.35365 0.35365 
0.353651 0.353651 0.353652 0.353652 0.353653 0.353654 0.353655 0.353657 0.353658 
0.35366 0.353662 0.353664 0.353666 0.353668 0.353671 0.353674 0.353676 0.353679 
0.353683 0.353686 0.353689 0.348718 0.639976 0.639928 0.63988 0.639833 0.639787 
0.639744 0.639703 0.639667 0.639634 0.639607 0.639585 0.639569 0.63956 0.639557 
0.639561 0.639573 0.63959 0.639615 0.639645 0.63968 0.639721 0.639765 0.639813 
0.639864 0.639917 0.639971 0.640026 0.64008 0.640134 0.640187 0.640238 0.640286 
0.640332 0.640375 0.640414 0.640451 0.640483 0.640512 0.640538 0.64056 0.640578 
0.640592 0.640603 0.64061 0.640614 0.640614 0.64061 0.640603 0.640592 0.640577 
0.640558 0.640535 0.640508 0.640476 0.64044 0.640399 0.640352 0.640299 0.64024 
0.640174 0.6401 0.640019 0.639928 0.639828 0.639718 0.639598 0.639468 0.639327 
0.639176 0.639017 0.638852 0.638682 0.638512 0.638347 0.638191 0.63805 0.63793 
0.637837 0.637774 0.637744 0.637749 0.637787 0.637855 0.63795 0.638066 0.638199 
0.638344 0.638495 0.63865 0.638803 0.638954 0.639098 0.639234 0.63936 0.639476 
0.63958 0.639674 0.639756 0.639826 0.639887 0.639937 0.639977 0.640007 0.640029 
0.640043 0.64005 0.64005 0.640044 0.640032 0.640016 0.639995 0.639971 0.639944 
0.639914 0.639883 0.639852 0.639822 0.639793 0.639767 0.639744 0.639725 0.639713 
0.639707 0.639709 0.639719 0.63974 0.639772 0.639816 0.639872 0.639945 0.640104 
0.640078 0.635456 0.623435 0.605094 0.581653 0.554333 0.524358 0.492956 0.461367 
0.430899 0.403126 0.379809 0.362716 0.353483 0.352114 0.35222 0.35231 0.352387 