# vtk DataFile Version 5.1
vtk output
ASCII
DATASET UNSTRUCTURED_GRID
POINTS 10043 double
-10.1 1.4499999993 0 -10.049999999 1.4499999993 0 -10.049999999 1.5 0 
-9.9999999985 1.4499999993 0 -9.9999999985 1.5 0 -9.9499999978 1.4499999993 0 
-9.9499999978 1.5 0 -9.899999997 1.4499999993 0 -9.899999997 1.5 0 
-9.8499999963 1.4499999993 0 -9.8499999963 1.5 0 -9.7999999955 1.4499999993 0 
-9.7999999955 1.5 0 -9.7499999948 1.4499999993 0 -9.7499999948 1.5 0 
-9.699999994 1.4499999993 0 -9.699999994 1.5 0 -9.6499999933 1.4499999993 0 
-9.6499999933 1.5 0 -9.5999999925 1.4499999993 0 -9.5999999925 1.5 0 
-9.5499999918 1.4499999993 0 -9.5499999918 1.5 0 -9.4999999911 1.4499999993 0 
-9.4999999911 1.5 0 -9.4499999903 1.4499999993 0 -9.4499999903 1.5 0 
-9.3999999896 1.4499999993 0 -9.3999999896 1.5 0 -9.3499999888 1.4499999993 0 
-9.3499999888 1.5 0 -9.2999999881 1.4499999993 0 -9.2999999881 1.5 0 
-9.2499999873 1.4499999993 0 -9.2499999873 1.5 0 -9.1999999866 1.4499999993 0 
-9.1999999866 1.5 0 -9.1499999858 1.4499999993 0 -9.1499999858 1.5 0 
-9.0999999851 1.4499999993 0 -9.0999999851 1.5 0 -9.0499999844 1.4499999993 0 
-9.0499999844 1.5 0 -8.9999999836 1.4499999993 0 -8.9999999836 1.5 0 
-8.9499999829 1.4499999993 0 -8.9499999829 1.5 0 -8.8999999821 1.4499999993 0 
-8.8999999821 1.5 0 -8.8499999814 1.4499999993 0 -8.8499999814 1.5 0 
-8.7999999806 1.4499999993 0 -8.7999999806 1.5 0 -8.7499999799 1.4499999993 0 
-8.7499999799 1.5 0 -8.6999999791 1.4499999993 0 -8.6999999791 1.5 0 
-8.6499999784 1.4499999993 0 -8.6499999784 1.5 0 -8.5999999776 1.4499999993 0 
-8.5999999776 1.5 0 -8.5499999769 1.4499999993 0 -8.5499999769 1.5 0 
-8.4999999762 1.4499999993 0 -8.4999999762 1.5 0 -8.4499999754 1.4499999993 0 
-8.4499999754 1.5 0 -8.3999999747 1.4499999993 0 -8.3999999747 1.5 0 
-8.3499999739 1.4499999993 0 -8.3499999739 1.5 0 -8.2999999732 1.4499999993 0 
-8.2999999732 1.5 0 -8.2499999724 1.4499999993 0 -8.2499999724 1.5 0 
-8.1999999717 1.4499999993 0 -8.1999999717 1.5 0 -8.1499999709 1.4499999993 0 
-8.1499999709 1.5 0 -8.0999999702 1.4499999993 0 -8.0999999702 1.5 0 
-8.0499999695 1.4499999993 0 -8.0499999695 1.5 0 -7.9999999687 1.4499999993 0 
-7.9999999687 1.5 0 -7.949999968 1.4499999993 0 -7.949999968 1.5 0 
-7.8999999672 1.4499999993 0 -7.8999999672 1.5 0 -7.8499999665 1.4499999993 0 
-7.8499999665 1.5 0 -7.7999999657 1.4499999993 0 -7.7999999657 1.5 0 
-7.749999965 1.4499999993 0 -7.749999965 1.5 0 -7.6999999642 1.4499999993 0 
-7.6999999642 1.5 0 -7.6499999635 1.4499999993 0 -7.6499999635 1.5 0 
-7.5999999627 1.4499999993 0 -7.5999999627 1.5 0 -7.549999962 1.4499999993 0 
-7.549999962 1.5 0 -7.4999999613 1.4499999993 0 -7.4999999613 1.5 0 
-7.4499999605 1.4499999993 0 -7.4499999605 1.5 0 -7.3999999598 1.4499999993 0 
-7.3999999598 1.5 0 -7.349999959 1.4499999993 0 -7.349999959 1.5 0 
-7.2999999583 1.4499999993 0 -7.2999999583 1.5 0 -7.2499999575 1.4499999993 0 
-7.2499999575 1.5 0 -7.1999999568 1.4499999993 0 -7.1999999568 1.5 0 
-7.149999956 1.4499999993 0 -7.149999956 1.5 0 -7.0999999553 1.4499999993 0 
-7.0999999553 1.5 0 -7.0499999546 1.4499999993 0 -7.0499999546 1.5 0 
-6.9999999538 1.4499999993 0 -6.9999999538 1.5 0 -6.9499999531 1.4499999993 0 
-6.9499999531 1.5 0 -6.8999999523 1.4499999993 0 -6.8999999523 1.5 0 
-6.8499999516 1.4499999993 0 -6.8499999516 1.5 0 -6.7999999508 1.4499999993 0 
-6.7999999508 1.5 0 -6.7499999501 1.4499999993 0 -6.7499999501 1.5 0 
-6.6999999493 1.4499999993 0 -6.6999999493 1.5 0 -6.6499999486 1.4499999993 0 
-6.6499999486 1.5 0 -6.5999999478 1.4499999993 0 -6.5999999478 1.5 0 
-6.5499999471 1.4499999993 0 -6.5499999471 1.5 0 -6.4999999464 1.4499999993 0 
-6.4999999464 1.5 0 -6.4499999456 1.4499999993 0 -6.4499999456 1.5 0 
-6.3999999449 1.4499999993 0 -6.3999999449 1.5 0 -6.3499999441 1.4499999993 0 
-6.3499999441 1.5 0 -6.2999999434 1.4499999993 0 -6.2999999434 1.5 0 
-6.2499999426 1.4499999993 0 -6.2499999426 1.5 0 -6.1999999419 1.4499999993 0 
-6.1999999419 1.5 0 -6.1499999411 1.4499999993 0 -6.1499999411 1.5 0 
-6.0999999404 1.4499999993 0 -6.0999999404 1.5 0 -6.0499999397 1.4499999993 0 
-6.0499999397 1.5 0 -5.9999999389 1.4499999993 0 -5.9999999389 1.5 0 
-5.9499999382 1.4499999993 0 -5.9499999382 1.5 0 -5.8999999374 1.4499999993 0 
-5.8999999374 1.5 0 -5.8499999367 1.4499999993 0 -5.8499999367 1.5 0 
-5.7999999359 1.4499999993 0 -5.7999999359 1.5 0 -5.7499999352 1.4499999993 0 
-5.7499999352 1.5 0 -5.6999999344 1.4499999993 0 -5.6999999344 1.5 0 
-5.6499999337 1.4499999993 0 -5.6499999337 1.5 0 -5.5999999329 1.4499999993 0 
-5.5999999329 1.5 0 -5.5499999322 1.4499999993 0 -5.5499999322 1.5 0 
-5.4999999315 1.4499999993 0 -5.4999999315 1.5 0 -5.4499999307 1.4499999993 0 
-5.4499999307 1.5 0 -5.39999993 1.4499999993 0 -5.39999993 1.5 0 
-5.3499999292 1.4499999993 0 -5.3499999292 1.5 0 -5.2999999285 1.4499999993 0 
-5.2999999285 1.5 0 -5.2499999277 1.4499999993 0 -5.2499999277 1.5 0 
-5.199999927 1.4499999993 0 -5.199999927 1.5 0 -5.1499999262 1.4499999993 0 
-5.1499999262 1.5 0 -5.0999999255 1.4499999993 0 -5.0999999255 1.5 0 
-5.0499999247 1.4499999993 0 -5.0499999247 1.5 0 -4.999999924 1.4499999993 0 
-4.999999924 1.5 0 -4.9499999233 1.4499999993 0 -4.9499999233 1.5 0 
-4.8999999225 1.4499999993 0 -4.8999999225 1.5 0 -4.8499999218 1.4499999993 0 
-4.8499999218 1.5 0 -4.799999921 1.4499999993 0 -4.799999921 1.5 0 
-4.7499999203 1.4499999993 0 -4.7499999203 1.5 0 -4.6999999195 1.4499999993 0 
-4.6999999195 1.5 0 -4.6499999188 1.4499999993 0 -4.6499999188 1.5 0 
-4.599999918 1.4499999993 0 -4.599999918 1.5 0 -4.5499999173 1.4499999993 0 
-4.5499999173 1.5 0 -4.4999999166 1.4499999993 0 -4.4999999166 1.5 0 
-4.4499999158 1.4499999993 0 -4.4499999158 1.5 0 -4.3999999151 1.4499999993 0 
-4.3999999151 1.5 0 -4.3499999143 1.4499999993 0 -4.3499999143 1.5 0 
-4.2999999136 1.4499999993 0 -4.2999999136 1.5 0 -4.2499999128 1.4499999993 0 
-4.2499999128 1.5 0 -4.1999999121 1.4499999993 0 -4.1999999121 1.5 0 
-4.1499999113 1.4499999993 0 -4.1499999113 1.5 0 -4.0999999106 1.4499999993 0 
-4.0999999106 1.5 0 -4.0499999098 1.4499999993 0 -4.0499999098 1.5 0 
-3.9999999091 1.4499999993 0 -3.9999999091 1.5 0 -3.9499999084 1.4499999993 0 
-3.9499999084 1.5 0 -3.8999999076 1.4499999993 0 -3.8999999076 1.5 0 
-3.8499999069 1.4499999993 0 -3.8499999069 1.5 0 -3.7999999061 1.4499999993 0 
-3.7999999061 1.5 0 -3.7499999054 1.4499999993 0 -3.7499999054 1.5 0 
-3.6999999046 1.4499999993 0 -3.6999999046 1.5 0 -3.6499999039 1.4499999993 0 
-3.6499999039 1.5 0 -3.5999999031 1.4499999993 0 -3.5999999031 1.5 0 
-3.5499999024 1.4499999993 0 -3.5499999024 1.5 0 -3.4999999017 1.4499999993 0 
-3.4999999017 1.5 0 -3.4499999009 1.4499999993 0 -3.4499999009 1.5 0 
-3.3999999002 1.4499999993 0 -3.3999999002 1.5 0 -3.3499998994 1.4499999993 0 
-3.3499998994 1.5 0 -3.2999998987 1.4499999993 0 -3.2999998987 1.5 0 
-3.2499998979 1.4499999993 0 -3.2499998979 1.5 0 -3.1999998972 1.4499999993 0 
-3.1999998972 1.5 0 -3.1499998964 1.4499999993 0 -3.1499998964 1.5 0 
-3.0999998957 1.4499999993 0 -3.0999998957 1.5 0 -3.0499998949 1.4499999993 0 
-3.0499998949 1.5 0 -2.9999998942 1.4499999993 0 -2.9999998942 1.5 0 
-2.9499998935 1.4499999993 0 -2.9499998935 1.5 0 -2.8999998927 1.4499999993 0 
-2.8999998927 1.5 0 -2.849999892 1.4499999993 0 -2.849999892 1.5 0 
-2.7999998912 1.4499999993 0 -2.7999998912 1.5 0 -2.7499998905 1.4499999993 0 
-2.7499998905 1.5 0 -2.6999998897 1.4499999993 0 -2.6999998897 1.5 0 
-2.649999889 1.4499999993 0 -2.649999889 1.5 0 -2.5999998882 1.4499999993 0 
-2.5999998882 1.5 0 -2.5499998875 1.4499999993 0 -2.5499998875 1.5 0 
-2.4999998868 1.4499999993 0 -2.4999998868 1.5 0 -2.449999886 1.4499999993 0 
-2.449999886 1.5 0 -2.3999998853 1.4499999993 0 -2.3999998853 1.5 0 
-2.3499998845 1.4499999993 0 -2.3499998845 1.5 0 -2.2999998838 1.4499999993 0 
-2.2999998838 1.5 0 -2.249999883 1.4499999993 0 -2.249999883 1.5 0 
-2.1999998823 1.4499999993 0 -2.1999998823 1.5 0 -2.1499998815 1.4499999993 0 
-2.1499998815 1.5 0 -2.0999998808 1.4499999993 0 -2.0999998808 1.5 0 
-2.04999988 1.4499999993 0 -2.04999988 1.5 0 -1.9999998793 1.4499999993 0 
-1.9999998793 1.5 0 -1.9499998786 1.4499999993 0 -1.9499998786 1.5 0 
-1.8999998778 1.4499999993 0 -1.8999998778 1.5 0 -1.8499998771 1.4499999993 0 
-1.8499998771 1.5 0 -1.7999998763 1.4499999993 0 -1.7999998763 1.5 0 
-1.7499998756 1.4499999993 0 -1.7499998756 1.5 0 -1.6999998748 1.4499999993 0 
-1.6999998748 1.5 0 -1.6499998741 1.4499999993 0 -1.6499998741 1.5 0 
-1.5999998733 1.4499999993 0 -1.5999998733 1.5 0 -1.5499998726 1.4499999993 0 
-1.5499998726 1.5 0 -1.4999998718 1.4499999993 0 -1.4999998718 1.5 0 
-1.4499998711 1.4499999993 0 -1.4499998711 1.5 0 -1.3999998704 1.4499999993 0 
-1.3999998704 1.5 0 -1.3499998696 1.4499999993 0 -1.3499998696 1.5 0 
-1.2999998689 1.4499999993 0 -1.2999998689 1.5 0 -1.2499998681 1.4499999993 0 
-1.2499998681 1.5 0 -1.1999998674 1.4499999993 0 -1.1999998674 1.5 0 
-1.1499998666 1.4499999993 0 -1.1499998666 1.5 0 -1.0999998659 1.4499999993 0 
-1.0999998659 1.5 0 -1.0499998651 1.4499999993 0 -1.0499998651 1.5 0 
-0.9999998644 1.4499999993 0 -0.9999998644 1.5 0 -0.94999986365 1.4499999993 0 
-0.94999986365 1.5 0 -0.89999986291 1.4499999993 0 -0.89999986291 1.5 0 
-0.84999986216 1.4499999993 0 -0.84999986216 1.5 0 -0.79999986142 1.4499999993 0 
-0.79999986142 1.5 0 -0.74999986067 1.4499999993 0 -0.74999986067 1.5 0 
-0.69999985993 1.4499999993 0 -0.69999985993 1.5 0 -0.64999985918 1.4499999993 0 
-0.64999985918 1.5 0 -0.59999985844 1.4499999993 0 -0.59999985844 1.5 0 
-0.54999985769 1.4499999993 0 -0.54999985769 1.5 0 -0.49999985695 1.4499999993 0 
-0.49999985695 1.5 0 -0.4499998562 1.4499999993 0 -0.4499998562 1.5 0 
-0.39999985546 1.4499999993 0 -0.39999985546 1.5 0 -0.34999985471 1.4499999993 0 
-0.34999985471 1.5 0 -0.29999985397 1.4499999993 0 -0.29999985397 1.5 0 
-0.24999985322 1.4499999993 0 -0.24999985322 1.5 0 -0.191663057 1.4499999993 0 
-0.17548248559 1.5 0 0.18862900414 1.4499999993 0 0.25000015423 1.4499999993 0 
[...]
CELL_DATA 9510
FIELD FieldData 4
Water_Depth_m 1 9510 float
0.479984 0.479951 0.479918 0.479885 0.479854 0.479823 0.479794 0.479767 0.479742 
0.479718 0.479698 0.47968 0.479665 0.479653 0.479645 0.479639 0.479638 0.479639 
0.479645 0.479654 0.479666 0.479682 0.479702 0.479724 0.47975 0.479778 0.47981 
0.479843 0.479879 0.479917 0.479956 0.479997 0.480038 0.48008 0.480123 0.480165 
0.480207 0.480249 0.480289 0.480329 0.480367 0.480402 0.480436 0.480468 0.480497 
0.480523 0.480546 0.480565 0.480581 0.480593 0.480601 0.480604 0.480602 0.480595 
0.480582 0.480564 0.480538 0.480505 0.480464 0.480415 0.480358 0.480292 0.480217 
0.480134 0.480043 0.479945 0.479842 0.479734 0.479624 0.479514 0.479406 0.479302 
0.479204 0.479114 0.479033 0.478962 0.478902 0.478853 0.478816 0.478791 0.478778 
0.478776 0.478785 0.478804 0.478832 0.478869 0.478914 0.478966 0.479024 0.479086 
0.479153 0.479222 0.479293 0.479365 0.479437 0.479508 0.479576 0.479641 0.479702 
0.479759 0.479809 0.479854 0.479892 0.479923 0.479945 0.47996 0.479967 0.479965 
0.479955 0.479937 0.479911 0.479878 0.479838 0.479792 0.479743 0.479691 0.479638 
0.479586 0.479537 0.479492 0.479454 0.479423 0.479402 0.479391 0.479391 0.479402 
0.479423 0.479453 0.479492 0.479538 0.479589 0.479643 0.479698 0.479751 0.479802 
0.479848 0.479888 0.479921 0.479946 0.479963 0.47997 0.479969 0.479959 0.479941 
0.479916 0.479885 0.479849 0.479809 0.479768 0.479728 0.479691 0.479659 0.479634 
0.479616 0.479608 0.479608 0.479618 0.479636 0.47966 0.47969 0.479723 0.479757 
0.479791 0.479824 0.479854 0.479882 0.479906 0.479927 0.479945 0.47996 0.479973 
0.479985 0.479996 0.480007 0.480018 0.48003 0.480044 0.48006 0.480079 0.480102 
0.480128 0.480159 0.480196 0.480239 0.480289 0.480348 0.480415 0.480492 0.48058 
0.480681 0.480794 0.480922 0.481064 0.481221 0.481394 0.481583 0.481786 0.482033 
0.484104 0.484332 0.484521 0.484695 0.484854 0.484998 0.485128 0.485244 0.485348 
0.485441 0.485524 0.485598 0.485664 0.485722 0.485774 0.48582 0.485861 0.485898 
0.48593 0.485959 0.485985 0.486008 0.486029 0.486047 0.486063 0.486078 0.48609 
0.486102 0.486112 0.486121 0.48613 0.486137 0.486143 0.486149 0.486154 0.486158 
0.486162 0.486166 0.486169 0.486172 0.486174 0.486176 0.486178 0.48618 0.486181 
0.486182 0.486183 0.486184 0.486185 0.486185 0.486186 0.486186 0.486186 0.486186 
0.486187 0.486187 0.486187 0.486187 0.486187 0.486186 0.486186 0.486186 0.486186 
0.486186 0.486185 0.486185 0.486185 0.486185 0.486184 0.486184 0.486184 0.486183 
0.486183 0.486183 0.486183 0.486182 0.486182 0.486182 0.486182 0.486181 0.486181 
0.486181 0.486181 0.48618 0.48618 0.48618 0.48618 0.48618 0.48618 0.48618 
0.486179 0.486179 0.486179 0.486179 0.486179 0.486179 0.481928 0.479984 0.47995 
0.479917 0.479884 0.479852 0.479822 0.479792 0.479765 0.479739 0.479716 0.479695 
0.479677 0.479662 0.47965 0.479641 0.479636 0.479634 0.479636 0.479641 0.47965 
0.479663 0.479679 0.479698 0.479721 0.479747 0.479775 0.479807 0.47984 0.479876 
0.479914 0.479954 0.479995 0.480036 0.480079 0.480122 0.480164 0.480207 0.480249 
0.48029 0.480329 0.480368 0.480404 0.480438 0.48047 0.480499 0.480526 0.480549 
0.480569 0.480585 0.480597 0.480605 0.480609 0.480607 0.4806 0.480587 0.480568 
0.480542 0.480509 0.480468 0.480419 0.480361 0.480294 0.480219 0.480135 0.480043 
0.479943 0.479838 0.479729 0.479618 0.479507 0.479398 0.479293 0.479194 0.479103 
0.479021 0.47895 0.47889 0.478841 0.478805 0.47878 0.478767 0.478765 0.478774 
0.478794 0.478823 0.47886 0.478906 0.478958 0.479016 0.47908 0.479147 0.479218 
0.47929 0.479363 0.479436 0.479507 0.479577 0.479643 0.479705 0.479763 0.479815 
0.47986 0.479899 0.47993 0.479953 0.479968 0.479975 0.479973 0.479963 0.479944 
0.479917 0.479882 0.479841 0.479795 0.479744 0.47969 0.479635 0.479582 0.479531 
0.479485 0.479445 0.479414 0.479392 0.479381 0.47938 0.479391 0.479413 0.479445 
0.479485 0.479532 0.479585 0.47964 0.479697 0.479752 0.479805 0.479853 0.479894 
0.479928 0.479954 0.479971 0.479979 0.479978 0.479967 0.479948 0.479922 0.479889 
0.479851 0.479809 0.479767 0.479725 0.479686 0.479652 0.479625 0.479607 0.479598 
0.479599 0.47961 0.479629 0.479655 0.479686 0.479721 0.479757 0.479792 0.479826 
0.479857 0.479884 0.479909 0.479929 0.479947 0.479962 0.479975 0.479986 0.479996 
0.480006 0.480017 0.480029 0.480042 0.480058 0.480076 0.480098 0.480123 0.480154 
0.48019 0.480232 0.480281 0.480338 0.480404 0.48048 0.480567 0.480666 0.480779 
0.480905 0.481046 0.481202 0.481374 0.481562 0.481766 0.482014 0.484104 0.484335 
0.484525 0.484701 0.48486 0.485005 0.485134 0.485251 0.485355 0.485448 0.48553 
0.485604 0.485669 0.485727 0.485778 0.485824 0.485865 0.485901 0.485933 0.485962 
0.485987 0.48601 0.486031 0.486049 0.486065 0.486079 0.486092 0.486103 0.486113 
0.486122 0.48613 0.486138 0.486144 0.48615 0.486155 0.486159 0.486163 0.486166 
0.486169 0.486172 0.486174 0.486176 0.486178 0.48618 0.486181 0.486182 0.486183 
0.486184 0.486185 0.486185 0.486186 0.486186 0.486186 0.486187 0.486187 0.486187 
0.486187 0.486187 0.486187 0.486186 0.486186 0.486186 0.486186 0.486186 0.486185 
0.486185 0.486185 0.486185 0.486184 0.486184 0.486184 0.486183 0.486183 0.486183 
0.486183 0.486182 0.486182 0.486182 0.486182 0.486181 0.486181 0.486181 0.486181 
0.48618 0.48618 0.48618 0.48618 0.48618 0.48618 0.48618 0.486179 0.486179 
0.486179 0.486179 0.486179 0.486179 0.481928 0.479983 0.479949 0.479916 0.479882 
0.47985 0.479818 0.479789 0.479761 0.479735 0.479711 0.47969 0.479671 0.479656 
0.479644 0.479635 0.479629 0.479627 0.479629 0.479634 0.479643 0.479655 0.479672 
0.479691 0.479714 0.47974 0.479769 0.4798 0.479835 0.479871 0.479909 0.479949 
0.479991 0.480033 0.480076 0.480119 0.480163 0.480206 0.480249 0.48029 0.480331 
0.48037 0.480407 0.480442 0.480474 0.480504 0.480532 0.480555 0.480576 0.480593 
0.480605 0.480614 0.480618 0.480616 0.480609 0.480597 0.480578 0.480552 0.480518 
0.480476 0.480426 0.480367 0.480299 0.480222 0.480135 0.480041 0.479939 0.479832 
0.47972 0.479606 0.479492 0.47938 0.479273 0.479173 0.479081 0.478998 0.478926 
0.478866 0.478818 0.478781 0.478757 0.478744 0.478743 0.478753 0.478773 0.478803 
0.478842 0.478888 0.478942 0.479002 0.479067 0.479136 0.479208 0.479283 0.479358 
0.479433 0.479507 0.479579 0.479647 0.479712 0.479771 0.479825 0.479873 0.479913 
0.479945 0.479969 0.479985 0.479991 0.479989 0.479978 0.479958 0.479929 0.479892 
0.479849 0.479799 0.479745 0.479688 0.47963 0.479573 0.479519 0.47947 0.479428 
0.479395 0.479372 0.479359 0.479359 0.47937 0.479393 0.479426 0.479469 0.47952 
0.479576 0.479635 0.479696 0.479755 0.479811 0.479862 0.479907 0.479943 0.479971 
0.479989 0.479997 0.479995 0.479983 0.479963 0.479934 0.479897 0.479856 0.47981 
0.479763 0.479717 0.479674 0.479637 0.479607 0.479588 0.479579 0.479581 0.479593 
0.479615 0.479645 0.479679 0.479717 0.479756 0.479794 0.47983 0.479862 0.479891 
0.479915 0.479935 0.479952 0.479966 0.479978 0.479988 0.479997 0.480006 0.480015 
0.480026 0.480038 0.480052 0.480069 0.48009 0.480114 0.480143 0.480178 0.480218 
0.480265 0.48032 0.480384 0.480457 0.480542 0.480638 0.480747 0.480871 0.481009 
0.481163 0.481333 0.481519 0.481723 0.481972 0.484104 0.48434 0.484534 0.484712 
0.484873 0.485018 0.485148 0.485265 0.485368 0.48546 0.485542 0.485615 0.485679 
0.485736 0.485787 0.485832 0.485872 0.485908 0.485939 0.485967 0.485992 0.486015 
0.486034 0.486052 0.486068 0.486082 0.486094 0.486105 0.486115 0.486124 0.486132 
0.486139 0.486145 0.486151 0.486156 0.48616 0.486164 0.486167 0.48617 0.486173 
0.486175 0.486177 0.486179 0.48618 0.486182 0.486183 0.486184 0.486184 0.486185 
0.486186 0.486186 0.486186 0.486187 0.486187 0.486187 0.486187 0.486187 0.486187 
0.486187 0.486187 0.486186 0.486186 0.486186 0.486186 0.486185 0.486185 0.486185 
0.486185 0.486184 0.486184 0.486184 0.486183 0.486183 0.486183 0.486183 0.486182 
0.486182 0.486182 0.486182 0.486181 0.486181 0.486181 0.486181 0.48618 0.48618 
0.48618 0.48618 0.48618 0.48618 0.48618 0.486179 0.486179 0.486179 0.486179 
0.486179 0.486179 0.481928 0.479983 0.479948 0.479913 0.479879 0.479846 0.479814 
0.479783 0.479754 0.479728 0.479703 0.479681 0.479663 0.479647 0.479634 0.479625 
0.479619 0.479617 0.479618 0.479623 0.479632 0.479645 0.479661 0.479681 0.479704 
0.47973 0.479759 0.479791 0.479826 0.479863 0.479902 0.479942 0.479984 0.480028 
0.480071 0.480116 0.48016 0.480204 0.480248 0.480291 0.480332 0.480372 0.480411 
0.480447 0.480481 0.480512 0.48054 0.480565 0.480586 0.480604 0.480617 0.480627 
0.480631 0.48063 0.480624 0.480611 0.480592 0.480565 0.480531 0.480488 0.480437 
0.480376 0.480306 0.480226 0.480136 0.480038 0.479933 0.479821 0.479705 0.479587 
0.479469 0.479354 0.479244 0.479141 0.479047 0.478963 0.478891 0.478831 0.478782 
0.478746 0.478723 0.478711 0.478711 0.478722 0.478743 0.478774 0.478814 0.478863 
0.478918 0.47898 0.479047 0.479119 0.479194 0.479271 0.47935 0.479428 0.479506 
0.479581 0.479653 0.479721 0.479784 0.479841 0.479891 0.479934 0.479968 0.479993 
0.48001 0.480016 0.480013 0.480001 0.479979 0.479947 0.479907 0.47986 0.479806 
0.479747 0.479685 0.479621 0.479559 0.479501 0.479447 0.479402 0.479365 0.47934 
0.479326 0.479325 0.479337 0.479361 0.479398 0.479445 0.4795 0.479562 0.479627 
0.479694 0.479759 0.479821 0.479877 0.479926 0.479966 0.479996 0.480015 0.480024 
0.480021 0.480008 0.479984 0.479951 0.47991 0.479863 0.479811 0.479757 0.479704 
0.479655 0.479613 0.47958 0.479558 0.479548 0.479552 0.479567 0.479594 0.479628 
0.479669 0.479712 0.479756 0.479798 0.479837 0.479871 0.4799 0.479925 0.479944 
0.47996 0.479972 0.479982 0.47999 0.479997 0.480005 0.480012 0.480021 0.480031 
0.480044 0.48006 0.480078 0.480101 0.480127 0.480159 0.480197 0.480241 0.480293 
0.480353 0.480423 0.480503 0.480595 0.4807 0.480819 0.480953 0.481104 0.481271 
0.481455 0.481658 0.481908 0.484105 0.484348 0.484548 0.484729 0.484892 0.485039 
0.485169 0.485285 0.485388 0.485479 0.48556 0.485631 0.485694 0.48575 0.4858 
0.485844 0.485883 0.485917 0.485948 0.485975 0.485999 0.486021 0.48604 0.486057 
0.486072 0.486086 0.486098 0.486109 0.486118 0.486127 0.486135 0.486141 0.486147 
0.486153 0.486157 0.486161 0.486165 0.486168 0.486171 0.486174 0.486176 0.486178 
0.486179 0.486181 0.486182 0.486183 0.486184 0.486185 0.486185 0.486186 0.486186 
0.486187 0.486187 0.486187 0.486187 0.486187 0.486187 0.486187 0.486187 0.486187 
0.486186 0.486186 0.486186 0.486186 0.486186 0.486185 0.486185 0.486185 0.486184 
0.486184 0.486184 0.486183 0.486183 0.486183 0.486183 0.486182 0.486182 0.486182 
0.486182 0.486181 0.486181 0.486181 0.486181 0.48618 0.48618 0.48618 0.48618 
0.48618 0.48618 0.48618 0.486179 0.486179 0.486179 0.486179 0.486179 0.486179 
0.481928 0.479982 0.479946 0.47991 0.479875 0.47984 0.479807 0.479776 0.479746 
0.479718 0.479693 0.47967 0.479651 0.479634 0.479621 0.479611 0.479605 0.479603 
0.479604 0.479609 0.479618 0.47963 0.479647 0.479666 0.47969 0.479717 0.479746 
0.479779 0.479814 0.479852 0.479892 0.479933 0.479976 0.48002 0.480065 0.480111 
0.480157 0.480202 0.480247 0.480291 0.480335 0.480376 0.480416 0.480454 0.480489 
0.480521 0.480551 0.480577 0.4806 0.480619 0.480633 0.480643 0.480648 0.480648 
0.480642 0.480629 0.48061 0.480583 0.480548 0.480504 0.48045 0.480387 0.480314 
0.48023 0.480137 0.480034 0.479923 0.479805 0.479684 0.47956 0.479437 0.479317 
0.479203 0.479097 0.479001 0.478916 0.478843 0.478783 0.478736 0.478701 0.478678 
0.478667 0.478668 0.478681 0.478704 0.478737 0.478779 0.478829 0.478887 0.478951 
0.479021 0.479096 0.479175 0.479256 0.479339 0.479422 0.479504 0.479584 0.479661 
0.479734 0.479801 0.479862 0.479916 0.479962 0.479998 0.480026 0.480043 0.480049 
0.480046 0.480032 0.480007 0.479972 0.479928 0.479875 0.479814 0.479749 0.47968 
0.479609 0.47954 0.479475 0.479416 0.479365 0.479324 0.479295 0.47928 0.479278 
0.479291 0.479318 0.479358 0.479411 0.479473 0.479542 0.479616 0.479691 0.479765 
0.479834 0.479897 0.479952 0.479997 0.480031 0.480052 0.480061 0.480058 0.480042 
0.480014 0.479976 0.479928 0.479873 0.479812 0.479749 0.479686 0.479628 0.479578 
0.47954 0.479514 0.479504 0.47951 0.47953 0.479563 0.479606 0.479655 0.479706 
0.479757 0.479805 0.479848 0.479885 0.479915 0.479939 0.479957 0.479971 0.479981 
0.479988 0.479994 0.479998 0.480003 0.480008 0.480015 0.480023 0.480033 0.480047 
0.480063 0.480083 0.480106 0.480135 0.480169 0.48021 0.480257 0.480313 0.480377 
0.480452 0.480538 0.480637 0.48075 0.480879 0.481024 0.481186 0.481367 0.481568 
0.481818 0.484107 0.484361 0.484567 0.484753 0.484919 0.485067 0.485198 0.485313 
0.485415 0.485505 0.485584 0.485653 0.485714 0.485769 0.485817 0.485859 0.485896 
0.48593 0.485959 0.485985 0.486009 0.486029 0.486048 0.486064 0.486079 0.486092 
0.486103 0.486113 0.486123 0.486131 0.486138 0.486144 0.48615 0.486155 0.486159 
0.486163 0.486167 0.48617 0.486173 0.486175 0.486177 0.486179 0.48618 0.486182 
0.486183 0.486184 0.486185 0.486185 0.486186 0.486186 0.486187 0.486187 0.486187 
0.486187 0.486187 0.486187 0.486187 0.486187 0.486187 0.486187 0.486187 0.486186 
0.486186 0.486186 0.486186 0.486185 0.486185 0.486185 0.486184 0.486184 0.486184 
0.486184 0.486183 0.486183 0.486183 0.486182 0.486182 0.486182 0.486182 0.486181 
0.486181 0.486181 0.486181 0.48618 0.48618 0.48618 0.48618 0.48618 0.48618 
0.48618 0.486179 0.486179 0.486179 0.486179 0.486179 0.486179 0.481928 0.479982 
0.479944 0.479906 0.47987 0.479834 0.479799 0.479766 0.479735 0.479706 0.47968 
0.479657 0.479636 0.479619 0.479605 0.479595 0.479588 0.479585 0.479586 0.479591 
0.4796 0.479612 0.479629 0.479649 0.479673 0.4797 0.47973 0.479764 0.4798 
0.479838 0.479879 0.479922 0.479966 0.480011 0.480058 0.480105 0.480152 0.480199 
0.480246 0.480292 0.480337 0.48038 0.480422 0.480462 0.480499 0.480533 0.480564 
0.480592 0.480617 0.480637 0.480653 0.480664 0.48067 0.48067 0.480664 0.480652 
0.480632 0.480605 0.480568 0.480523 0.480467 0.480401 0.480324 0.480235 0.480137 
0.480028 0.47991 0.479785 0.479656 0.479525 0.479395 0.47927 0.479151 0.479042 
0.478944 0.478858 0.478785 0.478726 0.478679 0.478645 0.478624 0.478614 0.478617 
0.478632 0.478657 0.478691 0.478736 0.478788 0.478849 0.478916 0.47899 0.479068 
0.479151 0.479237 0.479325 0.479413 0.479501 0.479587 0.47967 0.479749 0.479822 
0.479888 0.479946 0.479996 0.480036 0.480066 0.480084 0.480091 0.480087 0.480071 
0.480043 0.480003 0.479953 0.479893 0.479825 0.479751 0.479673 0.479593 0.479515 
0.479441 0.479374 0.479317 0.47927 0.479237 0.479219 0.479216 0.47923 0.47926 
0.479306 0.479366 0.479437 0.479516 0.479601 0.479687 0.479771 0.479851 0.479923 
0.479986 0.480037 0.480076 0.4801 0.48011 0.480105 0.480086 0.480054 0.480008 
0.479952 0.479886 0.479813 0.479737 0.479662 0.479592 0.479531 0.479485 0.479455 
0.479444 0.479453 0.47948 0.479522 0.479576 0.479637 0.4797 0.479761 0.479816 
0.479864 0.479904 0.479935 0.479958 0.479975 0.479986 0.479992 0.479996 0.479998 
0.479999 0.480001 0.480003 0.480007 0.480013 0.48002 0.480031 0.480044 0.48006 
0.480081 0.480106 0.480136 0.480171 0.480213 0.480263 0.480321 0.480389 0.480468 
0.480559 0.480664 0.480785 0.480922 0.481078 0.481254 0.481452 0.481701 0.484111 
0.484378 0.484593 0.484785 0.484955 0.485104 0.485235 0.485349 0.485449 0.485537 
0.485613 0.485681 0.48574 0.485792 0.485837 0.485878 0.485914 0.485945 0.485973 
0.485998 0.48602 0.48604 0.486057 0.486073 0.486086 0.486098 0.486109 0.486119 
0.486128 0.486135 0.486142 0.486148 0.486153 0.486158 0.486162 0.486166 0.486169 
0.486172 0.486174 0.486177 0.486178 0.48618 0.486182 0.486183 0.486184 0.486185 
0.486185 0.486186 0.486186 0.486187 0.486187 0.486187 0.486187 0.486188 0.486188 
0.486188 0.486187 0.486187 0.486187 0.486187 0.486187 0.486187 0.486186 0.486186 
0.486186 0.486185 0.486185 0.486185 0.486185 0.486184 0.486184 0.486184 0.486183 
0.486183 0.486183 0.486182 0.486182 0.486182 0.486182 0.486181 0.486181 0.486181 
0.486181 0.48618 0.48618 0.48618 0.48618 0.48618 0.48618 0.48618 0.486179 
0.486179 0.486179 0.486179 0.486179 0.486179 0.481928 0.479981 0.479941 0.479902 
0.479863 0.479826 0.479789 0.479755 0.479722 0.479692 0.479665 0.479641 0.479619 
0.479601 0.479587 0.479576 0.479568 0.479565 0.479565 0.47957 0.479579 0.479592 
0.479608 0.479629 0.479653 0.479681 0.479712 0.479746 0.479783 0.479823 0.479865 
0.479908 0.479954 0.480001 0.480049 0.480098 0.480147 0.480196 0.480244 0.480292 
0.480339 0.480385 0.480429 0.480471 0.48051 0.480547 0.48058 0.48061 0.480636 
0.480658 0.480675 0.480687 0.480694 0.480695 0.48069 0.480678 0.480658 0.48063 
0.480592 0.480544 0.480486 0.480416 0.480335 0.480241 0.480136 0.480019 0.479894 
0.479761 0.479623 0.479484 0.479347 0.479215 0.479092 0.478979 0.478879 0.478792 
0.47872 0.478661 0.478616 0.478584 0.478564 0.478557 0.478562 0.478578 0.478604 
0.478641 0.478687 0.478742 0.478805 0.478876 0.478953 0.479036 0.479123 0.479214 
0.479308 0.479403 0.479497 0.47959 0.47968 0.479766 0.479845 0.479918 0.479982 
0.480037 0.480081 0.480114 0.480134 0.480141 0.480136 0.480117 0.480086 0.480041 
0.479984 0.479915 0.479838 0.479753 0.479663 0.479572 0.479483 0.479398 0.479321 
0.479255 0.479203 0.479165 0.479143 0.479139 0.479153 0.479188 0.47924 0.479309 
0.479391 0.479483 0.479581 0.479681 0.479779 0.479872 0.479956 0.480028 0.480087 
0.480131 0.480159 0.48017 0.480164 0.480141 0.480102 0.480049 0.479981 0.479903 
0.479815 0.479722 0.47963 0.479543 0.479468 0.479411 0.479375 0.479363 0.479377 
0.479414 0.479469 0.479539 0.479616 0.479694 0.479768 0.479834 0.479888 0.479931 
0.479963 0.479984 0.479997 0.480004 0.480006 0.480005 0.480003 0.48 0.479998 
0.479997 0.479997 0.48 0.480005 0.480012 0.480022 0.480035 0.480051 0.480072 
0.480096 0.480126 0.480162 0.480204 0.480255 0.480314 0.480384 0.480465 0.48056 
0.480671 0.480798 0.480945 0.481113 0.481305 0.48155 0.484118 0.484403 0.484629 
0.484827 0.485 0.48515 0.48528 0.485393 0.48549 0.485575 0.485649 0.485713 
0.48577 0.485819 0.485862 0.4859 0.485934 0.485964 0.48599 0.486013 0.486034 
0.486052 0.486068 0.486082 0.486095 0.486106 0.486117 0.486125 0.486133 0.48614 
0.486147 0.486152 0.486157 0.486161 0.486165 0.486169 0.486172 0.486174 0.486176 
0.486178 0.48618 0.486182 0.486183 0.486184 0.486185 0.486186 0.486186 0.486187 
0.486187 0.486188 0.486188 0.486188 0.486188 0.486188 0.486188 0.486188 0.486188 
0.486188 0.486187 0.486187 0.486187 0.486187 0.486186 0.486186 0.486186 0.486186 
0.486185 0.486185 0.486185 0.486184 0.486184 0.486184 0.486183 0.486183 0.486183 
0.486182 0.486182 0.486182 0.486182 0.486181 0.486181 0.486181 0.486181 0.48618 
0.48618 0.48618 0.48618 0.48618 0.48618 0.48618 0.486179 0.486179 0.486179 
0.486179 0.486179 0.486179 0.481928 0.479979 0.479938 0.479896 0.479856 0.479816 
0.479778 0.479742 0.479708 0.479676 0.479648 0.479622 0.4796 0.479581 0.479565 
0.479553 0.479546 0.479542 0.479542 0.479546 0.479555 0.479568 0.479585 0.479606 
0.479631 0.479659 0.479691 0.479726 0.479764 0.479805 0.479848 0.479893 0.47994 
0.479989 0.480039 0.480089 0.48014 0.480191 0.480242 0.480293 0.480342 0.48039 
0.480436 0.480481 0.480522 0.480561 0.480597 0.480629 0.480657 0.480681 0.4807 
0.480714 0.480722 0.480724 0.480719 0.480707 0.480687 0.480658 0.480619 0.480569 
0.480507 0.480434 0.480347 0.480247 0.480135 0.480011 0.479876 0.479734 0.479587 
0.47944 0.479295 0.479157 0.479029 0.478914 0.478812 0.478725 0.478653 0.478595 
0.478551 0.478521 0.478503 0.478497 0.478503 0.478521 0.478549 0.478587 0.478635 
0.478692 0.478758 0.478832 0.478912 0.478999 0.479092 0.479189 0.479288 0.47939 
0.479492 0.479592 0.47969 0.479784 0.479871 0.479952 0.480023 0.480083 0.480132 
0.480169 0.480191 0.480199 0.480193 0.480172 0.480135 0.480084 0.480019 0.47994 
0.479851 0.479753 0.47965 0.479545 0.479442 0.479345 0.479257 0.479181 0.479121 
0.479077 0.479052 0.479047 0.479063 0.479102 0.479162 0.479242 0.479338 0.479445 
0.479559 0.479676 0.47979 0.479898 0.479995 0.480079 0.480148 0.480199 0.480231 
0.480243 0.480235 0.480207 0.480162 0.480098 0.480018 0.479923 0.479816 0.479703 