# vtk DataFile Version 5.1
vtk output
ASCII
DATASET UNSTRUCTURED_GRID
POINTS 10043 double
-10.1 1.4499999993 0 -10.049999999 1.4499999993 0 -10.049999999 1.5 0 
-9.9999999985 1.4499999993 0 -9.9999999985 1.5 0 -9.9499999978 1.4499999993 0 
-9.9499999978 1.5 0 -9.899999997 1.4499999993 0 -9.899999997 1.5 0 
-9.8499999963 1.4499999993 0 -9.8499999963 1.5 0 -9.7999999955 1.4499999993 0 
-9.7999999955 1.5 0 -9.7499999948 1.4499999993 0 -9.7499999948 1.5 0 
-9.699999994 1.4499999993 0 -9.699999994 1.5 0 -9.6499999933 1.4499999993 0 
-9.6499999933 1.5 0 -9.5999999925 1.4499999993 0 -9.5999999925 1.5 0 
-9.5499999918 1.4499999993 0 -9.5499999918 1.5 0 -9.4999999911 1.4499999993 0 
-9.4999999911 1.5 0 -9.4499999903 1.4499999993 0 -9.4499999903 1.5 0 
-9.3999999896 1.4499999993 0 -9.3999999896 1.5 0 -9.3499999888 1.4499999993 0 
-9.3499999888 1.5 0 -9.2999999881 1.4499999993 0 -9.2999999881 1.5 0 
-9.2499999873 1.4499999993 0 -9.2499999873 1.5 0 -9.1999999866 1.4499999993 0 
-9.1999999866 1.5 0 -9.1499999858 1.4499999993 0 -9.1499999858 1.5 0 
-9.0999999851 1.4499999993 0 -9.0999999851 1.5 0 -9.0499999844 1.4499999993 0 
-9.0499999844 1.5 0 -8.9999999836 1.4499999993 0 -8.9999999836 1.5 0 
-8.9499999829 1.4499999993 0 -8.9499999829 1.5 0 -8.8999999821 1.4499999993 0 
-8.8999999821 1.5 0 -8.8499999814 1.4499999993 0 -8.8499999814 1.5 0 
-8.7999999806 1.4499999993 0 -8.7999999806 1.5 0 -8.7499999799 1.4499999993 0 
-8.7499999799 1.5 0 -8.6999999791 1.4499999993 0 -8.6999999791 1.5 0 
-8.6499999784 1.4499999993 0 -8.6499999784 1.5 0 -8.5999999776 1.4499999993 0 
-8.5999999776 1.5 0 -8.5499999769 1.4499999993 0 -8.5499999769 1.5 0 
-8.4999999762 1.4499999993 0 -8.4999999762 1.5 0 -8.4499999754 1.4499999993 0 
-8.4499999754 1.5 0 -8.3999999747 1.4499999993 0 -8.3999999747 1.5 0 
-8.3499999739 1.4499999993 0 -8.3499999739 1.5 0 -8.2999999732 1.4499999993 0 
-8.2999999732 1.5 0 -8.2499999724 1.4499999993 0 -8.2499999724 1.5 0 
-8.1999999717 1.4499999993 0 -8.1999999717 1.5 0 -8.1499999709 1.4499999993 0 
-8.1499999709 1.5 0 -8.0999999702 1.4499999993 0 -8.0999999702 1.5 0 
-8.0499999695 1.4499999993 0 -8.0499999695 1.5 0 -7.9999999687 1.4499999993 0 
-7.9999999687 1.5 0 -7.949999968 1.4499999993 0 -7.949999968 1.5 0 
-7.8999999672 1.4499999993 0 -7.8999999672 1.5 0 -7.8499999665 1.4499999993 0 
-7.8499999665 1.5 0 -7.7999999657 1.4499999993 0 -7.7999999657 1.5 0 
-7.749999965 1.4499999993 0 -7.749999965 1.5 0 -7.6999999642 1.4499999993 0 
-7.6999999642 1.5 0 -7.6499999635 1.4499999993 0 -7.6499999635 1.5 0 
-7.5999999627 1.4499999993 0 -7.5999999627 1.5 0 -7.549999962 1.4499999993 0 
-7.549999962 1.5 0 -7.4999999613 1.4499999993 0 -7.4999999613 1.5 0 
-7.4499999605 1.4499999993 0 -7.4499999605 1.5 0 -7.3999999598 1.4499999993 0 
-7.3999999598 1.5 0 -7.349999959 1.4499999993 0 -7.349999959 1.5 0 
-7.2999999583 1.4499999993 0 -7.2999999583 1.5 0 -7.2499999575 1.4499999993 0 
-7.2499999575 1.5 0 -7.1999999568 1.4499999993 0 -7.1999999568 1.5 0 
-7.149999956 1.4499999993 0 -7.149999956 1.5 0 -7.0999999553 1.4499999993 0 
-7.0999999553 1.5 0 -7.0499999546 1.4499999993 0 -7.0499999546 1.5 0 
-6.9999999538 1.4499999993 0 -6.9999999538 1.5 0 -6.9499999531 1.4499999993 0 
-6.9499999531 1.5 0 -6.8999999523 1.4499999993 0 -6.8999999523 1.5 0 
-6.8499999516 1.4499999993 0 -6.8499999516 1.5 0 -6.7999999508 1.4499999993 0 
-6.7999999508 1.5 0 -6.7499999501 1.4499999993 0 -6.7499999501 1.5 0 
-6.6999999493 1.4499999993 0 -6.6999999493 1.5 0 -6.6499999486 1.4499999993 0 
-6.6499999486 1.5 0 -6.5999999478 1.4499999993 0 -6.5999999478 1.5 0 
-6.5499999471 1.4499999993 0 -6.5499999471 1.5 0 -6.4999999464 1.4499999993 0 
-6.4999999464 1.5 0 -6.4499999456 1.4499999993 0 -6.4499999456 1.5 0 
-6.3999999449 1.4499999993 0 -6.3999999449 1.5 0 -6.3499999441 1.4499999993 0 
-6.3499999441 1.5 0 -6.2999999434 1.4499999993 0 -6.2999999434 1.5 0 
-6.2499999426 1.4499999993 0 -6.2499999426 1.5 0 -6.1999999419 1.4499999993 0 
-6.1999999419 1.5 0 -6.1499999411 1.4499999993 0 -6.1499999411 1.5 0 
-6.0999999404 1.4499999993 0 -6.0999999404 1.5 0 -6.0499999397 1.4499999993 0 
-6.0499999397 1.5 0 -5.9999999389 1.4499999993 0 -5.9999999389 1.5 0 
-5.9499999382 1.4499999993 0 -5.9499999382 1.5 0 -5.8999999374 1.4499999993 0 
-5.8999999374 1.5 0 -5.8499999367 1.4499999993 0 -5.8499999367 1.5 0 
-5.7999999359 1.4499999993 0 -5.7999999359 1.5 0 -5.7499999352 1.4499999993 0 
-5.7499999352 1.5 0 -5.6999999344 1.4499999993 0 -5.6999999344 1.5 0 
-5.6499999337 1.4499999993 0 -5.6499999337 1.5 0 -5.5999999329 1.4499999993 0 
-5.5999999329 1.5 0 -5.5499999322 1.4499999993 0 -5.5499999322 1.5 0 
-5.4999999315 1.4499999993 0 -5.4999999315 1.5 0 -5.4499999307 1.4499999993 0 
-5.4499999307 1.5 0 -5.39999993 1.4499999993 0 -5.39999993 1.5 0 
-5.3499999292 1.4499999993 0 -5.3499999292 1.5 0 -5.2999999285 1.4499999993 0 
-5.2999999285 1.5 0 -5.2499999277 1.4499999993 0 -5.2499999277 1.5 0 
-5.199999927 1.4499999993 0 -5.199999927 1.5 0 -5.1499999262 1.4499999993 0 
-5.1499999262 1.5 0 -5.0999999255 1.4499999993 0 -5.0999999255 1.5 0 
-5.0499999247 1.4499999993 0 -5.0499999247 1.5 0 -4.999999924 1.4499999993 0 
-4.999999924 1.5 0 -4.9499999233 1.4499999993 0 -4.9499999233 1.5 0 
-4.8999999225 1.4499999993 0 -4.8999999225 1.5 0 -4.8499999218 1.4499999993 0 
-4.8499999218 1.5 0 -4.799999921 1.4499999993 0 -4.799999921 1.5 0 
-4.7499999203 1.4499999993 0 -4.7499999203 1.5 0 -4.6999999195 1.4499999993 0 
-4.6999999195 1.5 0 -4.6499999188 1.4499999993 0 -4.6499999188 1.5 0 
-4.599999918 1.4499999993 0 -4.599999918 1.5 0 -4.5499999173 1.4499999993 0 
-4.5499999173 1.5 0 -4.4999999166 1.4499999993 0 -4.4999999166 1.5 0 
-4.4499999158 1.4499999993 0 -4.4499999158 1.5 0 -4.3999999151 1.4499999993 0 
-4.3999999151 1.5 0 -4.3499999143 1.4499999993 0 -4.3499999143 1.5 0 
-4.2999999136 1.4499999993 0 -4.2999999136 1.5 0 -4.2499999128 1.4499999993 0 
-4.2499999128 1.5 0 -4.1999999121 1.4499999993 0 -4.1999999121 1.5 0 
-4.1499999113 1.4499999993 0 -4.1499999113 1.5 0 -4.0999999106 1.4499999993 0 
-4.0999999106 1.5 0 -4.0499999098 1.4499999993 0 -4.0499999098 1.5 0 
-3.9999999091 1.4499999993 0 -3.9999999091 1.5 0 -3.9499999084 1.4499999993 0 
-3.9499999084 1.5 0 -3.8999999076 1.4499999993 0 -3.8999999076 1.5 0 
-3.8499999069 1.4499999993 0 -3.8499999069 1.5 0 -3.7999999061 1.4499999993 0 
-3.7999999061 1.5 0 -3.7499999054 1.4499999993 0 -3.7499999054 1.5 0 
-3.6999999046 1.4499999993 0 -3.6999999046 1.5 0 -3.6499999039 1.4499999993 0 
-3.6499999039 1.5 0 -3.5999999031 1.4499999993 0 -3.5999999031 1.5 0 
-3.5499999024 1.4499999993 0 -3.5499999024 1.5 0 -3.4999999017 1.4499999993 0 
-3.4999999017 1.5 0 -3.4499999009 1.4499999993 0 -3.4499999009 1.5 0 
-3.3999999002 1.4499999993 0 -3.3999999002 1.5 0 -3.3499998994 1.4499999993 0 
-3.3499998994 1.5 0 -3.2999998987 1.4499999993 0 -3.2999998987 1.5 0 
-3.2499998979 1.4499999993 0 -3.2499998979 1.5 0 -3.1999998972 1.4499999993 0 
-3.1999998972 1.5 0 -3.1499998964 1.4499999993 0 -3.1499998964 1.5 0 
-3.0999998957 1.4499999993 0 -3.0999998957 1.5 0 -3.0499998949 1.4499999993 0 
-3.0499998949 1.5 0 -2.9999998942 1.4499999993 0 -2.9999998942 1.5 0 
-2.9499998935 1.4499999993 0 -2.9499998935 1.5 0 -2.8999998927 1.4499999993 0 
-2.8999998927 1.5 0 -2.849999892 1.4499999993 0 -2.849999892 1.5 0 
-2.7999998912 1.4499999993 0 -2.7999998912 1.5 0 -2.7499998905 1.4499999993 0 
-2.7499998905 1.5 0 -2.6999998897 1.4499999993 0 -2.6999998897 1.5 0 
-2.649999889 1.4499999993 0 -2.649999889 1.5 0 -2.5999998882 1.4499999993 0 
-2.5999998882 1.5 0 -2.5499998875 1.4499999993 0 -2.5499998875 1.5 0 
-2.4999998868 1.4499999993 0 -2.4999998868 1.5 0 -2.449999886 1.4499999993 0 
-2.449999886 1.5 0 -2.3999998853 1.4499999993 0 -2.3999998853 1.5 0 
-2.3499998845 1.4499999993 0 -2.3499998845 1.5 0 -2.2999998838 1.4499999993 0 
-2.2999998838 1.5 0 -2.249999883 1.4499999993 0 -2.249999883 1.5 0 
-2.1999998823 1.4499999993 0 -2.1999998823 1.5 0 -2.1499998815 1.4499999993 0 
-2.1499998815 1.5 0 -2.0999998808 1.4499999993 0 -2.0999998808 1.5 0 
-2.04999988 1.4499999993 0 -2.04999988 1.5 0 -1.9999998793 1.4499999993 0 
-1.9999998793 1.5 0 -1.9499998786 1.4499999993 0 -1.9499998786 1.5 0 
-1.8999998778 1.4499999993 0 -1.8999998778 1.5 0 -1.8499998771 1.4499999993 0 
-1.8499998771 1.5 0 -1.7999998763 1.4499999993 0 -1.7999998763 1.5 0 
-1.7499998756 1.4499999993 0 -1.7499998756 1.5 0 -1.6999998748 1.4499999993 0 
-1.6999998748 1.5 0 -1.6499998741 1.4499999993 0 -1.6499998741 1.5 0 
-1.5999998733 1.4499999993 0 -1.5999998733 1.5 0 -1.5499998726 1.4499999993 0 
-1.5499998726 1.5 0 -1.4999998718 1.4499999993 0 -1.4999998718 1.5 0 
-1.4499998711 1.4499999993 0 -1.4499998711 1.5 0 -1.3999998704 1.4499999993 0 
-1.3999998704 1.5 0 -1.3499998696 1.4499999993 0 -1.3499998696 1.5 0 
-1.2999998689 1.4499999993 0 -1.2999998689 1.5 0 -1.2499998681 1.4499999993 0 
-1.2499998681 1.5 0 -1.1999998674 1.4499999993 0 -1.1999998674 1.5 0 
-1.1499998666 1.4499999993 0 -1.1499998666 1.5 0 -1.0999998659 1.4499999993 0 
-1.0999998659 1.5 0 -1.0499998651 1.4499999993 0 -1.0499998651 1.5 0 
-0.9999998644 1.4499999993 0 -0.9999998644 1.5 0 -0.94999986365 1.4499999993 0 
-0.94999986365 1.5 0 -0.89999986291 1.4499999993 0 -0.89999986291 1.5 0 
-0.84999986216 1.4499999993 0 -0.84999986216 1.5 0 -0.79999986142 1.4499999993 0 
-0.79999986142 1.5 0 -0.74999986067 1.4499999993 0 -0.74999986067 1.5 0 
-0.69999985993 1.4499999993 0 -0.69999985993 1.5 0 -0.64999985918 1.4499999993 0 
-0.64999985918 1.5 0 -0.59999985844 1.4499999993 0 -0.59999985844 1.5 0 
-0.54999985769 1.4499999993 0 -0.54999985769 1.5 0 -0.49999985695 1.4499999993 0 
-0.49999985695 1.5 0 -0.4499998562 1.4499999993 0 -0.4499998562 1.5 0 
-0.39999985546 1.4499999993 0 -0.39999985546 1.5 0 -0.34999985471 1.4499999993 0 
-0.34999985471 1.5 0 -0.29999985397 1.4499999993 0 -0.29999985397 1.5 0 
-0.24999985322 1.4499999993 0 -0.24999985322 1.5 0 -0.191663057 1.4499999993 0 
-0.17548248559 1.5 0 0.18862900414 1.4499999993 0 0.25000015423 1.4499999993 0 
[...]
CELL_DATA 9510
FIELD FieldData 4
Water_Depth_m 1 9510 float
0.479955 0.479863 0.479771 0.479678 0.479584 0.47949 0.479395 0.4793 0.479204 
0.479109 0.479013 0.478917 0.478821 0.478725 0.478629 0.478533 0.478437 0.478341 
0.478245 0.478149 0.478052 0.477956 0.477861 0.477765 0.47767 0.477576 0.477482 
0.47739 0.4773 0.477211 0.477126 0.477043 0.476964 0.47689 0.476821 0.476758 
0.476702 0.476653 0.476613 0.476583 0.476562 0.476552 0.476553 0.476566 0.476591 
0.476628 0.476677 0.476737 0.476808 0.476889 0.476978 0.477075 0.477179 0.477288 
0.4774 0.477516 0.477632 0.477748 0.477864 0.477978 0.478089 0.478196 0.478298 
0.478396 0.478488 0.478573 0.478652 0.478724 0.478788 0.478845 0.478894 0.478935 
0.478968 0.478992 0.479009 0.479016 0.479015 0.479006 0.478988 0.478961 0.478926 
0.478881 0.478828 0.478765 0.478694 0.478614 0.478524 0.478426 0.478319 0.478203 
0.478079 0.477946 0.477806 0.477659 0.477504 0.477343 0.477177 0.477005 0.476831 
0.476653 0.476475 0.476298 0.476123 0.475954 0.475792 0.47564 0.475502 0.475381 
0.47528 0.475202 0.47515 0.475125 0.475129 0.475162 0.475222 0.475307 0.475415 
0.475541 0.475682 0.475832 0.475988 0.476144 0.476298 0.476445 0.476582 0.476707 
0.476818 0.476914 0.476994 0.477058 0.477105 0.477136 0.477151 0.477151 0.477138 
0.477111 0.477072 0.477022 0.476962 0.476894 0.47682 0.47674 0.476658 0.476576 
0.476494 0.476415 0.476341 0.476274 0.476214 0.476161 0.476117 0.476082 0.476054 
0.476034 0.47602 0.476012 0.476009 0.47601 0.476016 0.476025 0.476037 0.476052 
0.476069 0.476088 0.476108 0.476128 0.476148 0.476168 0.476186 0.476204 0.476221 
0.476238 0.476254 0.47627 0.476288 0.476307 0.476328 0.476353 0.476382 0.476416 
0.476456 0.476504 0.47656 0.476626 0.476704 0.476793 0.476897 0.477016 0.477153 
0.477308 0.477484 0.477681 0.477901 0.478145 0.478412 0.478704 0.479016 0.479416 
0.482553 0.482895 0.483177 0.483436 0.483672 0.483886 0.484079 0.484252 0.484406 
0.484543 0.484665 0.484773 0.484868 0.484953 0.485027 0.485092 0.48515 0.4852 
0.485244 0.485283 0.485317 0.485347 0.485373 0.485396 0.485416 0.485433 0.485448 
0.485461 0.485471 0.485481 0.485488 0.485495 0.4855 0.485505 0.485508 0.485511 
0.485513 0.485514 0.485515 0.485515 0.485515 0.485515 0.485514 0.485513 0.485511 
0.48551 0.485508 0.485506 0.485504 0.485502 0.4855 0.485498 0.485496 0.485493 
0.485491 0.485489 0.485486 0.485484 0.485482 0.485479 0.485477 0.485475 0.485473 
0.48547 0.485468 0.485466 0.485464 0.485462 0.485461 0.485459 0.485457 0.485456 
0.485454 0.485453 0.485451 0.48545 0.485449 0.485448 0.485447 0.485446 0.485445 
0.485444 0.485443 0.485443 0.485442 0.485442 0.485441 0.485441 0.485441 0.485441 
0.485441 0.485441 0.485441 0.485442 0.485442 0.485443 0.479976 0.479955 0.479863 
0.479771 0.479677 0.479583 0.479489 0.479394 0.479299 0.479203 0.479108 0.479012 
0.478916 0.47882 0.478724 0.478627 0.478531 0.478435 0.478339 0.478242 0.478146 
0.47805 0.477953 0.477857 0.477762 0.477666 0.477572 0.477478 0.477385 0.477295 
0.477206 0.47712 0.477036 0.476957 0.476882 0.476813 0.476749 0.476693 0.476644 
0.476603 0.476572 0.476551 0.476541 0.476542 0.476554 0.476579 0.476616 0.476665 
0.476726 0.476797 0.476878 0.476968 0.477066 0.47717 0.477279 0.477392 0.477508 
0.477625 0.477743 0.477859 0.477973 0.478085 0.478193 0.478296 0.478395 0.478488 
0.478574 0.478654 0.478726 0.478792 0.478849 0.478899 0.478941 0.478974 0.478999 
0.479016 0.479024 0.479024 0.479015 0.478997 0.47897 0.478934 0.47889 0.478836 
0.478773 0.478702 0.478621 0.478531 0.478432 0.478324 0.478207 0.478082 0.477949 
0.477807 0.477658 0.477502 0.47734 0.477172 0.476999 0.476823 0.476644 0.476464 
0.476284 0.476108 0.475936 0.475772 0.475618 0.475478 0.475355 0.475253 0.475174 
0.475121 0.475096 0.475101 0.475135 0.475197 0.475285 0.475395 0.475525 0.475669 
0.475823 0.475982 0.476142 0.476299 0.476448 0.476588 0.476716 0.476829 0.476926 
0.477007 0.477071 0.477119 0.47715 0.477165 0.477165 0.477151 0.477123 0.477083 
0.477031 0.47697 0.4769 0.476823 0.476742 0.476658 0.476573 0.47649 0.476409 
0.476334 0.476266 0.476205 0.476152 0.476109 0.476074 0.476047 0.476027 0.476014 
0.476007 0.476004 0.476006 0.476012 0.476022 0.476035 0.47605 0.476068 0.476087 
0.476107 0.476128 0.476148 0.476168 0.476187 0.476205 0.476222 0.476238 0.476254 
0.476269 0.476286 0.476304 0.476325 0.476349 0.476377 0.47641 0.476449 0.476496 
0.476551 0.476615 0.476691 0.476779 0.476881 0.476998 0.477133 0.477286 0.477459 
0.477655 0.477873 0.478114 0.478381 0.478671 0.478989 0.479379 0.482554 0.482899 
0.483184 0.483445 0.483682 0.483897 0.484089 0.484262 0.484416 0.484553 0.484674 
0.484782 0.484876 0.48496 0.485033 0.485098 0.485155 0.485205 0.485249 0.485287 
0.485321 0.485351 0.485376 0.485399 0.485418 0.485435 0.48545 0.485462 0.485473 
0.485482 0.48549 0.485496 0.485501 0.485506 0.485509 0.485512 0.485513 0.485515 
0.485515 0.485516 0.485516 0.485515 0.485514 0.485513 0.485512 0.48551 0.485508 
0.485507 0.485504 0.485502 0.4855 0.485498 0.485496 0.485493 0.485491 0.485489 
0.485486 0.485484 0.485482 0.485479 0.485477 0.485475 0.485473 0.48547 0.485468 
0.485466 0.485464 0.485463 0.485461 0.485459 0.485457 0.485456 0.485454 0.485453 
0.485451 0.48545 0.485449 0.485448 0.485447 0.485446 0.485445 0.485444 0.485443 
0.485443 0.485442 0.485442 0.485441 0.485441 0.485441 0.485441 0.485441 0.485441 
0.485441 0.485442 0.485442 0.485443 0.479976 0.479955 0.479863 0.47977 0.479676 
0.479582 0.479487 0.479392 0.479297 0.479201 0.479105 0.479009 0.478913 0.478816 
0.47872 0.478624 0.478527 0.478431 0.478334 0.478237 0.478141 0.478044 0.477948 
0.477851 0.477755 0.477659 0.477564 0.477469 0.477376 0.477284 0.477194 0.477107 
0.477023 0.476943 0.476867 0.476797 0.476732 0.476675 0.476625 0.476583 0.476551 
0.476529 0.476518 0.476519 0.476531 0.476555 0.476592 0.476641 0.476702 0.476774 
0.476856 0.476947 0.477046 0.477151 0.477262 0.477376 0.477493 0.477612 0.477731 
0.477849 0.477965 0.478078 0.478188 0.478293 0.478393 0.478487 0.478576 0.478657 
0.478732 0.478799 0.478858 0.478909 0.478952 0.478987 0.479013 0.479031 0.47904 
0.47904 0.479031 0.479014 0.478987 0.478952 0.478907 0.478853 0.47879 0.478717 
0.478635 0.478544 0.478444 0.478334 0.478216 0.478089 0.477953 0.477809 0.477657 
0.477499 0.477333 0.477162 0.476986 0.476806 0.476624 0.47644 0.476257 0.476076 
0.4759 0.475732 0.475574 0.475431 0.475304 0.475198 0.475117 0.475064 0.475039 
0.475045 0.475081 0.475146 0.475239 0.475355 0.475491 0.475642 0.475803 0.47597 
0.476137 0.4763 0.476456 0.476601 0.476732 0.476849 0.47695 0.477033 0.477099 
0.477147 0.477179 0.477193 0.477192 0.477177 0.477147 0.477104 0.47705 0.476985 
0.476911 0.476831 0.476746 0.476657 0.476568 0.476481 0.476397 0.476319 0.476249 
0.476187 0.476134 0.476091 0.476057 0.476032 0.476014 0.476002 0.475997 0.475995 
0.475999 0.476006 0.476016 0.47603 0.476046 0.476065 0.476085 0.476106 0.476128 
0.47615 0.47617 0.476189 0.476207 0.476223 0.476239 0.476253 0.476268 0.476283 
0.4763 0.476319 0.476341 0.476367 0.476398 0.476435 0.476479 0.476532 0.476593 
0.476666 0.47675 0.476849 0.476962 0.477093 0.477242 0.477411 0.477602 0.477816 
0.478054 0.478317 0.478606 0.478923 0.479312 0.482556 0.482908 0.483198 0.483462 
0.483702 0.483918 0.484111 0.484283 0.484437 0.484572 0.484693 0.484799 0.484892 
0.484974 0.485047 0.48511 0.485166 0.485215 0.485258 0.485296 0.485328 0.485357 
0.485382 0.485404 0.485423 0.48544 0.485454 0.485466 0.485476 0.485485 0.485492 
0.485498 0.485503 0.485507 0.485511 0.485513 0.485515 0.485516 0.485517 0.485517 
0.485516 0.485516 0.485515 0.485514 0.485512 0.485511 0.485509 0.485507 0.485505 
0.485503 0.4855 0.485498 0.485496 0.485494 0.485491 0.485489 0.485486 0.485484 
0.485482 0.485479 0.485477 0.485475 0.485473 0.485471 0.485468 0.485466 0.485464 
0.485463 0.485461 0.485459 0.485457 0.485456 0.485454 0.485453 0.485451 0.48545 
0.485449 0.485448 0.485447 0.485446 0.485445 0.485444 0.485443 0.485443 0.485442 
0.485442 0.485441 0.485441 0.485441 0.485441 0.485441 0.485441 0.485441 0.485442 
0.485442 0.485443 0.479976 0.479955 0.479862 0.479769 0.479675 0.47958 0.479485 
0.47939 0.479294 0.479198 0.479101 0.479005 0.478908 0.478812 0.478715 0.478618 
0.478521 0.478424 0.478327 0.47823 0.478133 0.478036 0.477939 0.477841 0.477744 
0.477647 0.477551 0.477456 0.477361 0.477268 0.477177 0.477089 0.477004 0.476922 
0.476845 0.476773 0.476707 0.476647 0.476596 0.476553 0.47652 0.476497 0.476484 
0.476484 0.476495 0.476519 0.476556 0.476606 0.476667 0.47674 0.476824 0.476916 
0.477016 0.477124 0.477236 0.477353 0.477472 0.477592 0.477713 0.477833 0.477952 
0.478067 0.47818 0.478287 0.47839 0.478487 0.478578 0.478662 0.478739 0.478809 
0.47887 0.478924 0.478969 0.479006 0.479034 0.479053 0.479063 0.479064 0.479056 
0.47904 0.479013 0.478978 0.478932 0.478878 0.478814 0.47874 0.478657 0.478564 
0.478462 0.47835 0.478228 0.478098 0.477959 0.477812 0.477656 0.477493 0.477324 
0.477148 0.476967 0.476782 0.476594 0.476405 0.476215 0.476028 0.475846 0.475671 
0.475507 0.475357 0.475225 0.475115 0.47503 0.474975 0.47495 0.474958 0.474998 
0.475069 0.475168 0.475293 0.47544 0.475602 0.475774 0.475951 0.476129 0.476302 
0.476467 0.47662 0.476758 0.476881 0.476986 0.477072 0.47714 0.47719 0.477222 
0.477236 0.477234 0.477216 0.477183 0.477137 0.477078 0.477008 0.476929 0.476842 
0.47675 0.476655 0.47656 0.476466 0.476378 0.476295 0.476222 0.476159 0.476106 
0.476064 0.476032 0.47601 0.475994 0.475985 0.475982 0.475982 0.475987 0.475995 
0.476007 0.476022 0.476039 0.47606 0.476082 0.476105 0.476129 0.476152 0.476173 
0.476193 0.47621 0.476226 0.47624 0.476253 0.476266 0.476279 0.476293 0.476309 
0.476329 0.476352 0.47638 0.476414 0.476454 0.476503 0.476561 0.476628 0.476708 
0.476801 0.476908 0.477033 0.477175 0.477337 0.477522 0.47773 0.477962 0.478221 
0.478506 0.478823 0.479212 0.482559 0.482923 0.483219 0.483489 0.483732 0.48395 
0.484144 0.484316 0.484468 0.484602 0.48472 0.484824 0.484916 0.484996 0.485066 
0.485128 0.485182 0.48523 0.485271 0.485308 0.485339 0.485367 0.485391 0.485412 
0.48543 0.485446 0.485459 0.485471 0.485481 0.485489 0.485496 0.485502 0.485507 
0.48551 0.485513 0.485515 0.485517 0.485518 0.485518 0.485518 0.485518 0.485517 
0.485516 0.485515 0.485513 0.485511 0.48551 0.485508 0.485505 0.485503 0.485501 
0.485499 0.485496 0.485494 0.485491 0.485489 0.485487 0.485484 0.485482 0.48548 
0.485477 0.485475 0.485473 0.485471 0.485469 0.485467 0.485465 0.485463 0.485461 
0.485459 0.485457 0.485456 0.485454 0.485453 0.485451 0.48545 0.485449 0.485448 
0.485447 0.485446 0.485445 0.485444 0.485443 0.485443 0.485442 0.485442 0.485442 
0.485441 0.485441 0.485441 0.485441 0.485441 0.485441 0.485442 0.485442 0.485443 
0.479976 0.479954 0.479861 0.479768 0.479673 0.479578 0.479482 0.479386 0.47929 
0.479193 0.479096 0.478999 0.478902 0.478805 0.478708 0.478611 0.478513 0.478416 
0.478318 0.478221 0.478123 0.478025 0.477927 0.477828 0.47773 0.477632 0.477535 
0.477438 0.477342 0.477247 0.477155 0.477064 0.476977 0.476894 0.476814 0.47674 
0.476672 0.476611 0.476558 0.476513 0.476478 0.476453 0.476439 0.476438 0.476448 
0.476472 0.476509 0.476559 0.476622 0.476696 0.476781 0.476876 0.476978 0.477088 
0.477203 0.477322 0.477443 0.477567 0.47769 0.477813 0.477935 0.478053 0.478169 
0.47828 0.478386 0.478487 0.478581 0.478669 0.478749 0.478822 0.478887 0.478943 
0.478991 0.47903 0.479061 0.479082 0.479094 0.479097 0.47909 0.479074 0.479048 
0.479012 0.478967 0.478911 0.478846 0.478771 0.478686 0.47859 0.478485 0.47837 
0.478245 0.478111 0.477967 0.477815 0.477654 0.477486 0.477311 0.477129 0.476941 
0.476749 0.476554 0.476357 0.476159 0.475964 0.475773 0.475589 0.475415 0.475257 
0.475117 0.475 0.474911 0.474852 0.474828 0.474838 0.474883 0.474961 0.47507 
0.475208 0.475369 0.475546 0.475734 0.475926 0.476119 0.476305 0.476482 0.476645 
0.476793 0.476923 0.477034 0.477125 0.477196 0.477247 0.47728 0.477293 0.477289 
0.477268 0.477232 0.477181 0.477116 0.477039 0.476953 0.476858 0.476757 0.476653 
0.476548 0.476446 0.47635 0.476262 0.476185 0.476119 0.476067 0.476027 0.475998 
0.475979 0.475968 0.475963 0.475962 0.475966 0.475972 0.475982 0.475995 0.476011 
0.47603 0.476053 0.476078 0.476104 0.47613 0.476155 0.476178 0.476198 0.476215 
0.47623 0.476243 0.476253 0.476263 0.476273 0.476284 0.476297 0.476313 0.476332 
0.476356 0.476386 0.476422 0.476466 0.476518 0.476579 0.476652 0.476738 0.476837 
0.476953 0.477086 0.47724 0.477415 0.477614 0.477838 0.47809 0.478371 0.478685 
0.479075 0.482564 0.482943 0.48325 0.483527 0.483775 0.483994 0.484188 0.484359 
0.48451 0.484642 0.484757 0.484859 0.484947 0.485025 0.485093 0.485152 0.485204 
0.485249 0.485289 0.485323 0.485354 0.48538 0.485403 0.485423 0.48544 0.485454 
0.485467 0.485478 0.485487 0.485495 0.485501 0.485506 0.485511 0.485514 0.485516 
0.485518 0.485519 0.48552 0.48552 0.48552 0.485519 0.485519 0.485517 0.485516 
0.485514 0.485512 0.48551 0.485508 0.485506 0.485504 0.485502 0.485499 0.485497 
0.485494 0.485492 0.485489 0.485487 0.485485 0.485482 0.48548 0.485478 0.485475 
0.485473 0.485471 0.485469 0.485467 0.485465 0.485463 0.485461 0.485459 0.485457 
0.485456 0.485454 0.485453 0.485451 0.48545 0.485449 0.485448 0.485447 0.485446 
0.485445 0.485444 0.485443 0.485443 0.485442 0.485442 0.485442 0.485441 0.485441 
0.485441 0.485441 0.485441 0.485441 0.485442 0.485442 0.485443 0.479976 0.479954 
0.479861 0.479766 0.479671 0.479575 0.479479 0.479382 0.479285 0.479188 0.47909 
0.478992 0.478895 0.478797 0.478699 0.478601 0.478503 0.478405 0.478307 0.478208 
0.47811 0.478011 0.477912 0.477812 0.477713 0.477613 0.477514 0.477416 0.477318 
0.477221 0.477126 0.477034 0.476944 0.476858 0.476777 0.4767 0.47663 0.476566 
0.47651 0.476463 0.476426 0.476399 0.476384 0.476381 0.476391 0.476414 0.476452 
0.476503 0.476567 0.476644 0.476731 0.476828 0.476934 0.477046 0.477163 0.477285 
0.47741 0.477536 0.477663 0.477789 0.477914 0.478037 0.478156 0.478271 0.478381 
0.478486 0.478585 0.478676 0.478761 0.478838 0.478907 0.478967 0.479018 0.479061 
0.479094 0.479118 0.479132 0.479137 0.479131 0.479116 0.479091 0.479055 0.479009 
0.478953 0.478886 0.478809 0.478722 0.478623 0.478515 0.478395 0.478266 0.478127 
0.477978 0.477819 0.477652 0.477477 0.477294 0.477105 0.476909 0.476708 0.476504 
0.476297 0.476089 0.475882 0.475679 0.475483 0.475298 0.475127 0.474977 0.474851 
0.474755 0.474693 0.474668 0.474681 0.474733 0.47482 0.474943 0.475098 0.475277 
0.475475 0.475683 0.475895 0.476106 0.47631 0.476502 0.476679 0.476838 0.476977 
0.477095 0.477192 0.477266 0.47732 0.477352 0.477365 0.477359 0.477335 0.477293 
0.477236 0.477164 0.477079 0.476983 0.476877 0.476764 0.476648 0.476531 0.476418 
0.476311 0.476216 0.476134 0.476066 0.476015 0.475978 0.475955 0.475941 0.475936 
0.475936 0.475939 0.475946 0.475954 0.475965 0.475979 0.475997 0.476019 0.476044 
0.476073 0.476103 0.476132 0.47616 0.476185 0.476206 0.476223 0.476236 0.476247 
0.476254 0.476261 0.476267 0.476274 0.476282 0.476294 0.476309 0.476328 0.476352 
0.476383 0.47642 0.476465 0.476519 0.476584 0.47666 0.47675 0.476854 0.476976 
0.477117 0.47728 0.477467 0.477681 0.477923 0.478195 0.478506 0.478895 0.482573 
0.482973 0.483293 0.483578 0.48383 0.484052 0.484246 0.484415 0.484563 0.484692 
0.484804 0.484901 0.484986 0.48506 0.485125 0.485181 0.48523 0.485273 0.48531 
0.485343 0.485371 0.485396 0.485417 0.485435 0.485451 0.485465 0.485476 0.485486 
0.485495 0.485502 0.485507 0.485512 0.485516 0.485518 0.48552 0.485522 0.485523 
0.485523 0.485523 0.485522 0.485522 0.48552 0.485519 0.485517 0.485516 0.485514 
0.485512 0.485509 0.485507 0.485505 0.485502 0.4855 0.485497 0.485495 0.485492 
0.48549 0.485487 0.485485 0.485483 0.48548 0.485478 0.485475 0.485473 0.485471 
0.485469 0.485467 0.485465 0.485463 0.485461 0.485459 0.485458 0.485456 0.485454 
0.485453 0.485451 0.48545 0.485449 0.485448 0.485447 0.485446 0.485445 0.485444 
0.485443 0.485443 0.485442 0.485442 0.485442 0.485441 0.485441 0.485441 0.485441 
0.485441 0.485441 0.485442 0.485442 0.485443 0.479976 0.479954 0.47986 0.479764 
0.479668 0.479571 0.479474 0.479377 0.479279 0.479181 0.479082 0.478984 0.478886 
0.478787 0.478689 0.47859 0.478491 0.478392 0.478293 0.478194 0.478094 0.477994 
0.477894 0.477793 0.477692 0.477591 0.47749 0.477389 0.477289 0.47719 0.477093 
0.476998 0.476906 0.476817 0.476733 0.476654 0.47658 0.476514 0.476455 0.476406 
0.476367 0.476338 0.476322 0.476318 0.476327 0.476351 0.476389 0.476442 0.476509 
0.476587 0.476677 0.476777 0.476885 0.477 0.477121 0.477246 0.477374 0.477503 
0.477633 0.477763 0.477892 0.478018 0.478141 0.478261 0.478376 0.478485 0.478589 
0.478686 0.478775 0.478857 0.47893 0.478995 0.47905 0.479097 0.479134 0.479161 
0.479177 0.479184 0.479181 0.479166 0.479142 0.479106 0.47906 0.479002 0.478934 
0.478855 0.478764 0.478663 0.47855 0.478426 0.478291 0.478145 0.47799 0.477824 
0.477649 0.477466 0.477274 0.477075 0.47687 0.476659 0.476443 0.476224 0.476003 
0.475782 0.475565 0.475353 0.475152 0.474967 0.474802 0.474664 0.474559 0.474492 
0.474467 0.474485 0.474545 0.474644 0.474787 0.474964 0.475169 0.475392 0.475625 
0.475861 0.476094 0.476318 0.476528 0.476721 0.476893 0.477043 0.47717 0.477273 
0.477351 0.477407 0.47744 0.477451 0.477442 0.477414 0.477367 0.477303 0.477223 
0.477128 0.477019 0.4769 0.476773 0.476641 0.476508 0.47638 0.476261 0.476155 
0.476066 0.475997 0.475948 0.475917 0.475901 0.475896 0.475899 0.475906 0.475914 
0.475923 0.475933 0.475945 0.47596 0.475979 0.476003 0.476033 0.476067 0.476102 
0.476137 0.476168 0.476196 0.476218 0.476234 0.476246 0.476253 0.476257 0.476259 
0.47626 0.476262 0.476265 0.476271 0.476281 0.476294 0.476313 0.476337 0.476367 
0.476404 0.476449 0.476504 0.476569 0.476646 0.476738 0.476845 0.476971 0.477119 
0.47729 0.477489 0.477717 0.477978 0.478279 0.478665 0.482589 0.483013 0.483349 
0.483644 0.483901 0.484124 0.484317 0.484484 0.484628 0.484752 0.484859 0.484952 
0.485033 0.485103 0.485163 0.485216 0.485262 0.485301 0.485336 0.485366 0.485392 
0.485414 0.485434 0.485451 0.485465 0.485477 0.485488 0.485496 0.485504 0.48551 
0.485514 0.485518 0.485521 0.485524 0.485525 0.485526 0.485527 0.485527 0.485526 
0.485525 0.485524 0.485523 0.485521 0.485519 0.485517 0.485515 0.485513 0.485511 
0.485508 0.485506 0.485503 0.485501 0.485498 0.485496 0.485493 0.48549 0.485488 
0.485485 0.485483 0.48548 0.485478 0.485476 0.485473 0.485471 0.485469 0.485467 
0.485465 0.485463 0.485461 0.485459 0.485458 0.485456 0.485454 0.485453 0.485452 
0.48545 0.485449 0.485448 0.485447 0.485446 0.485445 0.485444 0.485443 0.485443 
0.485442 0.485442 0.485442 0.485441 0.485441 0.485441 0.485441 0.485441 0.485441 
0.485442 0.485442 0.485443 0.479976 0.479953 0.479858 0.479762 0.479665 0.479567 
0.479469 0.47937 0.479271 0.479172 0.479073 0.478974 0.478875 0.478775 0.478676 
0.478577 0.478477 0.478377 0.478277 0.478177 0.478076 0.477974 0.477873 0.47777 
0.477668 0.477565 0.477462 0.477359 0.477257 0.477155 0.477056 0.476958 0.476863 
0.476772 0.476685 0.476603 0.476527 0.476458 0.476397 0.476346 0.476304 0.476274 
0.476257 0.476252 0.476262 0.476287 0.476327 0.476382 0.476451 0.476532 0.476624 
0.476727 0.476838 0.476955 0.477079 0.477206 0.477337 0.477469 0.477603 0.477736 
0.477868 0.477999 0.478127 0.478251 0.478371 0.478485 0.478594 0.478696 0.478791 
0.478878 0.478957 0.479026 0.479087 0.479138 0.479179 0.479209 0.479229 0.479239 
0.479237 0.479224 0.4792 0.479165 0.479118 0.47906 0.47899 0.478908 0.478814 
0.478708 0.47859 0.478461 0.47832 0.478167 0.478003 0.477829 0.477646 0.477452 
0.477251 0.477041 0.476824 0.476601 0.476371 0.476138 0.475902 0.475664 0.475428 
0.475198 0.474977 0.474772 0.474589 0.474436 0.47432 0.474248 0.474224 0.47425 
0.474324 0.474444 0.474614 0.474821 0.475056 0.475309 0.47557 0.475833 0.47609 
0.476335 0.476565 0.476774 0.476961 0.477123 0.477259 0.477368 0.477451 0.477509 
0.477541 0.477551 0.477539 0.477507 0.477454 0.477382 0.477292 0.477185 0.477063 