# vtk DataFile Version 5.1
vtk output
ASCII
DATASET UNSTRUCTURED_GRID
POINTS 10043 double
-10.1 1.4499999993 -1.9274396834e-07 -10.049999999 1.4499999993 -1.0286679952e-07 -10.049999999 1.5 3.682841907e-07 
-9.9999999985 1.4499999993 -6.8151386756e-08 -9.9999999985 1.5 2.5468375497e-07 -9.9499999978 1.4499999993 -5.1095629061e-08 
-9.9499999978 1.5 1.9264986406e-07 -9.899999997 1.4499999993 -4.0350858654e-08 -9.899999997 1.5 1.5276852139e-07 
-9.8499999963 1.4499999993 -3.2863898269e-08 -9.8499999963 1.5 1.2472970923e-07 -9.7999999955 1.4499999993 -2.7287788029e-08 
-9.7999999955 1.5 1.0373583592e-07 -9.7499999948 1.4499999993 -2.2929489418e-08 -9.7499999948 1.5 8.7447695307e-08 
-9.699999994 1.4499999993 -1.9562540032e-08 -9.699999994 1.5 7.4291854446e-08 -9.6499999933 1.4499999993 -1.6707636163e-08 
-9.6499999933 1.5 6.3600744227e-08 -9.5999999925 1.4499999993 -1.4355682865e-08 -9.5999999925 1.5 5.458856478e-08 
-9.5499999918 1.4499999993 -1.2282944439e-08 -9.5499999918 1.5 4.6846036383e-08 -9.4999999911 1.4499999993 -1.0586736821e-08 
-9.4999999911 1.5 4.032859735e-08 -9.4499999903 1.4499999993 -9.0751566262e-09 -9.4499999903 1.5 3.459696174e-08 
-9.3999999896 1.4499999993 -7.8036830331e-09 -9.3999999896 1.5 2.9495604181e-08 -9.3499999888 1.4499999993 -6.5804126592e-09 
-9.3499999888 1.5 2.5005428839e-08 -9.2999999881 1.4499999993 -5.5172133528e-09 -9.2999999881 1.5 2.1062769306e-08 
-9.2499999873 1.4499999993 -4.6013521882e-09 -9.2499999873 1.5 1.7450256351e-08 -9.1999999866 1.4499999993 -3.7318752533e-09 
-9.1999999866 1.5 1.4277029337e-08 -9.1499999858 1.4499999993 -2.9897273546e-09 -9.1499999858 1.5 1.1356641849e-08 
-9.0999999851 1.4499999993 -2.2785024978e-09 -9.0999999851 1.5 8.6863654047e-09 -9.0499999844 1.4499999993 -1.6245758072e-09 
-9.0499999844 1.5 6.2780234344e-09 -8.9999999836 1.4499999993 -1.076150502e-09 -8.9999999836 1.5 4.1143355389e-09 
-8.9499999829 1.4499999993 -5.8411386838e-10 -8.9499999829 1.5 2.0406878409e-09 -8.8999999821 1.4499999993 -2.946753952e-12 
-8.8999999821 1.5 2.1806045858e-10 -8.8499999814 1.4499999993 2.9991498174e-10 -8.8499999814 1.5 -1.558182694e-09 
-8.7999999806 1.4499999993 7.937706048e-10 -8.7999999806 1.5 -3.0870432877e-09 -8.7499999799 1.4499999993 1.1730298954e-09 
-8.7499999799 1.5 -4.5158596862e-09 -8.6999999791 1.4499999993 1.3562930778e-09 -8.6999999791 1.5 -5.2411817109e-09 
-8.6499999784 1.4499999993 1.6878038966e-09 -8.6499999784 1.5 -6.4694543056e-09 -8.5999999776 1.4499999993 2.017495726e-09 
-8.5999999776 1.5 -7.6718063013e-09 -8.5499999769 1.4499999993 2.2867061578e-09 -8.5499999769 1.5 -8.7863920584e-09 
-8.4999999762 1.4499999993 2.5709232521e-09 -8.4999999762 1.5 -9.7677368416e-09 -8.4499999754 1.4499999993 2.786018749e-09 
-8.4499999754 1.5 -1.0780459192e-08 -8.3999999747 1.4499999993 3.0547744334e-09 -8.3999999747 1.5 -1.1589909477e-08 
-8.3499999739 1.4499999993 3.2380376158e-09 -8.3499999739 1.5 -1.232569069e-08 -8.2999999732 1.4499999993 3.4294862505e-09 
-8.2999999732 1.5 -1.3056469683e-08 -8.2499999724 1.4499999993 3.6245728641e-09 -8.2499999724 1.5 -1.367492608e-08 
-8.1999999717 1.4499999993 3.806016835e-09 -8.1999999717 1.5 -1.4250636227e-08 -8.1499999709 1.4499999993 4.0247507549e-09 
-8.1499999709 1.5 -1.4761317502e-08 -8.0999999702 1.4499999993 4.1216114965e-09 -8.0999999702 1.5 -1.5177866075e-08 
-8.0499999695 1.4499999993 4.313969626e-09 -8.0499999695 1.5 -1.5534842746e-08 -7.9999999687 1.4499999993 4.4763144302e-09 
-7.9999999687 1.5 -1.5875903259e-08 -7.949999968 1.4499999993 4.5299746176e-09 -7.949999968 1.5 -1.6161939342e-08 
-7.8999999672 1.4499999993 4.5490740064e-09 -7.8999999672 1.5 -1.6397043723e-08 -7.8499999665 1.4499999993 4.5408885541e-09 
-7.8499999665 1.5 -1.6625326893e-08 -7.7999999657 1.4499999993 4.599096215e-09 -7.7999999657 1.5 -1.6749018172e-08 
-7.749999965 1.4499999993 4.5831800577e-09 -7.749999965 1.5 -1.6788126445e-08 -7.6999999642 1.4499999993 4.6027341938e-09 
-7.6999999642 1.5 -1.6877711673e-08 -7.6499999635 1.4499999993 4.5277008809e-09 -7.6499999635 1.5 -1.6842241379e-08 
-7.5999999627 1.4499999993 4.5613521849e-09 -7.5999999627 1.5 -1.6792219171e-08 -7.549999962 1.4499999993 4.5154227024e-09 
-7.549999962 1.5 -1.6623962651e-08 -7.4999999613 1.4499999993 4.4171972746e-09 -7.4999999613 1.5 -1.6462072594e-08 
-7.4499999605 1.4499999993 4.3344332568e-09 -7.4499999605 1.5 -1.6241974876e-08 -7.3999999598 1.4499999993 4.3207908362e-09 
-7.3999999598 1.5 -1.5926380215e-08 -7.349999959 1.4499999993 4.1920973359e-09 -7.349999959 1.5 -1.5585319701e-08 
-7.2999999583 1.4499999993 4.054763636e-09 -7.2999999583 1.5 -1.5178320822e-08 -7.2499999575 1.4499999993 3.9351650827e-09 
-7.2499999575 1.5 -1.4672187021e-08 -7.1999999568 1.4499999993 3.8173855188e-09 -7.1999999568 1.5 -1.4131492421e-08 
-7.149999956 1.4499999993 3.6345773058e-09 -7.149999956 1.5 -1.3525314202e-08 -7.0999999553 1.4499999993 3.5145240052e-09 
-7.0999999553 1.5 -1.3206536309e-08 -7.0499999546 1.4499999993 3.3578635428e-09 -7.0499999546 1.5 -1.2492355594e-08 
-6.9999999538 1.4499999993 3.1516356191e-09 -6.9999999538 1.5 -1.1725196813e-08 -6.9499999531 1.4499999993 2.9356306275e-09 
-6.9499999531 1.5 -1.0887324819e-08 -6.8999999523 1.4499999993 2.7134865466e-09 -6.8999999523 1.5 -9.9557748712e-09 
-6.8499999516 1.4499999993 2.4031214796e-09 -6.8499999516 1.5 -8.9951210924e-09 -6.7999999508 1.4499999993 2.1652886151e-09 
-6.7999999508 1.5 -7.8900850298e-09 -6.7499999501 1.4499999993 1.825592344e-09 -6.7499999501 1.5 -6.7818657357e-09 
-6.6999999493 1.4499999993 1.5186378821e-09 -6.6999999493 1.5 -5.598385755e-09 -6.6499999486 1.4499999993 1.2082728151e-09 
-6.6499999486 1.5 -4.2648391485e-09 -6.5999999478 1.4499999993 8.3151463492e-10 -6.5999999478 1.5 -2.8767226379e-09 
-6.5499999471 1.4499999993 3.9177394662e-10 -6.5499999471 1.5 -1.3637782015e-09 -6.4999999464 1.4499999993 9.1038288019e-15 
-6.4999999464 1.5 1.9873369617e-10 -6.4499999456 1.4499999993 -4.756566252e-10 -6.4499999456 1.5 1.8958508097e-09 
-6.3999999449 1.4499999993 -9.2881236036e-10 -6.3999999449 1.5 3.6593610364e-09 -6.3499999441 1.4499999993 -1.4147099048e-09 
-6.3499999441 1.5 5.5613416095e-09 -6.2999999434 1.4499999993 -1.9474464263e-09 -6.2999999434 1.5 7.5649584375e-09 
-6.2499999426 1.4499999993 -2.4756354744e-09 -6.2499999426 1.5 9.676805135e-09 -6.1999999419 1.4499999993 -3.070672383e-09 
-6.1999999419 1.5 1.1860501914e-08 -6.1499999411 1.4499999993 -3.6986784746e-09 -6.1499999411 1.5 1.4189717845e-08 
-6.0999999404 1.4499999993 -4.32122782e-09 -6.0999999404 1.5 1.6651265256e-08 -6.0499999397 1.4499999993 -5.0117616723e-09 
-6.0499999397 1.5 1.9185799616e-08 -5.9999999389 1.4499999993 -5.7277613763e-09 -5.9999999389 1.5 2.1850391718e-08 
-5.9499999382 1.4499999993 -6.4330745175e-09 -5.9499999382 1.5 2.4679374988e-08 -5.8999999374 1.4499999993 -7.206145014e-09 
-5.8999999374 1.5 2.7579753592e-08 -5.8499999367 1.4499999993 -8.0013844439e-09 -5.8499999367 1.5 3.0600187273e-08 
-5.7999999359 1.4499999993 -8.8184517466e-09 -5.7999999359 1.5 3.3738057681e-08 -5.7499999352 1.4499999993 -9.7055501413e-09 
-5.7499999352 1.5 3.6996208763e-08 -5.6999999344 1.4499999993 -1.0565250008e-08 -5.6999999344 1.5 4.0378278499e-08 
-5.6499999337 1.4499999993 -1.1469969863e-08 -5.6499999337 1.5 4.3829242458e-08 -5.5999999329 1.4499999993 -1.2400269256e-08 
-5.5999999329 1.5 4.7363652556e-08 -5.5499999322 1.4499999993 -1.2887758416e-08 -5.5499999322 1.5 4.9145466363e-08 
-5.4999999315 1.4499999993 -1.3846024771e-08 -5.4999999315 1.5 5.2783672544e-08 -5.4499999307 1.4499999993 -1.4800766834e-08 
-5.4499999307 1.5 5.6460191189e-08 -5.39999993 1.4499999993 -1.5745049708e-08 -5.39999993 1.5 6.0163081628e-08 
-5.3499999292 1.4499999993 -1.6733556762e-08 -5.3499999292 1.5 6.3804584727e-08 -5.2999999285 1.4499999993 -1.7662719287e-08 
-5.2999999285 1.5 6.7391631831e-08 -5.2499999277 1.4499999993 -1.8555502024e-08 -5.2499999277 1.5 7.0856579271e-08 
-5.199999927 1.4499999993 -1.9419749364e-08 -5.199999927 1.5 7.4098700509e-08 -5.1499999262 1.4499999993 -2.0202142181e-08 
-5.1499999262 1.5 7.7062061621e-08 -5.0999999255 1.4499999993 -2.088994755e-08 -5.0999999255 1.5 7.9613194259e-08 
-5.0499999247 1.4499999993 -2.1406426853e-08 -5.0499999247 1.5 8.1675587182e-08 -4.999999924 1.4499999993 -2.176783731e-08 
-4.999999924 1.5 8.3038237619e-08 -4.9499999233 1.4499999993 -2.1898918234e-08 -4.9499999233 1.5 8.3489460678e-08 
-4.8999999225 1.4499999993 -2.169632829e-08 -4.8999999225 1.5 8.2768004006e-08 -4.8499999218 1.4499999993 -2.1115956983e-08 
-4.8499999218 1.5 8.0561115112e-08 -4.799999921 1.4499999993 -2.0030077152e-08 -4.799999921 1.5 7.6436954544e-08 
-4.7499999203 1.4499999993 -1.8314315398e-08 -4.7499999203 1.5 6.9894220189e-08 -4.6999999195 1.4499999993 -1.5771936646e-08 
-4.6999999195 1.5 6.0288193993e-08 -4.6499999188 1.4499999993 -1.2218768219e-08 -4.6499999188 1.5 4.6741217119e-08 
-4.599999918 1.4499999993 -7.3485946217e-09 -4.599999918 1.5 2.8166377675e-08 -4.5499999173 1.4499999993 -7.9540085629e-10 
-4.5499999173 1.5 3.206716892e-09 -4.4999999166 1.4499999993 7.9327922009e-09 -4.4999999166 1.5 -2.9934529522e-08 
-4.4499999158 1.4499999993 1.9452452094e-08 -4.4499999158 1.5 -7.3709593096e-08 -4.3999999151 1.4499999993 3.4612138933e-08 
-4.3999999151 1.5 -1.3126860665e-07 -4.3499999143 1.4499999993 5.4512963032e-08 -4.3499999143 1.5 -2.0684340996e-07 
-4.2999999136 1.4499999993 8.0724198881e-08 -4.2999999136 1.5 -3.0626426906e-07 -4.2499999128 1.4499999993 1.1535752975e-07 
-4.2499999128 1.5 -4.3754931767e-07 -4.1999999121 1.4499999993 1.6143174264e-07 -4.1999999121 1.5 -6.1200614709e-07 
-4.1499999113 1.4499999993 2.2323975202e-07 -4.1499999113 1.5 -8.4582364934e-07 -4.0999999106 1.4499999993 3.071435799e-07 
-4.0999999106 1.5 -1.162802846e-06 -4.0499999098 1.4499999993 4.2280368007e-07 -4.0499999098 1.5 -1.598946028e-06 
-3.9999999091 1.4499999993 5.8537347059e-07 -3.9999999091 1.5 -2.2104752588e-06 -3.9499999084 1.4499999993 6.9144692816e-07 
[...]
CELL_DATA 9510
FIELD FieldData 4
Water_Depth_m 1 9510 float
0.603 0.603001 0.603002 0.603002 0.603003 0.603004 0.603004 0.603005 0.603005 
0.603006 0.603007 0.603007 0.603008 0.603009 0.603009 0.60301 0.60301 0.603011 
0.603012 0.603012 0.603013 0.603014 0.603014 0.603015 0.603015 0.603016 0.603017 
0.603017 0.603018 0.603019 0.603019 0.60302 0.60302 0.603021 0.603022 0.603022 
0.603023 0.603024 0.603024 0.603025 0.603025 0.603026 0.603027 0.603027 0.603028 
0.603029 0.603029 0.60303 0.603031 0.603031 0.603032 0.603032 0.603033 0.603034 
0.603034 0.603035 0.603036 0.603036 0.603037 0.603037 0.603038 0.603039 0.603039 
0.60304 0.603041 0.603041 0.603042 0.603042 0.603043 0.603044 0.603044 0.603045 
0.603045 0.603046 0.603047 0.603047 0.603048 0.603049 0.603049 0.60305 0.60305 
0.603051 0.603051 0.603052 0.603053 0.603053 0.603054 0.603054 0.603055 0.603055 
0.603056 0.603057 0.603057 0.603058 0.603058 0.603059 0.603059 0.60306 0.60306 
0.60306 0.603061 0.603061 0.603062 0.603062 0.603062 0.603062 0.603063 0.603063 
0.603063 0.603063 0.603063 0.603063 0.603063 0.603063 0.603062 0.603062 0.603061 
0.603061 0.60306 0.603059 0.603058 0.603057 0.603056 0.603055 0.603054 0.603054 
0.603055 0.603059 0.603072 0.603129 0.603328 0.603207 0.597607 0.583922 0.563988 
0.53954 0.51194 0.482378 0.452337 0.422992 0.394874 0.369031 0.346611 0.328963 
0.318011 0.316157 0.316148 0.316143 0.316146 0.316153 0.325703 0.33335 0.332911 
0.32757 0.328799 0.32849 0.301698 0.257939 0.233169 0.231677 0.217443 0.183233 
0.177794 0.182222 0.180674 0.181087 0.186044 0.188027 0.19313 0.198874 0.201295 
0.204391 0.20908 0.215405 0.218828 0.223102 0.228271 0.233841 0.2388 0.241001 
0.2477 0.255314 0.263796 0.266676 0.271036 0.283182 0.295925 0.312585 0.329529 
0.343725 0.357904 0.367417 0.385081 0.393434 0.40526 0.425179 0.449829 0.487659 
0.619016 0.572584 0.535611 0.492736 0.461508 0.425402 0.387385 0.378414 0.378079 
0.367709 0.367412 0.367294 0.367257 0.367241 0.367233 0.367229 0.367227 0.367227 
0.367228 0.367229 0.367231 0.367233 0.367235 0.367237 0.36724 0.367243 0.367245 
0.367248 0.367251 0.367254 0.367257 0.367261 0.367264 0.367267 0.36727 0.367273 
0.367277 0.36728 0.367283 0.367286 0.36729 0.367293 0.367296 0.3673 0.367303 
0.367306 0.36731 0.367313 0.367316 0.36732 0.367323 0.367327 0.36733 0.367333 
0.367337 0.36734 0.367344 0.367347 0.367351 0.367354 0.367357 0.367361 0.367364 
0.367368 0.367371 0.367374 0.367378 0.367381 0.367385 0.367388 0.367392 0.367395 
0.367399 0.367402 0.367405 0.367409 0.367412 0.367416 0.367419 0.367423 0.367426 
0.36743 0.367433 0.367437 0.36744 0.367443 0.367447 0.36745 0.367454 0.367457 
0.367461 0.367464 0.367468 0.367471 0.367475 0.367478 0.362872 0.603001 0.603001 
0.603002 0.603002 0.603003 0.603004 0.603004 0.603005 0.603005 0.603006 0.603007 
0.603007 0.603008 0.603009 0.603009 0.60301 0.60301 0.603011 0.603012 0.603012 
0.603013 0.603014 0.603014 0.603015 0.603015 0.603016 0.603017 0.603017 0.603018 
0.603019 0.603019 0.60302 0.60302 0.603021 0.603022 0.603022 0.603023 0.603024 
0.603024 0.603025 0.603025 0.603026 0.603027 0.603027 0.603028 0.603029 0.603029 
0.60303 0.603031 0.603031 0.603032 0.603032 0.603033 0.603034 0.603034 0.603035 
0.603036 0.603036 0.603037 0.603037 0.603038 0.603039 0.603039 0.60304 0.603041 
0.603041 0.603042 0.603042 0.603043 0.603044 0.603044 0.603045 0.603045 0.603046 
0.603047 0.603047 0.603048 0.603049 0.603049 0.60305 0.60305 0.603051 0.603051 
0.603052 0.603053 0.603053 0.603054 0.603054 0.603055 0.603055 0.603056 0.603057 
0.603057 0.603058 0.603058 0.603059 0.603059 0.60306 0.60306 0.60306 0.603061 
0.603061 0.603062 0.603062 0.603062 0.603062 0.603063 0.603063 0.603063 0.603063 
0.603063 0.603063 0.603063 0.603062 0.603062 0.603062 0.603061 0.60306 0.603059 
0.603058 0.603057 0.603056 0.603054 0.603052 0.60305 0.603047 0.603044 0.603041 
0.603037 0.603035 0.603067 0.603013 0.597921 0.584817 0.565193 0.54069 0.512759 
0.482695 0.451962 0.421788 0.392962 0.366658 0.344184 0.327141 0.317626 0.316179 
0.316163 0.316155 0.316168 0.316174 0.324364 0.331331 0.331014 0.325906 0.32397 
0.322723 0.306273 0.283494 0.262315 0.240069 0.217932 0.183802 0.168751 0.170526 
0.173944 0.176356 0.180192 0.18232 0.187131 0.190942 0.193161 0.194473 0.198392 
0.204069 0.206799 0.209744 0.212058 0.216452 0.220354 0.224806 0.230995 0.242052 
0.250164 0.262204 0.273299 0.285916 0.302564 0.319432 0.334487 0.351381 0.366504 
0.383183 0.398563 0.41275 0.426002 0.441784 0.452352 0.486756 0.613444 0.569932 
0.535146 0.492104 0.456655 0.421356 0.38781 0.379682 0.379185 0.368361 0.367182 
0.367186 0.367188 0.367191 0.367195 0.367198 0.367202 0.367205 0.367209 0.367213 
0.367216 0.36722 0.367223 0.367227 0.36723 0.367234 0.367237 0.367241 0.367245 
0.367248 0.367252 0.367255 0.367259 0.367262 0.367266 0.367269 0.367273 0.367276 
0.367279 0.367283 0.367286 0.36729 0.367293 0.367297 0.3673 0.367304 0.367307 
0.367311 0.367314 0.367318 0.367321 0.367325 0.367328 0.367332 0.367335 0.367339 
0.367342 0.367346 0.367349 0.367352 0.367356 0.367359 0.367363 0.367366 0.36737 
0.367373 0.367377 0.36738 0.367384 0.367387 0.367391 0.367394 0.367398 0.367401 
0.367404 0.367408 0.367411 0.367415 0.367418 0.367422 0.367425 0.367429 0.367432 
0.367436 0.367439 0.367443 0.367446 0.36745 0.367453 0.367457 0.36746 0.367463 
0.367467 0.36747 0.367474 0.367477 0.36287 0.603 0.603001 0.603002 0.603002 
0.603003 0.603003 0.603004 0.603005 0.603005 0.603006 0.603007 0.603007 0.603008 
0.603008 0.603009 0.60301 0.60301 0.603011 0.603012 0.603012 0.603013 0.603014 
0.603014 0.603015 0.603015 0.603016 0.603017 0.603017 0.603018 0.603019 0.603019 
0.60302 0.60302 0.603021 0.603022 0.603022 0.603023 0.603024 0.603024 0.603025 
0.603025 0.603026 0.603027 0.603027 0.603028 0.603029 0.603029 0.60303 0.603031 
0.603031 0.603032 0.603032 0.603033 0.603034 0.603034 0.603035 0.603036 0.603036 
0.603037 0.603037 0.603038 0.603039 0.603039 0.60304 0.603041 0.603041 0.603042 
0.603042 0.603043 0.603044 0.603044 0.603045 0.603045 0.603046 0.603047 0.603047 
0.603048 0.603049 0.603049 0.60305 0.60305 0.603051 0.603051 0.603052 0.603053 
0.603053 0.603054 0.603054 0.603055 0.603055 0.603056 0.603057 0.603057 0.603058 
0.603058 0.603059 0.603059 0.60306 0.60306 0.60306 0.603061 0.603061 0.603062 
0.603062 0.603062 0.603063 0.603063 0.603063 0.603063 0.603063 0.603063 0.603063 
0.603063 0.603063 0.603062 0.603062 0.603061 0.603061 0.60306 0.603059 0.603058 
0.603056 0.603055 0.603053 0.603051 0.603048 0.603045 0.603042 0.60304 0.603041 
0.603121 0.603013 0.598036 0.585193 0.565783 0.541314 0.51323 0.482884 0.451715 
0.421006 0.391775 0.365303 0.343007 0.326509 0.31753 0.31614 0.316137 0.316136 
0.316136 0.316155 0.323483 0.32954 0.329275 0.323889 0.322067 0.32186 0.308993 
0.302506 0.288195 0.257829 0.225677 0.190605 0.165025 0.16368 0.163911 0.164789 
0.167386 0.16906 0.171743 0.174666 0.176532 0.178532 0.181925 0.190206 0.190653 
0.191688 0.19979 0.204802 0.210364 0.221149 0.229631 0.241403 0.249881 0.261548 
0.272975 0.286625 0.302791 0.319425 0.333749 0.351038 0.366362 0.382134 0.398776 
0.414168 0.429434 0.444047 0.458178 0.48897 0.612102 0.556729 0.524455 0.486066 
0.450517 0.419455 0.391774 0.382987 0.382369 0.368092 0.367188 0.367192 0.367191 
0.367194 0.367197 0.3672 0.367203 0.367206 0.36721 0.367213 0.367217 0.36722 
0.367224 0.367227 0.367231 0.367234 0.367238 0.367241 0.367245 0.367248 0.367252 
0.367255 0.367259 0.367262 0.367266 0.367269 0.367273 0.367276 0.36728 0.367283 
0.367287 0.36729 0.367294 0.367297 0.3673 0.367304 0.367307 0.367311 0.367314 
0.367318 0.367321 0.367325 0.367328 0.367332 0.367335 0.367339 0.367342 0.367346 
0.367349 0.367353 0.367356 0.367359 0.367363 0.367366 0.36737 0.367373 0.367377 
0.36738 0.367384 0.367387 0.367391 0.367394 0.367398 0.367401 0.367405 0.367408 
0.367411 0.367415 0.367418 0.367422 0.367425 0.367429 0.367432 0.367436 0.367439 
0.367443 0.367446 0.36745 0.367453 0.367457 0.36746 0.367463 0.367467 0.36747 
0.367474 0.367477 0.36287 0.603 0.603001 0.603002 0.603002 0.603003 0.603003 
0.603004 0.603005 0.603005 0.603006 0.603007 0.603007 0.603008 0.603008 0.603009 
0.60301 0.60301 0.603011 0.603012 0.603012 0.603013 0.603014 0.603014 0.603015 
0.603015 0.603016 0.603017 0.603017 0.603018 0.603019 0.603019 0.60302 0.60302 
0.603021 0.603022 0.603022 0.603023 0.603024 0.603024 0.603025 0.603025 0.603026 
0.603027 0.603027 0.603028 0.603029 0.603029 0.60303 0.603031 0.603031 0.603032 
0.603032 0.603033 0.603034 0.603034 0.603035 0.603036 0.603036 0.603037 0.603037 
0.603038 0.603039 0.603039 0.60304 0.603041 0.603041 0.603042 0.603042 0.603043 
0.603044 0.603044 0.603045 0.603045 0.603046 0.603047 0.603047 0.603048 0.603049 
0.603049 0.60305 0.60305 0.603051 0.603051 0.603052 0.603053 0.603053 0.603054 
0.603054 0.603055 0.603056 0.603056 0.603057 0.603057 0.603058 0.603058 0.603059 
0.603059 0.60306 0.60306 0.603061 0.603061 0.603061 0.603062 0.603062 0.603062 
0.603063 0.603063 0.603063 0.603063 0.603063 0.603063 0.603063 0.603063 0.603063 
0.603063 0.603062 0.603062 0.603061 0.60306 0.603059 0.603058 0.603057 0.603055 
0.603053 0.603051 0.603049 0.603046 0.603042 0.603038 0.603034 0.603108 0.603012 
0.598076 0.585346 0.566052 0.541624 0.513477 0.482987 0.451567 0.420547 0.391109 
0.364603 0.342475 0.326267 0.317513 0.316138 0.316137 0.316137 0.316142 0.316165 
0.321379 0.325206 0.323658 0.318306 0.3171 0.31645 0.311919 0.311665 0.297696 
0.26368 0.233137 0.200424 0.168509 0.160098 0.161543 0.16202 0.164852 0.16573 
0.167612 0.169273 0.174406 0.176856 0.181038 0.193065 0.19464 0.199482 0.206327 
0.210602 0.214359 0.220714 0.228372 0.234659 0.244096 0.261136 0.265003 0.279373 
0.290323 0.30521 0.318112 0.338329 0.354257 0.363925 0.379999 0.397073 0.418113 
0.435243 0.456387 0.489465 0.609556 0.55832 0.520418 0.484243 0.446288 0.417291 
0.391251 0.382958 0.382326 0.368435 0.367178 0.367183 0.367186 0.36719 0.367194 
0.367198 0.367201 0.367205 0.367209 0.367212 0.367216 0.36722 0.367223 0.367227 
0.36723 0.367234 0.367237 0.367241 0.367244 0.367248 0.367251 0.367255 0.367258 
0.367262 0.367265 0.367269 0.367272 0.367276 0.367279 0.367283 0.367286 0.36729 
0.367293 0.367297 0.3673 0.367304 0.367307 0.367311 0.367314 0.367318 0.367321 
0.367325 0.367328 0.367332 0.367335 0.367339 0.367342 0.367345 0.367349 0.367352 
0.367356 0.367359 0.367363 0.367366 0.36737 0.367373 0.367377 0.36738 0.367384 
0.367387 0.367391 0.367394 0.367398 0.367401 0.367404 0.367408 0.367411 0.367415 
0.367418 0.367422 0.367425 0.367429 0.367432 0.367436 0.367439 0.367443 0.367446 
0.36745 0.367453 0.367456 0.36746 0.367463 0.367467 0.36747 0.367474 0.367477 
0.36287 0.603 0.603001 0.603002 0.603002 0.603003 0.603003 0.603004 0.603005 
0.603005 0.603006 0.603007 0.603007 0.603008 0.603008 0.603009 0.60301 0.60301 
0.603011 0.603012 0.603012 0.603013 0.603014 0.603014 0.603015 0.603015 0.603016 
0.603017 0.603017 0.603018 0.603019 0.603019 0.60302 0.60302 0.603021 0.603022 
0.603022 0.603023 0.603024 0.603024 0.603025 0.603025 0.603026 0.603027 0.603027 
0.603028 0.603029 0.603029 0.60303 0.603031 0.603031 0.603032 0.603032 0.603033 
0.603034 0.603034 0.603035 0.603036 0.603036 0.603037 0.603037 0.603038 0.603039 
0.603039 0.60304 0.603041 0.603041 0.603042 0.603042 0.603043 0.603044 0.603044 
0.603045 0.603045 0.603046 0.603047 0.603047 0.603048 0.603049 0.603049 0.60305 
0.60305 0.603051 0.603051 0.603052 0.603053 0.603053 0.603054 0.603054 0.603055 
0.603056 0.603056 0.603057 0.603057 0.603058 0.603058 0.603059 0.603059 0.60306 
0.60306 0.603061 0.603061 0.603061 0.603062 0.603062 0.603063 0.603063 0.603063 
0.603063 0.603063 0.603064 0.603064 0.603064 0.603063 0.603063 0.603063 0.603063 
0.603062 0.603062 0.603061 0.60306 0.603059 0.603058 0.603056 0.603054 0.603052 
0.60305 0.603047 0.603044 0.603041 0.603038 0.603113 0.603015 0.598092 0.585404 
0.566164 0.541764 0.513596 0.483039 0.451487 0.420303 0.390771 0.364271 0.342245 
0.326173 0.317499 0.31613 0.31613 0.316132 0.31614 0.316155 0.318245 0.319831 
0.319017 0.315661 0.313646 0.312275 0.311667 0.311418 0.296827 0.262857 0.232583 
0.199099 0.168043 0.167418 0.171212 0.174335 0.174032 0.177138 0.181157 0.185758 
0.188306 0.191838 0.199997 0.207553 0.210663 0.219347 0.223489 0.233608 0.237442 
0.240016 0.254424 0.263501 0.266578 0.275279 0.286217 0.289494 0.30362 0.31072 
0.311048 0.312466 0.327673 0.336394 0.353946 0.372919 0.39672 0.425814 0.44866 
0.488313 0.608663 0.55884 0.523051 0.490254 0.447334 0.409957 0.386581 0.383355 
0.382774 0.368379 0.36718 0.367184 0.367187 0.36719 0.367194 0.367198 0.367202 
0.367205 0.367209 0.367212 0.367216 0.36722 0.367223 0.367227 0.36723 0.367234 
0.367237 0.367241 0.367244 0.367248 0.367251 0.367255 0.367258 0.367262 0.367265 
0.367269 0.367272 0.367276 0.367279 0.367283 0.367286 0.36729 0.367293 0.367297 
0.3673 0.367304 0.367307 0.367311 0.367314 0.367318 0.367321 0.367325 0.367328 
0.367332 0.367335 0.367339 0.367342 0.367345 0.367349 0.367352 0.367356 0.367359 
0.367363 0.367366 0.36737 0.367373 0.367377 0.36738 0.367384 0.367387 0.367391 
0.367394 0.367398 0.367401 0.367404 0.367408 0.367411 0.367415 0.367418 0.367422 
0.367425 0.367429 0.367432 0.367436 0.367439 0.367443 0.367446 0.36745 0.367453 
0.367456 0.36746 0.367463 0.367467 0.36747 0.367474 0.367477 0.36287 0.603 
0.603001 0.603002 0.603002 0.603003 0.603003 0.603004 0.603005 0.603005 0.603006 
0.603007 0.603007 0.603008 0.603008 0.603009 0.60301 0.60301 0.603011 0.603012 
0.603012 0.603013 0.603014 0.603014 0.603015 0.603015 0.603016 0.603017 0.603017 
0.603018 0.603019 0.603019 0.60302 0.60302 0.603021 0.603022 0.603022 0.603023 
0.603024 0.603024 0.603025 0.603025 0.603026 0.603027 0.603027 0.603028 0.603029 
0.603029 0.60303 0.603031 0.603031 0.603032 0.603032 0.603033 0.603034 0.603034 
0.603035 0.603036 0.603036 0.603037 0.603037 0.603038 0.603039 0.603039 0.60304 
0.603041 0.603041 0.603042 0.603042 0.603043 0.603044 0.603044 0.603045 0.603045 
0.603046 0.603047 0.603047 0.603048 0.603049 0.603049 0.60305 0.60305 0.603051 
0.603051 0.603052 0.603053 0.603053 0.603054 0.603054 0.603055 0.603056 0.603056 
0.603057 0.603057 0.603058 0.603058 0.603059 0.603059 0.60306 0.60306 0.603061 
0.603061 0.603062 0.603062 0.603062 0.603063 0.603063 0.603063 0.603063 0.603064 
0.603064 0.603064 0.603064 0.603064 0.603064 0.603064 0.603063 0.603063 0.603062 
0.603062 0.603061 0.60306 0.603059 0.603058 0.603056 0.603054 0.603052 0.603049 
0.603047 0.603043 0.60304 0.603116 0.603019 0.598098 0.585422 0.566206 0.54182 
0.513648 0.483064 0.45145 0.420188 0.390615 0.364127 0.342152 0.326135 0.317489 
0.316121 0.316122 0.316125 0.316134 0.316156 0.318496 0.320364 0.319447 0.313661 
0.308933 0.306274 0.30829 0.30811 0.292069 0.257122 0.226323 0.189527 0.172868 
0.17412 0.176613 0.180835 0.183941 0.186088 0.190423 0.194401 0.196601 0.206048 
0.209119 0.215782 0.218709 0.223797 0.233119 0.241536 0.25126 0.254663 0.264195 
0.274537 0.282628 0.284057 0.29041 0.29877 0.306339 0.313074 0.31947 0.327582 
0.342172 0.343525 0.354107 0.373059 0.396867 0.425441 0.449769 0.487808 0.605149 
0.555884 0.52152 0.487941 0.446088 0.406011 0.38449 0.384562 0.383935 0.36856 
0.367181 0.367184 0.367187 0.367191 0.367194 0.367198 0.367202 0.367205 0.367209 
0.367212 0.367216 0.36722 0.367223 0.367227 0.36723 0.367234 0.367237 0.367241 
0.367244 0.367248 0.367251 0.367255 0.367258 0.367262 0.367265 0.367269 0.367272 
0.367276 0.367279 0.367283 0.367286 0.36729 0.367293 0.367297 0.3673 0.367304 
0.367307 0.367311 0.367314 0.367318 0.367321 0.367325 0.367328 0.367332 0.367335 
0.367339 0.367342 0.367345 0.367349 0.367352 0.367356 0.367359 0.367363 0.367366 
0.36737 0.367373 0.367377 0.36738 0.367384 0.367387 0.367391 0.367394 0.367398 
0.367401 0.367404 0.367408 0.367411 0.367415 0.367418 0.367422 0.367425 0.367429 
0.367432 0.367436 0.367439 0.367443 0.367446 0.36745 0.367453 0.367456 0.36746 
0.367463 0.367467 0.36747 0.367474 0.367477 0.36287 0.603 0.603001 0.603002 
0.603002 0.603003 0.603003 0.603004 0.603005 0.603005 0.603006 0.603007 0.603007 
0.603008 0.603008 0.603009 0.60301 0.60301 0.603011 0.603012 0.603012 0.603013 
0.603014 0.603014 0.603015 0.603015 0.603016 0.603017 0.603017 0.603018 0.603019 
0.603019 0.60302 0.60302 0.603021 0.603022 0.603022 0.603023 0.603024 0.603024 
0.603025 0.603025 0.603026 0.603027 0.603027 0.603028 0.603029 0.603029 0.60303 
0.603031 0.603031 0.603032 0.603032 0.603033 0.603034 0.603034 0.603035 0.603036 
0.603036 0.603037 0.603037 0.603038 0.603039 0.603039 0.60304 0.603041 0.603041 
0.603042 0.603042 0.603043 0.603044 0.603044 0.603045 0.603045 0.603046 0.603047 
0.603047 0.603048 0.603049 0.603049 0.60305 0.60305 0.603051 0.603052 0.603052 
0.603053 0.603053 0.603054 0.603054 0.603055 0.603056 0.603056 0.603057 0.603057 
0.603058 0.603058 0.603059 0.603059 0.60306 0.60306 0.603061 0.603061 0.603062 
0.603062 0.603063 0.603063 0.603063 0.603064 0.603064 0.603064 0.603064 0.603064 
0.603064 0.603064 0.603064 0.603064 0.603064 0.603064 0.603063 0.603063 0.603062 
0.603061 0.60306 0.603059 0.603058 0.603056 0.603054 0.603052 0.60305 0.603047 
0.603045 0.603121 0.603024 0.598102 0.585427 0.566218 0.54184 0.513668 0.483077 
0.451441 0.420141 0.390553 0.364072 0.342123 0.326123 0.317476 0.316108 0.31611 
0.316113 0.316119 0.316138 0.319229 0.322232 0.322036 0.316383 0.31032 0.306833 
0.305954 0.30554 0.287804 0.250184 0.215777 0.1848 0.182784 0.187364 0.188892 
0.19107 0.19659 0.19835 0.201446 0.205313 0.209324 0.217226 0.21993 0.224043 
0.231126 0.23335 0.242789 0.253756 0.256587 0.264652 0.269439 0.275686 0.284994 
0.286853 0.296111 0.306162 0.308319 0.314298 0.325568 0.330117 0.341512 0.343076 
0.35324 0.371802 0.394549 0.419562 0.454905 0.49944 0.604197 0.563442 0.524273 
0.481605 0.446943 0.408619 0.384993 0.386042 0.385374 0.368654 0.367181 0.367185 
0.367187 0.367191 0.367194 0.367198 0.367202 0.367205 0.367209 0.367213 0.367216 
0.36722 0.367223 0.367227 0.36723 0.367234 0.367237 0.367241 0.367244 0.367248 
0.367251 0.367255 0.367258 0.367262 0.367265 0.367269 0.367272 0.367276 0.367279 
0.367283 0.367286 0.36729 0.367293 0.367297 0.3673 0.367304 0.367307 0.367311 
0.367314 0.367318 0.367321 0.367325 0.367328 0.367332 0.367335 0.367339 0.367342 
0.367345 0.367349 0.367352 0.367356 0.367359 0.367363 0.367366 0.36737 0.367373 
0.367377 0.36738 0.367384 0.367387 0.367391 0.367394 0.367398 0.367401 0.367404 
0.367408 0.367411 0.367415 0.367418 0.367422 0.367425 0.367429 0.367432 0.367436 
0.367439 0.367443 0.367446 0.36745 0.367453 0.367456 0.36746 0.367463 0.367467 
0.36747 0.367474 0.367477 0.36287 0.603 0.603001 0.603002 0.603002 0.603003 
0.603003 0.603004 0.603005 0.603005 0.603006 0.603007 0.603007 0.603008 0.603009 
0.603009 0.60301 0.60301 0.603011 0.603012 0.603012 0.603013 0.603014 0.603014 
0.603015 0.603015 0.603016 0.603017 0.603017 0.603018 0.603019 0.603019 0.60302 
0.60302 0.603021 0.603022 0.603022 0.603023 0.603024 0.603024 0.603025 0.603025 
0.603026 0.603027 0.603027 0.603028 0.603029 0.603029 0.60303 0.603031 0.603031 
0.603032 0.603032 0.603033 0.603034 0.603034 0.603035 0.603036 0.603036 0.603037 
0.603037 0.603038 0.603039 0.603039 0.60304 0.603041 0.603041 0.603042 0.603042 
0.603043 0.603044 0.603044 0.603045 0.603045 0.603046 0.603047 0.603047 0.603048 
0.603049 0.603049 0.60305 0.60305 0.603051 0.603052 0.603052 0.603053 0.603053 
0.603054 0.603055 0.603055 0.603056 0.603056 0.603057 0.603057 0.603058 0.603058 
0.603059 0.60306 0.60306 0.603061 0.603061 0.603061 0.603062 0.603062 0.603063 
0.603063 0.603064 0.603064 0.603064 0.603064 0.603065 0.603065 0.603065 0.603065 
0.603065 0.603065 0.603065 0.603065 0.603064 0.603064 0.603063 0.603063 0.603062 
0.603061 0.60306 0.603059 0.603057 0.603055 0.603053 0.603051 0.603049 0.603127 
0.603031 0.598106 0.585432 0.566222 0.541845 0.513676 0.483084 0.451446 0.420139 
0.390547 0.364069 0.342117 0.326113 0.317461 0.316093 0.316095 0.316098 0.316102 