# vtk DataFile Version 5.1
vtk output
ASCII
DATASET UNSTRUCTURED_GRID
POINTS 10043 double
-10.1 1.4499999993 2.6138659237e-08 -10.049999999 1.4499999993 6.6014543165e-08 -10.049999999 1.5 -2.6505426831e-07 
-9.9999999985 1.4499999993 8.0297247962e-08 -9.9999999985 1.5 -3.0927753869e-07 -9.9499999978 1.4499999993 8.627990411e-08 
-9.9499999978 1.5 -3.3100718611e-07 -9.899999997 1.4499999993 8.9823295468e-08 -9.899999997 1.5 -3.4393292481e-07 
-9.8499999963 1.4499999993 9.2322586909e-08 -9.8499999963 1.5 -3.5284051592e-07 -9.7999999955 1.4499999993 9.4079730673e-08 
-9.7999999955 1.5 -3.5961261347e-07 -9.7499999948 1.4499999993 9.5433058789e-08 -9.7499999948 1.5 -3.6483129406e-07 
-9.699999994 1.4499999993 9.6613582912e-08 -9.699999994 1.5 -3.6927872316e-07 -9.6499999933 1.4499999993 9.7741356342e-08 
-9.6499999933 1.5 -3.7328049984e-07 -9.5999999925 1.4499999993 9.8614471256e-08 -9.5999999925 1.5 -3.7698396227e-07 
-9.5499999918 1.4499999993 9.9640381279e-08 -9.5499999918 1.5 -3.8041639527e-07 -9.4999999911 1.4499999993 1.0039344289e-07 
-9.4999999911 1.5 -3.836560154e-07 -9.4499999903 1.4499999993 1.0129202366e-07 -9.4499999903 1.5 -3.8700841287e-07 
-9.3999999896 1.4499999993 1.0208146506e-07 -9.3999999896 1.5 -3.9021529119e-07 -9.3499999888 1.4499999993 1.0304007247e-07 
-9.3499999888 1.5 -3.9336759983e-07 -9.2999999881 1.4499999993 1.038422468e-07 -9.2999999881 1.5 -3.966345048e-07 
-9.2499999873 1.4499999993 1.0462623123e-07 -9.2499999873 1.5 -3.9987048694e-07 -9.1999999866 1.4499999993 1.0554663987e-07 
-9.1999999866 1.5 -4.0324107431e-07 -9.1499999858 1.4499999993 1.063651851e-07 -9.1499999858 1.5 -4.0655163502e-07 
-9.0999999851 1.4499999993 1.0732015454e-07 -9.0999999851 1.5 -4.1005500862e-07 -9.0499999844 1.4499999993 1.0828421892e-07 
-9.0499999844 1.5 -4.1352200242e-07 -8.9999999836 1.4499999993 1.0923918836e-07 -8.9999999836 1.5 -4.1713997234e-07 
-8.9499999829 1.4499999993 1.1010684631e-07 -8.9499999829 1.5 -4.2074702833e-07 -8.8999999821 1.4499999993 1.1112729936e-07 
-8.8999999821 1.5 -4.245978289e-07 -8.8499999814 1.4499999993 1.1212592455e-07 -8.8499999814 1.5 -4.2848682824e-07 
-8.7999999806 1.4499999993 1.1316274851e-07 -8.7999999806 1.5 -4.3236491365e-07 -8.7499999799 1.4499999993 1.1425959912e-07 
-8.7499999799 1.5 -4.3647219172e-07 -8.6999999791 1.4499999993 1.1481257189e-07 -8.6999999791 1.5 -4.3858585741e-07 
-8.6499999784 1.4499999993 1.1585667181e-07 -8.6499999784 1.5 -4.4278954192e-07 -8.5999999776 1.4499999993 1.1690986668e-07 
-8.5999999776 1.5 -4.471187367e-07 -8.5499999769 1.4499999993 1.1820862511e-07 -8.5499999769 1.5 -4.5151159611e-07 
-8.4999999762 1.4499999993 1.193964323e-07 -8.4999999762 1.5 -4.5610454436e-07 -8.4499999754 1.4499999993 1.2061333621e-07 
-8.4499999754 1.5 -4.6073023441e-07 -8.3999999747 1.4499999993 1.2186480092e-07 -8.3999999747 1.5 -4.656760666e-07 
-8.3499999739 1.4499999993 1.2313081754e-07 -8.3499999739 1.5 -4.7048365559e-07 -8.2999999732 1.4499999993 1.244604988e-07 
-8.2999999732 1.5 -4.7568414629e-07 -8.2499999724 1.4499999993 1.258502067e-07 -8.2499999724 1.5 -4.8085553317e-07 
-8.1999999717 1.4499999993 1.2720535381e-07 -8.1999999717 1.5 -4.8612150749e-07 -8.1499999709 1.4499999993 1.2857323384e-07 
-8.1499999709 1.5 -4.9158938964e-07 -8.0999999702 1.4499999993 1.300739001e-07 -8.0999999702 1.5 -4.9720824791e-07 
-8.0499999695 1.4499999993 1.3161094614e-07 -8.0499999695 1.5 -5.0285802899e-07 -7.9999999687 1.4499999993 1.3318255299e-07 
-7.9999999687 1.5 -5.0884978009e-07 -7.949999968 1.4499999993 1.3482691941e-07 -7.949999968 1.5 -5.1491974773e-07 
-7.8999999672 1.4499999993 1.3643672503e-07 -7.8999999672 1.5 -5.2121163208e-07 -7.8499999665 1.4499999993 1.3803197874e-07 
-7.8499999665 1.5 -5.2749987844e-07 -7.7999999657 1.4499999993 1.3977820856e-07 -7.7999999657 1.5 -5.3410099099e-07 
-7.749999965 1.4499999993 1.4149715355e-07 -7.749999965 1.5 -5.4085489865e-07 -7.6999999642 1.4499999993 1.4336161769e-07 
-7.6999999642 1.5 -5.4769884628e-07 -7.6499999635 1.4499999993 1.4520516345e-07 -7.6499999635 1.5 -5.5477289607e-07 
-7.5999999627 1.4499999993 1.4719331887e-07 -7.5999999627 1.5 -5.6206522459e-07 -7.549999962 1.4499999993 1.4905232604e-07 
-7.549999962 1.5 -5.6957128436e-07 -7.4999999613 1.4499999993 1.5107595175e-07 -7.4999999613 1.5 -5.7729744185e-07 
-7.4499999605 1.4499999993 1.531277718e-07 -7.4499999605 1.5 -5.8519094637e-07 -7.3999999598 1.4499999993 1.5525417041e-07 
-7.3999999598 1.5 -5.9328908719e-07 -7.349999959 1.4499999993 1.5744787163e-07 -7.349999959 1.5 -6.0162824411e-07 
-7.2999999583 1.4499999993 1.5965794375e-07 -7.2999999583 1.5 -6.1025480136e-07 -7.2499999575 1.4499999993 1.6201171604e-07 
-7.2499999575 1.5 -6.1906143856e-07 -7.1999999568 1.4499999993 1.6434002248e-07 -7.1999999568 1.5 -6.2811091084e-07 
-7.149999956 1.4499999993 1.6681748605e-07 -7.149999956 1.5 -6.3750508161e-07 -7.0999999553 1.4499999993 1.6807531722e-07 
-7.0999999553 1.5 -6.4226355789e-07 -7.0499999546 1.4499999993 1.7064373026e-07 -7.0499999546 1.5 -6.5196968535e-07 
-6.9999999538 1.4499999993 1.7323669965e-07 -6.9999999538 1.5 -6.6201232585e-07 -6.9499999531 1.4499999993 1.7600702051e-07 
-6.9499999531 1.5 -6.7237874646e-07 -6.8999999523 1.4499999993 1.7878825531e-07 -6.8999999523 1.5 -6.8301346801e-07 
-6.8499999516 1.4499999993 1.816404307e-07 -6.8499999516 1.5 -6.9398652158e-07 -6.7999999508 1.4499999993 1.8455263273e-07 
-6.7999999508 1.5 -7.0527698881e-07 -6.7499999501 1.4499999993 1.8767129006e-07 -6.7499999501 1.5 -7.1699946602e-07 
-6.6999999493 1.4499999993 1.9079904234e-07 -6.6999999493 1.5 -7.290020676e-07 -6.6499999486 1.4499999993 1.9405594287e-07 
-6.6499999486 1.5 -7.4147487794e-07 -6.5999999478 1.4499999993 1.9743835367e-07 -6.5999999478 1.5 -7.5430693869e-07 
-6.5499999471 1.4499999993 2.0094081776e-07 -6.5499999471 1.5 -7.6756555245e-07 -6.4999999464 1.4499999993 2.0450603699e-07 
-6.4999999464 1.5 -7.8124708125e-07 -6.4499999456 1.4499999993 2.0816311519e-07 -6.4499999456 1.5 -7.9547066889e-07 
-6.3999999449 1.4499999993 2.1197026001e-07 -6.3999999449 1.5 -8.1009716268e-07 -6.3499999441 1.4499999993 2.1596476074e-07 
-6.3499999441 1.5 -8.2527390077e-07 -6.2999999434 1.4499999993 2.2013024648e-07 -6.2999999434 1.5 -8.4092994257e-07 
-6.2499999426 1.4499999993 2.2435484937e-07 -6.2499999426 1.5 -8.5725082499e-07 -6.1999999419 1.4499999993 2.2883411077e-07 
-6.1999999419 1.5 -8.740901194e-07 -6.1499999411 1.4499999993 2.3331973864e-07 -6.1499999411 1.5 -8.9162517725e-07 
-6.0999999404 1.4499999993 2.3811095673e-07 -6.0999999404 1.5 -9.0984872259e-07 -6.0499999397 1.4499999993 2.4303403734e-07 
-6.0499999397 1.5 -9.2873528956e-07 -5.9999999389 1.4499999993 2.4822179512e-07 -5.9999999389 1.5 -9.4842857834e-07 
-5.9499999382 1.4499999993 2.5354233912e-07 -5.9499999382 1.5 -9.6889493761e-07 -5.8999999374 1.4499999993 2.5916983759e-07 
-5.8999999374 1.5 -9.901652902e-07 -5.8499999367 1.4499999993 2.6498014449e-07 -5.8499999367 1.5 -1.0124638266e-06 
-5.7999999359 1.4499999993 2.7105011213e-07 -5.7999999359 1.5 -1.03564048e-06 -5.7499999352 1.4499999993 2.7738428798e-07 
-5.7499999352 1.5 -1.0599035249e-06 -5.6999999344 1.4499999993 2.8402405405e-07 -5.6999999344 1.5 -1.0852634205e-06 
-5.6499999337 1.4499999993 2.9100806387e-07 -5.6499999337 1.5 -1.1118474958e-06 -5.5999999329 1.4499999993 2.9827310755e-07 
-5.5999999329 1.5 -1.1397453363e-06 -5.5499999322 1.4499999993 3.0205660551e-07 -5.5499999322 1.5 -1.1542072116e-06 
-5.4999999315 1.4499999993 3.0992055144e-07 -5.4999999315 1.5 -1.1842137155e-06 -5.4499999307 1.4499999993 3.1823060453e-07 
-5.4499999307 1.5 -1.2158291156e-06 -5.39999993 1.4499999993 3.2695083974e-07 -5.39999993 1.5 -1.2491166217e-06 
-5.3499999292 1.4499999993 3.3614264794e-07 -5.3499999292 1.5 -1.2843213426e-06 -5.2999999285 1.4499999993 3.4586832953e-07 
-5.2999999285 1.5 -1.3216028947e-06 -5.2499999277 1.4499999993 3.5622156247e-07 -5.2499999277 1.5 -1.3610695078e-06 
-5.199999927 1.4499999993 3.6722826735e-07 -5.199999927 1.5 -1.4030158582e-06 -5.1499999262 1.4499999993 3.7892800719e-07 
-5.1499999262 1.5 -1.4477079731e-06 -5.0999999255 1.4499999993 3.914244644e-07 -5.0999999255 1.5 -1.4955091956e-06 
-5.0499999247 1.4499999993 4.048217761e-07 -5.0499999247 1.5 -1.5466118839e-06 -4.999999924 1.4499999993 4.1919497562e-07 
-4.999999924 1.5 -1.6015203528e-06 -4.9499999233 1.4499999993 4.34664571e-07 -4.9499999233 1.5 -1.6607211819e-06 
-4.8999999225 1.4499999993 4.5147157834e-07 -4.8999999225 1.5 -1.7247409687e-06 -4.8499999218 1.4499999993 4.6965419642e-07 
-4.8499999218 1.5 -1.7942286377e-06 -4.799999921 1.4499999993 4.8950573728e-07 -4.799999921 1.5 -1.870000915e-06 
-4.7499999203 1.4499999993 5.1126585277e-07 -4.7499999203 1.5 -1.9530014015e-06 -4.6999999195 1.4499999993 5.3518874665e-07 
-4.6999999195 1.5 -2.0443742414e-06 -4.6499999188 1.4499999993 5.6169506024e-07 -4.6499999188 1.5 -2.1454877697e-06 
-4.599999918 1.4499999993 5.9126364249e-07 -4.599999918 1.5 -2.2581350549e-06 -4.5499999173 1.4499999993 6.2431195147e-07 
-4.5499999173 1.5 -2.3844183943e-06 -4.4999999166 1.4499999993 6.6170923674e-07 -4.4999999166 1.5 -2.5269894195e-06 
-4.4499999158 1.4499999993 7.0429882726e-07 -4.4499999158 1.5 -2.6892948881e-06 -4.3999999151 1.4499999993 7.5323896453e-07 
-4.3999999151 1.5 -2.8757635846e-06 -4.3499999143 1.4499999993 8.1001803665e-07 -4.3499999143 1.5 -3.0920498375e-06 
-4.2999999136 1.4499999993 8.7668263404e-07 -4.2999999136 1.5 -3.3458152302e-06 -4.2499999128 1.4499999993 9.5592531579e-07 
-4.2499999128 1.5 -3.6471919884e-06 -4.1999999121 1.4499999993 1.0514247606e-06 -4.1999999121 1.5 -4.0101799641e-06 
-4.1499999113 1.4499999993 1.1684455785e-06 -4.1499999113 1.5 -4.4544253797e-06 -4.0999999106 1.4499999993 1.3144558579e-06 
-4.0999999106 1.5 -5.0080766414e-06 -4.0499999098 1.4499999993 1.5006685317e-06 -4.0499999098 1.5 -5.7128677327e-06 
-3.9999999091 1.4499999993 1.7442566786e-06 -3.9999999091 1.5 -6.6327120294e-06 -3.9499999084 1.4499999993 1.8956432086e-06 
[...]
CELL_DATA 9510
FIELD FieldData 4
Water_Depth_m 1 9510 float
0.759995 0.759986 0.759977 0.75997 0.759965 0.759963 0.759964 0.759968 0.759975 
0.759985 0.759999 0.760016 0.760037 0.760061 0.760089 0.760119 0.760153 0.76019 
0.760229 0.760271 0.760315 0.760361 0.760409 0.760459 0.760509 0.76056 0.760611 
0.760661 0.760711 0.76076 0.760807 0.760852 0.760895 0.760936 0.760973 0.761008 
0.761038 0.761066 0.76109 0.761109 0.761125 0.761137 0.761145 0.761148 0.761147 
0.761142 0.761131 0.761116 0.761096 0.761071 0.76104 0.761005 0.760964 0.760919 
0.76087 0.760818 0.760762 0.760704 0.760645 0.760586 0.760526 0.760467 0.76041 
0.760355 0.760302 0.760253 0.760207 0.760166 0.760128 0.760096 0.760069 0.760047 
0.760032 0.760022 0.760018 0.76002 0.760029 0.760043 0.760063 0.760087 0.760116 
0.760148 0.760183 0.760219 0.760257 0.760295 0.760332 0.760369 0.760404 0.760437 
0.760467 0.760496 0.760522 0.760545 0.760567 0.760586 0.760604 0.76062 0.760635 
0.760649 0.760661 0.760673 0.760684 0.760692 0.7607 0.760705 0.760707 0.760706 
0.760703 0.760695 0.760684 0.760668 0.760649 0.760626 0.7606 0.760571 0.76054 
0.760509 0.760479 0.760454 0.760435 0.760426 0.76043 0.760451 0.760492 0.760557 
0.760649 0.76077 0.760925 0.761127 0.761438 0.761387 0.755958 0.742621 0.723133 
0.69917 0.672028 0.642838 0.612656 0.582501 0.553932 0.527816 0.505161 0.487369 
0.476379 0.474602 0.474696 0.47478 0.474854 0.47492 0.474978 0.47503 0.475076 
0.475116 0.475152 0.475183 0.475211 0.475235 0.475257 0.475277 0.475294 0.47531 
0.475324 0.475336 0.475347 0.475356 0.475363 0.475367 0.475346 0.475343 0.475237 
0.473718 0.473181 0.473629 0.47338 0.472656 0.475716 0.480719 0.485211 0.488029 
0.490554 0.492935 0.495302 0.496875 0.496887 0.495709 0.495348 0.496608 0.500714 
0.502549 0.507192 0.513005 0.513226 0.510591 0.500239 0.49507 0.486312 0.483058 
0.485176 0.486595 0.48973 0.490574 0.490655 0.490756 0.490859 0.490825 0.488894 
0.477115 0.47691 0.476821 0.476817 0.476833 0.476855 0.476878 0.4769 0.476921 
0.476941 0.476959 0.476975 0.47699 0.477004 0.477016 0.477027 0.477037 0.477047 
0.477055 0.477063 0.477069 0.477076 0.477081 0.477086 0.477091 0.477095 0.477099 
0.477102 0.477105 0.477108 0.477111 0.477113 0.477116 0.477118 0.47712 0.477121 
0.477123 0.477124 0.477126 0.477127 0.477128 0.477129 0.47713 0.477131 0.477132 
0.477133 0.477134 0.477135 0.477136 0.477137 0.477137 0.477138 0.477139 0.477139 
0.47714 0.477141 0.477141 0.477142 0.477143 0.477143 0.477144 0.477145 0.477145 
0.477146 0.477146 0.477147 0.477148 0.477148 0.477149 0.47715 0.47715 0.477151 
0.477151 0.477152 0.477153 0.477153 0.477154 0.477155 0.477155 0.477156 0.477157 
0.477157 0.477158 0.477159 0.47715 0.477143 0.475764 0.47164 0.759995 0.759984 
0.759975 0.759968 0.759962 0.75996 0.75996 0.759964 0.759971 0.759981 0.759995 
0.760012 0.760033 0.760057 0.760084 0.760115 0.760149 0.760185 0.760225 0.760267 
0.760311 0.760357 0.760406 0.760455 0.760505 0.760557 0.760608 0.760659 0.760709 
0.760758 0.760806 0.760852 0.760895 0.760936 0.760974 0.761009 0.76104 0.761068 
0.761092 0.761113 0.761129 0.761141 0.761149 0.761152 0.761151 0.761146 0.761135 
0.76112 0.761099 0.761074 0.761043 0.761007 0.760966 0.76092 0.76087 0.760817 
0.760761 0.760702 0.760642 0.760582 0.760522 0.760463 0.760405 0.76035 0.760297 
0.760248 0.760202 0.76016 0.760122 0.76009 0.760062 0.760041 0.760025 0.760015 
0.760011 0.760014 0.760022 0.760037 0.760057 0.760082 0.760111 0.760144 0.760179 
0.760217 0.760255 0.760294 0.760332 0.760369 0.760404 0.760437 0.760468 0.760497 
0.760522 0.760546 0.760567 0.760586 0.760604 0.76062 0.760635 0.760648 0.760661 
0.760673 0.760683 0.760692 0.7607 0.760705 0.760708 0.760708 0.760704 0.760697 
0.760685 0.76067 0.76065 0.760626 0.760598 0.760568 0.760535 0.760502 0.760469 
0.760441 0.760418 0.760405 0.760406 0.760422 0.760459 0.76052 0.760605 0.760716 
0.760853 0.760994 0.761138 0.761159 0.756303 0.743666 0.724645 0.700796 0.673496 
0.643966 0.613336 0.582653 0.55328 0.526369 0.503339 0.485852 0.476057 0.474631 
0.474717 0.474793 0.474865 0.474928 0.474984 0.475034 0.475078 0.475117 0.475151 
0.475181 0.475208 0.475232 0.475253 0.475272 0.475289 0.475305 0.475319 0.475331 
0.475343 0.475355 0.475367 0.475377 0.475362 0.475417 0.47523 0.470714 0.465506 
0.467861 0.470368 0.474962 0.478846 0.482028 0.485996 0.489118 0.49155 0.494125 
0.496763 0.499592 0.502257 0.505171 0.508792 0.512893 0.52041 0.520581 0.528597 
0.532113 0.530887 0.528647 0.517308 0.509657 0.49194 0.48409 0.487043 0.487603 
0.48988 0.491249 0.491784 0.491841 0.493457 0.494205 0.49164 0.47773 0.476671 
0.476715 0.476754 0.47679 0.476823 0.476853 0.47688 0.476904 0.476926 0.476946 
0.476964 0.47698 0.476995 0.477008 0.47702 0.47703 0.47704 0.477049 0.477057 
0.477064 0.47707 0.477076 0.477082 0.477086 0.477091 0.477095 0.477098 0.477102 
0.477105 0.477108 0.47711 0.477112 0.477115 0.477117 0.477118 0.47712 0.477122 
0.477123 0.477125 0.477126 0.477127 0.477128 0.477129 0.47713 0.477131 0.477132 
0.477133 0.477134 0.477135 0.477135 0.477136 0.477137 0.477138 0.477138 0.477139 
0.47714 0.477141 0.477141 0.477142 0.477143 0.477143 0.477144 0.477144 0.477145 
0.477146 0.477146 0.477147 0.477148 0.477148 0.477149 0.477149 0.47715 0.477151 
0.477151 0.477152 0.477153 0.477153 0.477154 0.477155 0.477155 0.477156 0.477157 
0.477157 0.477148 0.477141 0.475762 0.471637 0.759994 0.759982 0.759972 0.759964 
0.759958 0.759955 0.759954 0.759957 0.759964 0.759974 0.759988 0.760005 0.760025 
0.760049 0.760077 0.760107 0.760141 0.760178 0.760217 0.760259 0.760304 0.76035 
0.760399 0.760449 0.760499 0.760551 0.760603 0.760655 0.760706 0.760756 0.760804 
0.760851 0.760896 0.760938 0.760977 0.761012 0.761045 0.761073 0.761098 0.761119 
0.761136 0.761149 0.761157 0.761161 0.76116 0.761154 0.761144 0.761128 0.761107 
0.761081 0.761049 0.761012 0.760969 0.760922 0.760871 0.760816 0.760758 0.760699 
0.760638 0.760576 0.760515 0.760455 0.760397 0.760341 0.760288 0.760238 0.760192 
0.76015 0.760112 0.760079 0.760051 0.760029 0.760013 0.760003 0.759999 0.760002 
0.760011 0.760026 0.760047 0.760073 0.760103 0.760138 0.760175 0.760214 0.760254 
0.760294 0.760333 0.760371 0.760407 0.760441 0.760472 0.760501 0.760527 0.76055 
0.760571 0.760589 0.760606 0.760622 0.760636 0.76065 0.760663 0.760675 0.760686 
0.760696 0.760704 0.76071 0.760714 0.760714 0.760711 0.760704 0.760693 0.760677 
0.760656 0.760631 0.760601 0.760568 0.760532 0.760495 0.760458 0.760424 0.760396 
0.760377 0.760371 0.760383 0.760414 0.76047 0.760552 0.760662 0.760798 0.760945 
0.761142 0.761117 0.756415 0.744131 0.725446 0.701767 0.67444 0.644722 0.61379 
0.582763 0.552968 0.525704 0.502602 0.485421 0.476013 0.474629 0.474724 0.474807 
0.474879 0.474942 0.474997 0.475045 0.475088 0.475125 0.475158 0.475188 0.475214 
0.475237 0.475258 0.475276 0.475293 0.475308 0.475321 0.475333 0.475345 0.475357 
0.475368 0.475376 0.475351 0.475412 0.475232 0.470062 0.466046 0.468477 0.471111 
0.475929 0.479625 0.482065 0.486123 0.488921 0.490812 0.493535 0.497261 0.501863 
0.507026 0.511634 0.516858 0.520243 0.531576 0.532109 0.531499 0.534233 0.532531 
0.528167 0.519039 0.511062 0.504214 0.491577 0.489118 0.48977 0.49123 0.491996 
0.492537 0.492592 0.494556 0.495946 0.494062 0.477428 0.476683 0.476727 0.476762 
0.476797 0.476829 0.476859 0.476885 0.476909 0.476931 0.47695 0.476968 0.476983 
0.476998 0.477011 0.477022 0.477033 0.477042 0.477051 0.477058 0.477065 0.477072 
0.477078 0.477083 0.477087 0.477092 0.477096 0.477099 0.477102 0.477105 0.477108 
0.477111 0.477113 0.477115 0.477117 0.477119 0.47712 0.477122 0.477123 0.477125 
0.477126 0.477127 0.477128 0.477129 0.47713 0.477131 0.477132 0.477133 0.477134 
0.477135 0.477136 0.477136 0.477137 0.477138 0.477139 0.477139 0.47714 0.477141 
0.477141 0.477142 0.477143 0.477143 0.477144 0.477144 0.477145 0.477146 0.477146 
0.477147 0.477148 0.477148 0.477149 0.47715 0.47715 0.477151 0.477151 0.477152 
0.477153 0.477153 0.477154 0.477155 0.477155 0.477156 0.477157 0.477157 0.477148 
0.477141 0.475762 0.471637 0.759993 0.759979 0.759968 0.759958 0.759951 0.759947 
0.759946 0.759949 0.759955 0.759964 0.759978 0.759995 0.760015 0.760039 0.760066 
0.760097 0.76013 0.760167 0.760207 0.760249 0.760294 0.760341 0.760389 0.76044 
0.760491 0.760543 0.760596 0.760649 0.760701 0.760752 0.760802 0.76085 0.760896 
0.760939 0.76098 0.761017 0.761051 0.761081 0.761107 0.761129 0.761147 0.761161 
0.761169 0.761174 0.761173 0.761167 0.761156 0.76114 0.761118 0.761091 0.761058 
0.761019 0.760975 0.760926 0.760872 0.760815 0.760755 0.760693 0.76063 0.760567 
0.760505 0.760444 0.760385 0.760329 0.760275 0.760224 0.760177 0.760134 0.760096 
0.760062 0.760034 0.760011 0.759995 0.759984 0.75998 0.759983 0.759993 0.760009 
0.760031 0.760059 0.760092 0.760128 0.760167 0.760209 0.760251 0.760293 0.760335 
0.760375 0.760412 0.760447 0.760479 0.760507 0.760533 0.760556 0.760576 0.760594 
0.76061 0.760625 0.760639 0.760652 0.760665 0.760677 0.760689 0.7607 0.76071 
0.760717 0.760722 0.760724 0.760722 0.760716 0.760705 0.760688 0.760666 0.760639 
0.760606 0.760569 0.760528 0.760484 0.76044 0.760399 0.760362 0.760334 0.760319 
0.760321 0.760344 0.760392 0.760467 0.760573 0.760707 0.760851 0.761048 0.761046 
0.75642 0.744318 0.725842 0.7023 0.674996 0.645184 0.614075 0.582851 0.552837 
0.525446 0.502367 0.48533 0.476055 0.474668 0.474759 0.474837 0.474905 0.474964 
0.475016 0.475062 0.475102 0.475137 0.475169 0.475197 0.475222 0.475244 0.475264 
0.475281 0.475297 0.475311 0.475324 0.475335 0.475347 0.475358 0.47537 0.47538 
0.475359 0.475422 0.475245 0.470118 0.465758 0.468202 0.470888 0.475949 0.479596 
0.482017 0.485836 0.488525 0.490511 0.493459 0.49708 0.501456 0.506462 0.510922 
0.516035 0.520746 0.52622 0.526325 0.524736 0.524713 0.521452 0.51523 0.512914 
0.50961 0.507812 0.507103 0.490644 0.492045 0.492502 0.492606 0.493047 0.493067 
0.494738 0.496606 0.494665 0.477767 0.476682 0.476727 0.476766 0.476802 0.476835 
0.476864 0.47689 0.476914 0.476935 0.476954 0.476971 0.476987 0.477001 0.477013 
0.477025 0.477035 0.477044 0.477053 0.47706 0.477067 0.477073 0.477079 0.477084 
0.477088 0.477093 0.477096 0.4771 0.477103 0.477106 0.477109 0.477111 0.477113 
0.477115 0.477117 0.477119 0.477121 0.477122 0.477124 0.477125 0.477126 0.477127 
0.477128 0.477129 0.47713 0.477131 0.477132 0.477133 0.477134 0.477135 0.477136 
0.477136 0.477137 0.477138 0.477138 0.477139 0.47714 0.477141 0.477141 0.477142 
0.477143 0.477143 0.477144 0.477144 0.477145 0.477146 0.477146 0.477147 0.477148 
0.477148 0.477149 0.477149 0.47715 0.477151 0.477151 0.477152 0.477153 0.477153 
0.477154 0.477155 0.477155 0.477156 0.477157 0.477157 0.477148 0.477141 0.475762 
0.471637 0.759991 0.759976 0.759962 0.759951 0.759942 0.759937 0.759936 0.759938 
0.759943 0.759953 0.759966 0.759982 0.760003 0.760026 0.760053 0.760084 0.760118 
0.760154 0.760194 0.760236 0.760281 0.760329 0.760378 0.760429 0.760481 0.760534 
0.760588 0.760641 0.760695 0.760747 0.760799 0.760849 0.760896 0.760941 0.760984 
0.761023 0.761058 0.76109 0.761118 0.761141 0.76116 0.761175 0.761185 0.761189 
0.761189 0.761183 0.761172 0.761155 0.761133 0.761104 0.761069 0.761028 0.760981 
0.760929 0.760873 0.760812 0.760749 0.760685 0.76062 0.760555 0.760491 0.760429 
0.760369 0.760311 0.760257 0.760206 0.760158 0.760114 0.760075 0.76004 0.760011 
0.759988 0.75997 0.75996 0.759956 0.759959 0.759969 0.759987 0.760011 0.760041 
0.760076 0.760116 0.760158 0.760203 0.760248 0.760294 0.760338 0.76038 0.760419 
0.760455 0.760488 0.760517 0.760542 0.760564 0.760583 0.7606 0.760615 0.760629 
0.760642 0.760655 0.760667 0.76068 0.760693 0.760705 0.760717 0.760727 0.760734 
0.760738 0.760738 0.760732 0.760721 0.760704 0.76068 0.76065 0.760614 0.760571 
0.760523 0.760472 0.760418 0.760365 0.760316 0.760276 0.760247 0.760237 0.760248 
0.760285 0.760352 0.760451 0.760584 0.760732 0.760939 0.760949 0.756365 0.74436 
0.726008 0.702565 0.675296 0.64545 0.614254 0.582933 0.552815 0.525385 0.502334 
0.485356 0.47611 0.474718 0.474803 0.474875 0.474938 0.474993 0.475041 0.475083 
0.47512 0.475154 0.475183 0.475209 0.475233 0.475254 0.475272 0.475289 0.475303 
0.475316 0.475328 0.475338 0.475349 0.475359 0.47537 0.475381 0.475367 0.475445 
0.475268 0.470144 0.464526 0.46653 0.468523 0.472751 0.475273 0.477298 0.479408 
0.481638 0.48423 0.487332 0.489722 0.492214 0.495615 0.498856 0.502709 0.50977 
0.509807 0.506558 0.507308 0.497865 0.499181 0.501258 0.505231 0.507703 0.508121 
0.507831 0.49218 0.492814 0.493517 0.494081 0.494618 0.494669 0.496441 0.498176 
0.496047 0.477707 0.476696 0.47674 0.476779 0.476814 0.476846 0.476874 0.476899 
0.476922 0.476943 0.476961 0.476978 0.476993 0.477006 0.477018 0.477029 0.477039 
0.477048 0.477056 0.477063 0.47707 0.477075 0.477081 0.477086 0.47709 0.477094 
0.477098 0.477101 0.477104 0.477107 0.47711 0.477112 0.477114 0.477116 0.477118 
0.47712 0.477121 0.477123 0.477124 0.477125 0.477126 0.477128 0.477129 0.47713 
0.477131 0.477132 0.477132 0.477133 0.477134 0.477135 0.477136 0.477136 0.477137 
0.477138 0.477139 0.477139 0.47714 0.477141 0.477141 0.477142 0.477143 0.477143 
0.477144 0.477144 0.477145 0.477146 0.477146 0.477147 0.477148 0.477148 0.477149 
0.477149 0.47715 0.477151 0.477151 0.477152 0.477153 0.477153 0.477154 0.477155 
0.477155 0.477156 0.477157 0.477157 0.477148 0.477141 0.475762 0.471637 0.75999 
0.759972 0.759956 0.759942 0.759933 0.759926 0.759924 0.759925 0.75993 0.759939 
0.759952 0.759968 0.759988 0.760012 0.760039 0.76007 0.760103 0.76014 0.76018 
0.760222 0.760268 0.760315 0.760365 0.760416 0.760469 0.760523 0.760578 0.760633 
0.760688 0.760742 0.760795 0.760847 0.760896 0.760943 0.760988 0.761028 0.761066 
0.761099 0.761129 0.761154 0.761175 0.761191 0.761201 0.761207 0.761207 0.761201 
0.76119 0.761173 0.761149 0.761118 0.761081 0.761037 0.760988 0.760932 0.760872 
0.760808 0.760742 0.760674 0.760606 0.760539 0.760473 0.76041 0.760349 0.760291 
0.760235 0.760184 0.760135 0.76009 0.76005 0.760014 0.759983 0.759959 0.759941 
0.75993 0.759926 0.75993 0.759941 0.75996 0.759986 0.760019 0.760057 0.760101 
0.760147 0.760196 0.760246 0.760295 0.760342 0.760387 0.760429 0.760466 0.7605 
0.760529 0.760554 0.760575 0.760593 0.760608 0.760621 0.760634 0.760645 0.760657 
0.76067 0.760683 0.760697 0.760711 0.760725 0.760738 0.760748 0.760755 0.760757 
0.760752 0.760742 0.760724 0.760699 0.760666 0.760624 0.760575 0.760519 0.760457 
0.760391 0.760324 0.760259 0.760202 0.760156 0.760129 0.760125 0.760149 0.760201 
0.760293 0.760422 0.760572 0.760789 0.760817 0.756267 0.74432 0.726046 0.702673 
0.675445 0.645601 0.614378 0.583021 0.55286 0.525419 0.502386 0.485428 0.476184 
0.474781 0.474858 0.474923 0.474979 0.475027 0.47507 0.475109 0.475143 0.475173 
0.4752 0.475224 0.475246 0.475265 0.475283 0.475298 0.475311 0.475322 0.475333 
0.475341 0.47535 0.475358 0.475366 0.475375 0.47537 0.475439 0.475301 0.472189 
0.467646 0.468118 0.468522 0.468535 0.467719 0.466895 0.469105 0.470974 0.472251 
0.475701 0.477136 0.477447 0.479078 0.481739 0.483567 0.484389 0.485279 0.488336 
0.488983 0.490657 0.49415 0.498147 0.50081 0.50442 0.505052 0.507296 0.493031 
0.493164 0.494786 0.495505 0.49509 0.494761 0.497694 0.499665 0.497488 0.477877 
0.476713 0.476756 0.476794 0.476828 0.476859 0.476886 0.47691 0.476932 0.476952 
0.47697 0.476985 0.477 0.477012 0.477024 0.477034 0.477044 0.477052 0.47706 
0.477066 0.477073 0.477078 0.477083 0.477088 0.477092 0.477096 0.477099 0.477103 
0.477106 0.477108 0.477111 0.477113 0.477115 0.477117 0.477119 0.47712 0.477122 
0.477123 0.477124 0.477126 0.477127 0.477128 0.477129 0.47713 0.477131 0.477132 
0.477133 0.477133 0.477134 0.477135 0.477136 0.477137 0.477137 0.477138 0.477139 
0.477139 0.47714 0.477141 0.477141 0.477142 0.477143 0.477143 0.477144 0.477144 
0.477145 0.477146 0.477146 0.477147 0.477148 0.477148 0.477149 0.47715 0.47715 
0.477151 0.477151 0.477152 0.477153 0.477153 0.477154 0.477155 0.477155 0.477156 
0.477157 0.477157 0.477148 0.477141 0.475762 0.471637 0.759988 0.759967 0.759948 
0.759933 0.759921 0.759914 0.759911 0.759911 0.759916 0.759925 0.759937 0.759954 
0.759974 0.759997 0.760025 0.760055 0.760089 0.760125 0.760165 0.760208 0.760253 
0.760301 0.760351 0.760403 0.760457 0.760512 0.760567 0.760624 0.76068 0.760736 
0.760791 0.760844 0.760896 0.760945 0.760991 0.761034 0.761074 0.761109 0.76114 
0.761167 0.761189 0.761206 0.761218 0.761225 0.761225 0.76122 0.761208 0.76119 
0.761165 0.761133 0.761094 0.761047 0.760994 0.760935 0.76087 0.760802 0.760732 
0.760661 0.76059 0.76052 0.760453 0.760389 0.760327 0.760268 0.760213 0.76016 
0.76011 0.760064 0.760023 0.759985 0.759953 0.759928 0.759909 0.759897 0.759893 
0.759897 0.75991 0.75993 0.759959 0.759995 0.760037 0.760085 0.760136 0.760189 
0.760243 0.760297 0.760348 0.760397 0.760441 0.76048 0.760515 0.760544 0.760568 
0.760588 0.760605 0.760618 0.760629 0.760639 0.760649 0.76066 0.760672 0.760686 
0.760701 0.760718 0.760735 0.760751 0.760765 0.760775 0.76078 0.760777 0.760767 
0.760749 0.760722 0.760686 0.760639 0.760582 0.760516 0.760441 0.76036 0.760275 
0.760191 0.760112 0.760046 0.759999 0.759978 0.759986 0.760026 0.76011 0.760235 
0.760386 0.760611 0.760657 0.756136 0.744232 0.726013 0.702698 0.675513 0.645694 
0.61448 0.583124 0.55295 0.525507 0.50248 0.485523 0.47627 0.474856 0.474922 
0.474977 0.475025 0.475067 0.475104 0.475138 0.475168 0.475195 0.47522 0.475242 
0.475262 0.475279 0.475295 0.475308 0.47532 0.47533 0.475339 0.475346 0.475351 
0.475356 0.475359 0.475362 0.475363 0.475382 0.477332 0.47929 0.478768 0.475658 
0.477175 0.477036 0.475408 0.475734 0.478079 0.479697 0.480832 0.480787 0.480624 
0.481986 0.482293 0.483886 0.485797 0.485845 0.486874 0.488095 0.49014 0.490514 
0.49039 0.492705 0.494474 0.496197 0.500244 0.503821 0.493151 0.493717 0.4958 
0.496505 0.49601 0.495591 0.498037 0.500503 0.498664 0.477994 0.476734 0.476776 
0.476812 0.476845 0.476874 0.476901 0.476924 0.476945 0.476963 0.47698 0.476995 
0.477008 0.47702 0.477031 0.47704 0.477049 0.477057 0.477064 0.477071 0.477076 
0.477082 0.477086 0.477091 0.477095 0.477098 0.477101 0.477104 0.477107 0.47711 
0.477112 0.477114 0.477116 0.477118 0.477119 0.477121 0.477122 0.477124 0.477125 
0.477126 0.477127 0.477128 0.477129 0.47713 0.477131 0.477132 0.477133 0.477134 
0.477134 0.477135 0.477136 0.477137 0.477137 0.477138 0.477139 0.477139 0.47714 
0.477141 0.477141 0.477142 0.477143 0.477143 0.477144 0.477145 0.477145 0.477146 
0.477146 0.477147 0.477148 0.477148 0.477149 0.47715 0.47715 0.477151 0.477151 
0.477152 0.477153 0.477153 0.477154 0.477155 0.477155 0.477156 0.477157 0.477157 
0.477148 0.477141 0.475762 0.471637 0.759986 0.759961 0.75994 0.759923 0.75991 
0.759901 0.759897 0.759897 0.759902 0.75991 0.759923 0.759939 0.759959 0.759983 
0.76001 0.760041 0.760074 0.760111 0.760151 0.760194 0.760239 0.760287 0.760337 
0.76039 0.760444 0.7605 0.760557 0.760614 0.760672 0.760729 0.760786 0.760841 
0.760895 0.760946 0.760994 0.761039 0.761081 0.761118 0.761151 0.761179 0.761203 
0.761221 0.761234 0.761241 0.761242 0.761237 0.761226 0.761207 0.761181 0.761147 
0.761105 0.761056 0.760999 0.760936 0.760868 0.760796 0.760722 0.760647 0.760574 
0.760503 0.760434 0.760369 0.760307 0.760248 0.760192 0.760138 0.760088 0.76004 
0.759997 0.759958 0.759924 0.759897 0.759877 0.759864 0.75986 0.759865 0.759879 
0.759902 0.759933 0.759972 0.760018 0.760069 0.760125 0.760183 0.760242 0.7603 
0.760355 0.760407 0.760454 0.760496 0.760531 0.760561 0.760585 0.760604 0.760618 
0.76063 0.760639 0.760646 0.760654 0.760663 0.760674 0.760688 0.760705 0.760724 
0.760744 0.760764 0.760782 0.760797 0.760805 0.760805 0.760796 0.760778 0.76075 
0.76071 0.760657 0.760592 0.760514 0.760425 0.760327 0.760222 0.760116 0.760014 
0.759926 0.759859 0.759822 0.759821 0.759859 0.759942 0.760065 0.760215 0.760444 
0.760505 0.756005 0.744132 0.725952 0.702684 0.675545 0.645765 0.614581 0.583246 
0.553077 0.525633 0.502602 0.485636 0.476369 0.474941 0.474993 0.475038 0.475076 