# vtk DataFile Version 5.1
vtk output
ASCII
DATASET UNSTRUCTURED_GRID
POINTS 9610 double
0.1016 1.5 0.27799999714 0.1016 1.45 0.27799999714 0.1016 1.4 0.27700001001 
0.1016 1.35 0.27399998903 0.1016 1.3 0.27399998903 0.1016 1.25 0.27300000191 
0.1016 1.2 0.27200001478 0.1016 1.15 0.27099999785 0.1016 1.1 0.25 
0.1016 1.05 0.2349999994 0.1016 1 0.23299999535 0.1016 0.95 0.22200000286 
0.1016 0.9 0.19799999893 0.1016 0.85 0.18400000036 0.1016 0.8 0.18500000238 
0.1016 0.75 0.2045122683 0.1016 0.7 0.21481634676 0.1016 0.65 0.22511811554 
0.1016 0.6 0.24067126215 0.1016 0.55 0.25612765551 0.1016 0.5 0.26262491941 
0.1016 0.45 0.26525467634 0.1016 0.4 0.26647254825 0.1016 0.35 0.26672193408 
0.1016 0.3 0.26778841019 0.1016 0.25 0.27249374986 0.1016 0.2 0.28212246299 
0.1016 0.15 0.28919026256 0.1016 0.1 0.29249885678 0.1016 0.05 0.2947755754 
0.1016 0 0.29728108644 5.08 1.5 0.28700000048 5.08 1.45 0.28700000048 
5.08 1.4 0.28700000048 5.08 1.35 0.28700000048 5.08 1.3 0.28700000048 
5.08 1.25 0.28700000048 5.08 1.2 0.28700000048 5.08 1.15 0.28700000048 
5.08 1.1 0.28700000048 5.08 1.05 0.28700000048 5.08 1 0.28700000048 
5.08 0.95 0.28700000048 5.08 0.9 0.28700000048 5.08 0.85 0.28700000048 
5.08 0.8 0.28700000048 5.08 0.75 0.28700000048 5.08 0.7 0.28700000048 
5.08 0.65 0.28700000048 5.08 0.6 0.28700000048 5.08 0.55 0.28700000048 
5.08 0.5 0.28700000048 5.08 0.45 0.28700000048 5.08 0.4 0.28700000048 
5.08 0.35 0.28700000048 5.08 0.3 0.28700000048 5.08 0.25 0.28700000048 
5.08 0.2 0.28700000048 5.08 0.15 0.28700000048 5.08 0.1 0.28700000048 
5.08 0.05 0.28700000048 5.08 0 0.28700000048 0.151384 1.5 0.27896001935 
0.151384 1.45 0.27803999186 0.151384 1.4 0.27707999945 0.151384 1.35 0.27500000596 
0.151384 1.3 0.27403998375 0.151384 1.25 0.27303999662 0.151384 1.2 0.2720400095 
0.151384 1.15 0.27107998729 0.151384 1.1 0.26104000211 0.151384 1.05 0.23612000048 
0.151384 1 0.22611999512 0.151384 0.95 0.23183999956 0.151384 0.9 0.21568000317 
0.151384 0.85 0.19767999649 0.151384 0.8 0.18184000254 0.151384 0.75 0.2067784369 
0.151384 0.7 0.21487820148 0.151384 0.65 0.22977133095 0.151384 0.6 0.24776650965 
0.151384 0.55 0.26576644182 0.151384 0.5 0.26593068242 0.151384 0.45 0.26793852448 
0.151384 0.4 0.26991698146 0.151384 0.35 0.27089071274 0.151384 0.3 0.27188137174 
0.151384 0.25 0.27394196391 0.151384 0.2 0.28299099207 0.151384 0.15 0.28608375788 
0.151384 0.1 0.28613424301 0.151384 0.05 0.28810456395 0.151384 0 0.28913581371 
0.201168 1.5 0.27992001176 0.201168 1.45 0.27892002463 0.201168 1.4 0.27607998252 
0.201168 1.35 0.27583998442 0.201168 1.3 0.27300000191 0.201168 1.25 0.27200001478 
0.201168 1.2 0.27107998729 0.201168 1.15 0.27008000016 0.201168 1.1 0.27000001073 
0.201168 1.05 0.26095998287 0.201168 1 0.24079999328 0.201168 0.95 0.23143999279 
0.201168 0.9 0.23235999048 0.201168 0.85 0.22803999484 0.201168 0.8 0.22200000286 
0.201168 0.75 0.22779999673 0.201168 0.7 0.23520000279 0.201168 0.65 0.25595998764 
0.201168 0.6 0.26644000411 0.201168 0.55 0.26715999842 0.201168 0.5 0.26707997918 
0.201168 0.45 0.26807999611 0.201168 0.4 0.27107998729 0.201168 0.35 0.26940000057 
0.201168 0.3 0.27507999539 0.201168 0.25 0.27623999119 0.201168 0.2 0.27631998062 
0.201168 0.15 0.27831998467 0.201168 0.1 0.27831998467 0.201168 0.05 0.27871999145 
0.201168 0 0.27871999145 0.250952 1.5 0.27988001704 0.250952 1.45 0.27888000011 
0.250952 1.4 0.27700001001 0.250952 1.35 0.27487999201 0.250952 1.3 0.27211999893 
0.250952 1.25 0.27099999785 0.250952 1.2 0.27000001073 0.250952 1.15 0.27000001073 
0.250952 1.1 0.2689999938 0.250952 1.05 0.26811999083 0.250952 1 0.26796001196 
0.250952 0.95 0.25367999077 0.250952 0.9 0.25256001949 0.250952 0.85 0.25356000662 
0.250952 0.8 0.25356000662 0.250952 0.75 0.25356000662 0.250952 0.7 0.25927999616 
0.250952 0.65 0.26488000154 0.250952 0.6 0.26587998867 0.250952 0.55 0.26587998867 
0.250952 0.5 0.26600000262 0.250952 0.45 0.26600000262 0.250952 0.4 0.26624000072 
0.250952 0.35 0.2671200037 0.250952 0.3 0.27024000883 0.250952 0.25 0.27412000299 
0.250952 0.2 0.27336001396 0.250952 0.15 0.27224001288 0.250952 0.1 0.27423998713 
0.250952 0.05 0.27799999714 0.250952 0 0.27711999416 0.300736 1.5 0.27823337913 
0.300736 1.45 0.27539864182 0.300736 1.4 0.27519831061 0.300736 1.35 0.27320209146 
0.300736 1.3 0.27107205987 0.300736 1.25 0.27008360624 0.300736 1.2 0.27003148198 
0.300736 1.15 0.26911726594 0.300736 1.1 0.26903182268 0.300736 1.05 0.26903682947 
0.300736 1 0.27041533589 0.300736 0.95 0.26917380095 0.300736 0.9 0.26718229055 
0.300736 0.85 0.26727190614 0.300736 0.8 0.26908791065 0.300736 0.75 0.26816695929 
0.300736 0.7 0.2674638629 0.300736 0.65 0.26775640249 0.300736 0.6 0.26785179973 
0.300736 0.55 0.26693767309 0.300736 0.5 0.26602077484 0.300736 0.45 0.26600837708 
0.300736 0.4 0.26504558325 0.300736 0.35 0.26512911916 0.300736 0.3 0.26630565524 
0.300736 0.25 0.26938304305 0.300736 0.2 0.27110809088 0.300736 0.15 0.27194857597 
0.300736 0.1 0.27395698428 0.300736 0.05 0.27524378896 0.300736 0 0.27338784933 
0.35052 1.5 0.27526089549 0.35052 1.45 0.27314534783 0.35052 1.4 0.27315345407 
0.35052 1.35 0.27207753062 0.35052 1.3 0.27098450065 0.35052 1.25 0.26999154687 
0.35052 1.2 0.26817765832 0.35052 1.15 0.26716408134 0.35052 1.1 0.26626455784 
0.35052 1.05 0.26624310017 0.35052 1 0.26633134484 0.35052 0.95 0.27014350891 
0.35052 0.9 0.26820877194 0.35052 0.85 0.26816654205 0.35052 0.8 0.27017095685 
0.35052 0.75 0.26918488741 0.35052 0.7 0.26902464032 0.35052 0.65 0.26897400618 
0.35052 0.6 0.26895803213 0.35052 0.55 0.26793181896 0.35052 0.5 0.2651130259 
0.35052 0.45 0.26508533955 0.35052 0.4 0.2649885118 0.35052 0.35 0.26496016979 
0.35052 0.3 0.26504781842 0.35052 0.25 0.26713472605 0.35052 0.2 0.2691719234 
0.35052 0.15 0.27200803161 0.35052 0.1 0.27401301265 0.35052 0.05 0.27487105131 
0.35052 0 0.26740676165 0.400304 1.5 0.27405613661 0.400304 1.45 0.27296423912 
0.400304 1.4 0.27208968997 0.400304 1.35 0.27112090588 0.400304 1.3 0.27100539207 
0.400304 1.25 0.26913246512 0.400304 1.2 0.26885080338 0.400304 1.15 0.26784959435 
0.400304 1.1 0.26771229506 0.400304 1.05 0.26684933901 0.400304 1 0.26862066984 
0.400304 0.95 0.26731386781 0.400304 0.9 0.26706182957 0.400304 0.85 0.26883202791 
0.400304 0.8 0.26994112134 0.400304 0.75 0.26897677779 0.400304 0.7 0.26814895868 
0.400304 0.65 0.26815739274 0.400304 0.6 0.2672868371 0.400304 0.55 0.26626873016 
0.400304 0.5 0.26500949264 0.400304 0.45 0.26500403881 0.400304 0.4 0.26503705978 
0.400304 0.35 0.26502510905 0.400304 0.3 0.26499423385 0.400304 0.25 0.26608005166 
0.400304 0.2 0.26984789968 0.400304 0.15 0.27198529243 0.400304 0.1 0.27401769161 
0.400304 0.05 0.27589398623 0.400304 0 0.27579978108 0.450088 1.5 0.27487853169 
0.450088 1.45 0.27300924063 0.450088 1.4 0.27196782827 0.450088 1.35 0.27096572518 
0.450088 1.3 0.27091893554 0.450088 1.25 0.26895684004 0.450088 1.2 0.26896712184 
0.450088 1.15 0.26799425483 0.450088 1.1 0.26793712378 0.450088 1.05 0.26694592834 
0.450088 1 0.26723736525 0.450088 0.95 0.26691877842 0.450088 0.9 0.26866519451 
0.450088 0.85 0.26900038123 0.450088 0.8 0.26999431849 0.450088 0.75 0.26897796988 
0.450088 0.7 0.266233325 0.450088 0.65 0.26705792546 0.450088 0.6 0.26606434584 
0.450088 0.55 0.26505666971 0.450088 0.5 0.26496213675 0.450088 0.45 0.26409879327 
0.450088 0.4 0.26406288147 0.450088 0.35 0.26487588882 0.450088 0.3 0.26574164629 
0.450088 0.25 0.26764389873 0.450088 0.2 0.26994329691 0.450088 0.15 0.27278742194 
0.450088 0.1 0.2747913301 0.450088 0.05 0.2742908299 0.450088 0 0.27453771234 
0.499872 1.5 0.27483248711 0.499872 1.45 0.27295619249 0.499872 1.4 0.27206927538 
0.499872 1.35 0.27114087343 0.499872 1.3 0.27196747065 0.499872 1.25 0.27001109719 
0.499872 1.2 0.26914566755 0.499872 1.15 0.26902413368 0.499872 1.1 0.26990282536 
0.499872 1.05 0.27060073614 0.499872 1 0.26724275947 0.499872 0.95 0.26813530922 
0.499872 0.9 0.26768729091 0.499872 0.85 0.2685161829 0.499872 0.8 0.26865169406 
0.499872 0.75 0.26761510968 0.499872 0.7 0.26628440619 0.499872 0.65 0.26639312506 
0.499872 0.6 0.26539412141 0.499872 0.55 0.26521396637 0.499872 0.5 0.26438635588 
0.499872 0.45 0.26420968771 0.499872 0.4 0.26505717635 0.499872 0.35 0.26775664091 
0.499872 0.3 0.26877567172 0.499872 0.25 0.2690743506 0.499872 0.2 0.27106058598 
0.499872 0.15 0.27491080761 0.499872 0.1 0.2759885788 0.499872 0.05 0.27566212416 
0.499872 0 0.27723628283 0.549656 1.5 0.28331390023 0.549656 1.45 0.27410677075 
0.549656 1.4 0.27011102438 0.549656 1.35 0.26829081774 0.549656 1.3 0.26799172163 
0.549656 1.25 0.26644396782 0.549656 1.2 0.26493024826 0.549656 1.15 0.26424628496 
0.549656 1.1 0.26394695044 0.549656 1.05 0.26264882088 0.549656 1 0.26012665033 
0.549656 0.95 0.25967356563 0.549656 0.9 0.25849857926 0.549656 0.85 0.25834575295 
0.549656 0.8 0.2588031292 0.549656 0.75 0.25862336159 0.549656 0.7 0.25786352158 
0.549656 0.65 0.25850197673 0.549656 0.6 0.25904914737 0.549656 0.55 0.25924310088 
0.549656 0.5 0.25800010562 0.549656 0.45 0.25790318847 0.549656 0.4 0.25916674733 
0.549656 0.35 0.26118278503 0.549656 0.3 0.26323804259 0.549656 0.25 0.26429915428 
0.549656 0.2 0.26596337557 0.549656 0.15 0.26853653789 0.549656 0.1 0.27191719413 
0.549656 0.05 0.27562186122 0.549656 0 0.27852463722 0.59944 1.5 0.29372912645 
0.59944 1.45 0.27702820301 0.59944 1.4 0.27546221018 0.59944 1.35 0.27253469825 
0.59944 1.3 0.27227041125 0.59944 1.25 0.27113121748 0.59944 1.2 0.26991003752 
0.59944 1.15 0.26881447434 0.59944 1.1 0.26765733957 0.59944 1.05 0.26465466619 
0.59944 1 0.26420971751 0.59944 0.95 0.26405251026 0.59944 0.9 0.26293551922 
0.59944 0.85 0.26197180152 0.59944 0.8 0.26296165586 0.59944 0.75 0.26381227374 
0.59944 0.7 0.26203963161 0.59944 0.65 0.26390108466 0.59944 0.6 0.26507610083 
0.59944 0.55 0.265953511 0.59944 0.5 0.26401129365 0.59944 0.45 0.26394769549 
0.59944 0.4 0.26499330997 0.59944 0.35 0.26453638077 0.59944 0.3 0.26755586267 
[...]
CELL_DATA 9270
FIELD FieldData 7
B_Stress_n_p_m2 1 9270 float
0.265699 0.302933 0.310035 0.310436 0.310911 0.3108 0.31079 0.310751 0.300042 
0.29377 0.297085 0.29749 0.2902 0.284409 0.274015 0.199458 0.140098 0.11282 
0.0954209 0.0820897 0.0721382 0.0649168 0.0594757 0.0554879 0.0520379 0.0489134 0.0456197 
0.0417406 0.0355269 0.0302471 0.251898 0.28828 0.294785 0.294928 0.294087 0.293211 
0.292278 0.291285 0.288424 0.280023 0.271529 0.268634 0.261833 0.251873 0.230176 
0.188016 0.150271 0.123543 0.102734 0.0863078 0.0732829 0.063927 0.0569612 0.0517333 
0.0474319 0.043174 0.0389326 0.0341044 0.0259024 0.0167155 0.238621 0.275142 0.280884 
0.280787 0.279285 0.278065 0.276735 0.275033 0.274156 0.272687 0.265095 0.255718 
0.248381 0.237628 0.218201 0.186632 0.157935 0.134615 0.114051 0.0970685 0.0845594 
0.0750098 0.067919 0.0622817 0.0579623 0.0535336 0.0483714 0.0422076 0.0332104 0.0193305 
0.224373 0.260628 0.267095 0.266686 0.265162 0.26349 0.261564 0.259492 0.257102 
0.254969 0.253013 0.244712 0.235105 0.222911 0.205109 0.180845 0.157545 0.135786 
0.117036 0.101935 0.0902127 0.0809729 0.0737204 0.0681475 0.0634074 0.0590312 0.0538304 
0.0467208 0.036151 0.0204868 0.21127 0.246957 0.253851 0.253903 0.252339 0.250281 
0.247834 0.244887 0.241803 0.238548 0.234288 0.228579 0.21934 0.207352 0.191949 
0.173177 0.15404 0.135987 0.12015 0.10677 0.0959585 0.0873342 0.0803378 0.0747202 
0.0698896 0.0654163 0.0601525 0.0527005 0.0411927 0.0239309 0.199933 0.235693 0.24248 
0.242707 0.241141 0.239141 0.236328 0.233172 0.229489 0.225502 0.21991 0.213801 
0.205094 0.194246 0.180899 0.165492 0.150109 0.135184 0.12175 0.110258 0.100486 
0.0925494 0.0860534 0.0806862 0.0760322 0.0715919 0.0662586 0.0585144 0.0462158 0.0278838 
0.18982 0.225781 0.232564 0.232746 0.231124 0.228747 0.226269 0.223134 0.219518 
0.214532 0.209297 0.202271 0.194275 0.184519 0.17273 0.159796 0.146808 0.134338 
0.12292 0.112966 0.104484 0.0973239 0.0914607 0.0864996 0.0821094 0.0777761 0.0726365 
0.0646396 0.0516475 0.0320052 0.180352 0.215973 0.222535 0.222456 0.220592 0.217817 
0.215051 0.21188 0.208053 0.202838 0.196902 0.1902 0.182767 0.173831 0.163792 
0.153147 0.142308 0.132094 0.12254 0.113956 0.10663 0.100379 0.0952463 0.0909018 
0.0868525 0.0828534 0.0778794 0.0702666 0.0572483 0.0364127 0.174649 0.209073 0.214467 
0.213561 0.211358 0.208281 0.204849 0.201114 0.19659 0.191676 0.185444 0.179073 
0.171747 0.164097 0.155688 0.146831 0.138278 0.129937 0.121997 0.114613 0.108084 
0.102606 0.0979259 0.094182 0.0906016 0.0868285 0.0820875 0.0751513 0.062601 0.0409561 
0.174892 0.208023 0.213247 0.21212 0.209829 0.206994 0.20357 0.199628 0.194959 
0.189864 0.184406 0.178323 0.171579 0.164477 0.157099 0.149451 0.141874 0.134623 
0.127678 0.121051 0.114958 0.109683 0.105093 0.10114 0.09767 0.0939805 0.0891995 
0.0819919 0.0692249 0.0466088 0.172942 0.207449 0.214603 0.214341 0.212638 0.210366 
0.207535 0.204127 0.200205 0.195527 0.190655 0.18512 0.178984 0.172248 0.165294 
0.158308 0.15103 0.144135 0.137472 0.131319 0.12553 0.120357 0.115769 0.111417 
0.10765 0.103745 0.0988716 0.0911321 0.0773877 0.0531653 0.166496 0.203027 0.210712 
0.211223 0.209766 0.207761 0.205245 0.202216 0.198693 0.194796 0.190243 0.185117 
0.179587 0.173624 0.167239 0.160741 0.154386 0.147936 0.141762 0.135979 0.130797 
0.125979 0.121552 0.117572 0.113737 0.109942 0.105248 0.0979883 0.0841118 0.0585318 
0.161699 0.197213 0.204689 0.205065 0.203674 0.201715 0.199292 0.196423 0.193111 
0.189385 0.185193 0.180559 0.175554 0.170216 0.16462 0.158916 0.15323 0.147593 
0.142162 0.137028 0.13228 0.127892 0.123874 0.120219 0.116801 0.113394 0.109164 
0.102416 0.0890365 0.0628552 0.156958 0.192159 0.199585 0.199965 0.198639 0.196775 
0.194493 0.191817 0.18875 0.185306 0.181473 0.177277 0.17277 0.167997 0.163026 
0.157961 0.152897 0.14789 0.143046 0.138441 0.13414 0.13015 0.126487 0.123152 
0.120049 0.116974 0.113151 0.106886 0.0938659 0.0670207 0.152573 0.187541 0.19494 
0.195334 0.194068 0.192301 0.190156 0.187665 0.184827 0.181654 0.178155 0.174353 
0.170291 0.166013 0.161581 0.157068 0.152551 0.14809 0.143762 0.139628 0.135741 
0.132125 0.1288 0.125771 0.12297 0.120211 0.116772 0.110959 0.0982884 0.0708648 
0.148559 0.183348 0.190751 0.191179 0.189981 0.188317 0.186313 0.184003 0.181387 
0.178478 0.17529 0.171847 0.168185 0.164345 0.16038 0.156348 0.15231 0.148324 
0.144447 0.140734 0.137226 0.133956 0.130943 0.128201 0.125676 0.123207 0.120117 
0.114721 0.102383 0.0744495 0.144915 0.179544 0.186963 0.187435 0.18631 0.184751 
0.182886 0.180751 0.178346 0.175685 0.172784 0.169666 0.166362 0.162911 0.159355 
0.155745 0.152129 0.148559 0.145082 0.141744 0.138582 0.135629 0.132906 0.130429 
0.128157 0.125953 0.123177 0.118166 0.106152 0.0777763 0.141625 0.176099 0.183537 
0.184058 0.18301 0.181557 0.179827 0.177859 0.175652 0.173223 0.170584 0.167761 
0.164779 0.161673 0.158479 0.15524 0.151998 0.148796 0.145674 0.142672 0.139824 
0.137161 0.134703 0.13247 0.130429 0.128463 0.125972 0.121314 0.109614 0.0808602 
0.138667 0.172983 0.180438 0.18101 0.180039 0.178689 0.177089 0.175279 0.173258 
0.171043 0.168645 0.166088 0.163395 0.160597 0.157725 0.154815 0.151904 0.149028 
0.146223 0.143523 0.140959 0.138559 0.136343 0.134334 0.132503 0.130751 0.128516 
0.124182 0.112789 0.0837141 0.136014 0.170169 0.177635 0.178256 0.177361 0.176111 
0.174635 0.172973 0.171125 0.169106 0.166928 0.164612 0.162179 0.159656 0.157071 
0.154454 0.151837 0.149253 0.146731 0.144302 0.141994 0.139833 0.137838 0.136032 
0.134391 0.132832 0.130826 0.126789 0.115695 0.0863519 0.133642 0.16763 0.1751 
0.175766 0.174944 0.17379 0.17243 0.170907 0.169219 0.16738 0.165402 0.163304 
0.161106 0.158829 0.1565 0.154145 0.151791 0.149466 0.147198 0.145013 0.142936 
0.140992 0.139197 0.137575 0.136106 0.134719 0.13292 0.129156 0.11835 0.0887878 
0.131526 0.165341 0.172806 0.173513 0.172761 0.171696 0.170446 0.169052 0.16751 
0.165837 0.164041 0.162141 0.160153 0.158098 0.155998 0.153877 0.151758 0.149666 
0.147626 0.14566 0.143792 0.142043 0.14043 0.138974 0.137661 0.136428 0.134814 
0.1313 0.120774 0.0910359 0.129646 0.163279 0.17073 0.171473 0.170787 0.169806 
0.168658 0.167382 0.165976 0.164453 0.162823 0.161102 0.159304 0.157448 0.155554 
0.153642 0.151734 0.149851 0.148015 0.146247 0.144566 0.142994 0.141545 0.14024 
0.139067 0.137972 0.136524 0.13324 0.122983 0.0931104 0.127978 0.161421 0.16885 
0.169625 0.169 0.168097 0.167043 0.165877 0.164594 0.163209 0.161729 0.16017 
0.158543 0.156867 0.155158 0.153435 0.151716 0.15002 0.148368 0.146777 0.145266 
0.143853 0.142552 0.141384 0.140337 0.139365 0.138066 0.134992 0.124997 0.0950249 
0.126504 0.159749 0.167147 0.167949 0.167379 0.166549 0.165582 0.164516 0.163347 
0.162087 0.160744 0.159331 0.15786 0.156345 0.154802 0.153248 0.151699 0.150172 
0.148685 0.147254 0.145895 0.144626 0.143459 0.142413 0.14148 0.140619 0.139453 
0.136573 0.12683 0.0967924 0.125206 0.158245 0.165604 0.166426 0.165909 0.165145 
0.164259 0.163284 0.162218 0.161073 0.159854 0.158574 0.157242 0.155873 0.15448 
0.153078 0.151682 0.150307 0.148968 0.147681 0.14646 0.145321 0.144274 0.143339 
0.142507 0.141745 0.1407 0.137998 0.128498 0.0984253 0.124068 0.156891 0.164203 
0.165043 0.164573 0.163871 0.163057 0.162167 0.161195 0.160154 0.159047 0.157887 
0.156682 0.155444 0.154186 0.152922 0.151663 0.150424 0.149219 0.148062 0.146964 
0.145942 0.145005 0.144169 0.143429 0.142755 0.141817 0.13928 0.130015 0.0999354 
0.123074 0.155675 0.162932 0.163784 0.163357 0.162711 0.161965 0.161151 0.160266 
0.159319 0.158314 0.157262 0.156171 0.155053 0.153917 0.152775 0.15164 0.150525 
0.14944 0.148399 0.147414 0.146497 0.145657 0.144911 0.144254 0.143659 0.142818 
0.140432 0.131395 0.101333 0.122212 0.154581 0.161777 0.162638 0.162249 0.161654 
0.16097 0.160227 0.159419 0.158558 0.157646 0.156692 0.155704 0.154693 0.153667 
0.152637 0.151614 0.150609 0.149632 0.148697 0.147812 0.146989 0.146238 0.145573 
0.14499 0.144466 0.143713 0.141467 0.132651 0.10263 0.121469 0.153598 0.160727 
0.161592 0.161238 0.160691 0.160062 0.159382 0.158646 0.157863 0.157034 0.15617 
0.155276 0.154361 0.153434 0.152504 0.151582 0.150677 0.149798 0.148957 0.148163 
0.147426 0.146754 0.146162 0.145645 0.145185 0.14451 0.142394 0.133792 0.103834 
0.120835 0.152715 0.15977 0.160637 0.160315 0.15981 0.159232 0.158611 0.157939 
0.157226 0.156474 0.15569 0.15488 0.154053 0.153215 0.152376 0.151545 0.150729 
0.149939 0.149183 0.14847 0.147811 0.147211 0.146684 0.146227 0.145824 0.14522 
0.143225 0.134831 0.104954 0.120298 0.151922 0.158899 0.159763 0.15947 0.159003 
0.158472 0.157904 0.157291 0.156642 0.155958 0.155247 0.154514 0.153765 0.153009 
0.152252 0.151502 0.150768 0.150057 0.149378 0.148738 0.148148 0.147613 0.147145 
0.146742 0.146389 0.145849 0.143967 0.135776 0.105999 0.11985 0.15121 0.158104 
0.158963 0.158695 0.158264 0.157775 0.157254 0.156695 0.156104 0.155483 0.154838 
0.154173 0.153496 0.152812 0.152129 0.151453 0.150792 0.150153 0.149543 0.14897 
0.148442 0.147965 0.14755 0.147195 0.146889 0.146407 0.144629 0.136635 0.106975 
0.119484 0.150571 0.157377 0.158229 0.157983 0.157584 0.157134 0.156657 0.156146 
0.155608 0.155043 0.154458 0.153856 0.153243 0.152625 0.152008 0.151399 0.150804 
0.150229 0.149682 0.149168 0.148697 0.148272 0.147905 0.147594 0.147328 0.146899 
0.145219 0.137418 0.107889 0.11919 0.149998 0.156712 0.157555 0.157329 0.156959 
0.156544 0.156106 0.155639 0.155148 0.154635 0.154103 0.153558 0.153003 0.152445 
0.151888 0.151339 0.150803 0.150287 0.149796 0.149336 0.148916 0.148538 0.148214 
0.147942 0.147713 0.147331 0.145743 0.138131 0.108749 0.118963 0.149484 0.156103 
0.156934 0.156726 0.156382 0.155999 0.155597 0.155169 0.154722 0.154255 0.153772 
0.153277 0.152776 0.152271 0.151769 0.151274 0.150792 0.150328 0.149888 0.149476 
0.149101 0.148766 0.148481 0.148244 0.148048 0.147709 0.146208 0.13878 0.109558 
0.118797 0.149023 0.155544 0.156361 0.156169 0.155849 0.155495 0.155125 0.154733 
0.154325 0.1539 0.153461 0.153013 0.152559 0.152103 0.151649 0.151203 0.15077 
0.150353 0.149959 0.149591 0.149257 0.14896 0.14871 0.148505 0.148339 0.148039 
0.146619 0.139373 0.110322 0.118685 0.14861 0.15503 0.155832 0.155653 0.155355 
0.155027 0.154686 0.154328 0.153955 0.153567 0.153169 0.152762 0.152351 0.151939 
0.15153 0.151128 0.150738 0.150364 0.150011 0.149683 0.149386 0.149124 0.148904 
0.148728 0.148588 0.148325 0.146982 0.139913 0.111046 0.118623 0.14824 0.154557 
0.155342 0.155176 0.154896 0.154592 0.154278 0.153949 0.153608 0.153255 0.152893 
0.152524 0.152151 0.151779 0.15141 0.151048 0.150697 0.150362 0.150046 0.149753 
0.14949 0.149259 0.149067 0.148917 0.148801 0.14857 0.1473 0.140406 0.111734 
0.118604 0.147912 0.15412 0.154887 0.154731 0.15447 0.154187 0.153897 0.153595 
0.153283 0.152961 0.152631 0.152296 0.151959 0.151622 0.151289 0.150963 0.150648 
0.150347 0.150065 0.149805 0.149572 0.149368 0.149202 0.149074 0.148981 0.14878 
0.147578 0.140857 0.11239 0.118622 0.147622 0.153717 0.154464 0.154318 0.154072 
0.153809 0.153541 0.153263 0.152977 0.152683 0.152383 0.152079 0.151773 0.151468 
0.151168 0.150874 0.150591 0.150322 0.15007 0.149839 0.149633 0.149455 0.149311 
0.149204 0.14913 0.148956 0.14782 0.141269 0.113017 0.118674 0.147368 0.153343 
0.15407 0.153931 0.1537 0.153455 0.153206 0.15295 0.152688 0.152419 0.152146 
0.15187 0.151593 0.151317 0.151046 0.150782 0.150528 0.150287 0.150062 0.149857 
0.149675 0.14952 0.149397 0.149309 0.149252 0.149103 0.148029 0.141646 0.113619 
0.118757 0.147145 0.152996 0.153702 0.15357 0.153351 0.153122 0.152891 0.152655 
0.152414 0.152169 0.15192 0.151668 0.151417 0.151168 0.150923 0.150686 0.150458 
0.150242 0.150042 0.14986 0.149701 0.149566 0.149462 0.14939 0.14935 0.149223 
0.148209 0.141992 0.114198 0.118868 0.146949 0.152673 0.153357 0.153231 0.153023 
0.152809 0.152594 0.152376 0.152155 0.15193 0.151702 0.151474 0.151246 0.151021 
0.1508 0.150586 0.150382 0.150189 0.150012 0.149851 0.149711 0.149595 0.149508 
0.149451 0.149425 0.149319 0.148361 0.142308 0.114758 0.119006 0.146778 0.152373 
0.153032 0.152911 0.152714 0.152513 0.152313 0.152111 0.151907 0.151701 0.151494 
0.151286 0.151079 0.150875 0.150676 0.150484 0.150301 0.150129 0.149971 0.149829 
0.149708 0.149608 0.149536 0.149493 0.149479 0.149393 0.148489 0.142599 0.115299 
0.119167 0.146629 0.152093 0.152727 0.15261 0.152423 0.152233 0.152047 0.151859 
0.151671 0.151482 0.151292 0.151103 0.150915 0.15073 0.150551 0.150378 0.150214 
0.150061 0.149922 0.149797 0.149692 0.149607 0.149548 0.149518 0.149515 0.149447 
0.148595 0.142865 0.115825 0.11935 0.146499 0.151831 0.152439 0.152325 0.152146 
0.151967 0.151793 0.151619 0.151445 0.151271 0.151097 0.150925 0.150754 0.150587 
0.150425 0.15027 0.150124 0.149987 0.149864 0.149755 0.149664 0.149593 0.149547 
0.149527 0.149535 0.149483 0.148681 0.143111 0.116337 0.119554 0.146387 0.151585 
0.152167 0.152055 0.151884 0.151715 0.151551 0.151389 0.151228 0.151068 0.150909 
0.150751 0.150596 0.150445 0.150299 0.15016 0.150029 0.149908 0.149799 0.149704 
0.149627 0.149567 0.149532 0.149522 0.14954 0.149502 0.148749 0.143336 0.116838 
0.119776 0.14629 0.151353 0.151908 0.151798 0.151634 0.151473 0.151319 0.151168 
0.151019 0.150871 0.150725 0.150581 0.15044 0.150304 0.150172 0.150047 0.14993 
0.149823 0.149728 0.149645 0.149579 0.149531 0.149506 0.149505 0.149531 0.149507 
0.1488 0.143544 0.117328 0.120016 0.146207 0.151135 0.151662 0.151553 0.151395 
0.151243 0.151097 0.150956 0.150817 0.150681 0.150547 0.150415 0.150287 0.150163 
0.150044 0.149932 0.149828 0.149733 0.14965 0.149579 0.149524 0.149485 0.149469 
0.149476 0.14951 0.149499 0.148836 0.143736 0.117809 0.120272 0.146136 0.150927 
0.151426 0.151319 0.151166 0.151021 0.150884 0.150751 0.150622 0.150496 0.150373 
0.150252 0.150135 0.150023 0.149916 0.149815 0.149723 0.149639 0.149567 0.149506 
0.149461 0.149431 0.149423 0.149437 0.149478 0.149478 0.148858 0.143912 0.118283 
0.120543 0.146076 0.15073 0.151201 0.151094 0.150947 0.150808 0.150678 0.150553 
0.150433 0.150316 0.150202 0.150092 0.149985 0.149883 0.149787 0.149697 0.149615 
0.149541 0.149479 0.149427 0.14939 0.149369 0.149368 0.149389 0.149436 0.149447 
0.148868 0.144075 0.118751 0.120828 0.146026 0.150542 0.150986 0.150878 0.150735 
0.150602 0.150479 0.150362 0.150249 0.15014 0.150035 0.149934 0.149837 0.149744 
0.149658 0.149577 0.149504 0.14944 0.149386 0.149343 0.149314 0.1493 0.149305 
0.149332 0.149384 0.149406 0.148866 0.144226 0.119214 0.121126 0.145984 0.150361 
0.150778 0.15067 0.150531 0.150404 0.150286 0.150175 0.15007 0.149969 0.149871 
0.149778 0.14969 0.149606 0.149528 0.149456 0.149391 0.149335 0.149289 0.149253 
0.149231 0.149224 0.149235 0.149267 0.149325 0.149355 0.148854 0.144365 0.119672 
0.121436 0.145949 0.150188 0.150577 0.150469 0.150334 0.150211 0.150099 0.149994 
0.149895 0.149801 0.14971 0.149625 0.149544 0.149468 0.149397 0.149333 0.149276 
0.149227 0.149188 0.14916 0.149144 0.149142 0.149159 0.149196 0.149258 0.149297 
0.148832 0.144494 0.120127 0.121759 0.145921 0.150022 0.150384 0.150275 0.150143 
0.150024 0.149917 0.149817 0.149724 0.149636 0.149552 0.149473 0.149399 0.14933 
0.149266 0.149209 0.149159 0.149117 0.149084 0.149062 0.149052 0.149055 0.149077 
0.149118 0.149184 0.149231 0.148802 0.144613 0.12058 0.122092 0.145899 0.149861 
0.150196 0.150086 0.149957 0.149843 0.149739 0.149645 0.149556 0.149474 0.149396 
0.149323 0.149255 0.149192 0.149135 0.149084 0.14904 0.149004 0.148977 0.14896 
0.148955 0.148964 0.148989 0.149034 0.149104 0.149159 0.148764 0.144723 0.121031 
0.122436 0.145881 0.149704 0.150013 0.149902 0.149776 0.149665 0.149566 0.149475 
0.149392 0.149314 0.149241 0.149174 0.149111 0.149054 0.149003 0.148958 0.148919 
0.148889 0.148867 0.148855 0.148855 0.148868 0.148897 0.148946 0.149019 0.14908 
0.148718 0.144824 0.121481 0.12279 0.145868 0.149552 0.149835 0.149723 0.149599 
0.149492 0.149396 0.14931 0.14923 0.149157 0.149089 0.149026 0.148969 0.148917 
0.148871 0.14883 0.148797 0.148772 0.148755 0.148747 0.148751 0.148768 0.148801 
0.148852 0.148928 0.148996 0.148666 0.144918 0.121931 0.123153 0.145857 0.149404 
0.149661 0.149548 0.149427 0.149322 0.149229 0.149147 0.149071 0.149002 0.148938 
0.14888 0.148827 0.14878 0.148738 0.148703 0.148674 0.148653 0.14864 0.148636 
0.148644 0.148664 0.148701 0.148755 0.148834 0.148907 0.148608 0.145005 0.12238 
0.123526 0.14585 0.149259 0.149491 0.149377 0.149258 0.149155 0.149065 0.148986 
0.148914 0.148848 0.148789 0.148735 0.148686 0.148643 0.148605 0.148574 0.148549 
0.148532 0.148523 0.148523 0.148535 0.148558 0.148597 0.148653 0.148735 0.148813 
0.148544 0.145085 0.122831 0.123907 0.145845 0.149117 0.149325 0.14921 0.149092 
0.148992 0.148905 0.148828 0.148759 0.148697 0.14864 0.14859 0.148545 0.148505 
0.148472 0.148444 0.148424 0.14841 0.148405 0.148408 0.148422 0.148448 0.14849 
0.148549 0.148632 0.148716 0.148475 0.145158 0.123283 0.124297 0.145842 0.148977 
0.149161 0.149045 0.148929 0.148831 0.148746 0.148672 0.148606 0.148547 0.148493 
0.148446 0.148405 0.148369 0.148338 0.148314 0.148297 0.148286 0.148284 0.14829 
0.148308 0.148336 0.14838 0.148441 0.148526 0.148614 0.148401 0.145226 0.123736 
0.124696 0.14584 0.14884 0.149001 0.148883 0.148768 0.148672 0.14859 0.148518 
0.148454 0.148398 0.148347 0.148303 0.148265 0.148232 0.148204 0.148183 0.148169 
0.148161 0.148162 0.148171 0.148191 0.148221 0.148267 0.14833 0.148417 0.148509 
0.148323 0.145287 0.124192 0.125102 0.145839 0.148704 0.148842 0.148724 0.14861 
0.148516 0.148435 0.148366 0.148304 0.14825 0.148202 0.148161 0.148125 0.148095 
0.14807 0.148052 0.14804 0.148035 0.148039 0.14805 0.148072 0.148105 0.148153 
0.148217 0.148305 0.148402 0.148241 0.145344 0.12465 0.125517 0.145838 0.14857 
0.148686 0.148566 0.148454 0.148362 0.148282 0.148215 0.148155 0.148104 0.148058 
0.148019 0.147986 0.147958 0.147936 0.14792 0.147911 0.147908 0.147914 0.147927 
0.147951 0.147986 0.148035 0.148101 0.148191 0.148291 0.148154 0.145395 0.125111 
0.125939 0.145838 0.148437 0.148532 0.148411 0.148299 0.148209 0.148131 0.148066 
0.148008 0.147958 0.147915 0.147878 0.147846 0.147821 0.147801 0.147788 0.147781 
0.14778 0.147788 0.147803 0.147829 0.147865 0.147916 0.147983 0.148075 0.148178 
0.148065 0.145441 0.125575 0.126369 0.145837 0.148304 0.148379 0.148257 0.148147 
0.148058 0.147981 0.147917 0.147861 0.147813 0.147772 0.147737 0.147708 0.147684 
0.147667 0.147655 0.14765 0.147651 0.147661 0.147678 0.147706 0.147743 0.147796 
0.147864 0.147956 0.148062 0.147972 0.145482 0.126042 0.126806 0.145836 0.148173 
0.148228 0.148105 0.147996 0.147908 0.147833 0.14777 0.147716 0.14767 0.14763 
0.147596 0.147569 0.147547 0.147532 0.147522 0.147519 0.147522 0.147533 0.147552 
0.147581 0.14762 0.147673 0.147742 0.147836 0.147944 0.147875 0.145519 0.126514 
0.12725 0.145834 0.148042 0.148079 0.147955 0.147846 0.147759 0.147685 0.147624 
0.147571 0.147526 0.147488 0.147456 0.14743 0.147411 0.147396 0.147388 0.147387 
0.147391 0.147404 0.147424 0.147455 0.147495 0.147549 0.147619 0.147714 0.147825 
0.147776 0.145551 0.126989 0.127702 0.145831 0.147912 0.14793 0.147806 0.147697 
0.147612 0.147539 0.147479 0.147427 0.147384 0.147347 0.147317 0.147292 0.147274 
0.147261 0.147255 0.147254 0.147261 0.147274 0.147296 0.147327 0.147368 0.147424 
0.147495 0.14759 0.147703 0.147674 0.145578 0.127469 0.128162 0.145827 0.147782 
0.147783 0.147657 0.14755 0.147465 0.147393 0.147334 0.147284 0.147242 0.147206 
0.147177 0.147154 0.147137 0.147126 0.14712 0.147122 0.147129 0.147144 0.147167 
0.147199 0.147241 0.147298 0.147369 0.147465 0.14758 0.14757 0.145601 0.127953 
0.128628 0.145821 0.147652 0.147636 0.14751 0.147403 0.147319 0.147248 0.147191 
0.147141 0.1471 0.147065 0.147038 0.147016 0.147 0.14699 0.146986 0.146988 
0.146997 0.147013 0.147037 0.14707 0.147113 0.14717 0.147242 0.147339 0.147456 
0.147463 0.14562 0.128442 0.129102 0.145812 0.147522 0.14749 0.147364 0.147258 