# vtk DataFile Version 5.1
vtk output
ASCII
DATASET UNSTRUCTURED_GRID
POINTS 9610 double
0.1016 1.5 0.13098490238 0.1016 1.45 0.12904334068 0.1016 1.4 0.13187651336 
0.1016 1.35 0.12813037634 0.1016 1.3 0.12862718105 0.1016 1.25 0.1385114044 
0.1016 1.2 0.14134685695 0.1016 1.15 0.13386248052 0.1016 1.1 0.12584146857 
0.1016 1.05 0.1156399399 0.1016 1 0.1045832634 0.1016 0.95 0.10941039771 
0.1016 0.9 0.11066174507 0.1016 0.85 0.10626742989 0.1016 0.8 0.11094460636 
0.1016 0.75 0.12919001281 0.1016 0.7 0.14879082143 0.1016 0.65 0.15487360954 
0.1016 0.6 0.1479280889 0.1016 0.55 0.148271963 0.1016 0.5 0.15470503271 
0.1016 0.45 0.16150058806 0.1016 0.4 0.15196421742 0.1016 0.35 0.13916304708 
0.1016 0.3 0.13678921759 0.1016 0.25 0.14458087087 0.1016 0.2 0.14479809999 
0.1016 0.15 0.13326923549 0.1016 0.1 0.12809693813 0.1016 0.05 0.12411984801 
0.1016 0 0.12181563675 5.08 1.5 0.28700000048 5.08 1.45 0.28700000048 
5.08 1.4 0.28700000048 5.08 1.35 0.28700000048 5.08 1.3 0.28700000048 
5.08 1.25 0.28700000048 5.08 1.2 0.28700000048 5.08 1.15 0.28700000048 
5.08 1.1 0.28700000048 5.08 1.05 0.28700000048 5.08 1 0.28700000048 
5.08 0.95 0.28700000048 5.08 0.9 0.28700000048 5.08 0.85 0.28700000048 
5.08 0.8 0.28700000048 5.08 0.75 0.28700000048 5.08 0.7 0.28700000048 
5.08 0.65 0.28700000048 5.08 0.6 0.28700000048 5.08 0.55 0.28700000048 
5.08 0.5 0.28700000048 5.08 0.45 0.28700000048 5.08 0.4 0.28700000048 
5.08 0.35 0.28700000048 5.08 0.3 0.28700000048 5.08 0.25 0.28700000048 
5.08 0.2 0.28700000048 5.08 0.15 0.28700000048 5.08 0.1 0.28700000048 
5.08 0.05 0.28700000048 5.08 0 0.28700000048 0.151384 1.5 0.14074411988 
0.151384 1.45 0.14069108665 0.151384 1.4 0.1544368118 0.151384 1.35 0.14165307581 
0.151384 1.3 0.13775797188 0.151384 1.25 0.15754827857 0.151384 1.2 0.15958768129 
0.151384 1.15 0.14473886788 0.151384 1.1 0.13673268259 0.151384 1.05 0.13058258593 
0.151384 1 0.10490593314 0.151384 0.95 0.12069683522 0.151384 0.9 0.12364161015 
0.151384 0.85 0.11566002667 0.151384 0.8 0.11674194783 0.151384 0.75 0.13676582277 
0.151384 0.7 0.16071967781 0.151384 0.65 0.16866022348 0.151384 0.6 0.14796037972 
0.151384 0.55 0.15477955341 0.151384 0.5 0.16083323956 0.151384 0.45 0.18056127429 
0.151384 0.4 0.16370430589 0.151384 0.35 0.14675289392 0.151384 0.3 0.14086666703 
0.151384 0.25 0.15673054755 0.151384 0.2 0.16065242887 0.151384 0.15 0.13885679841 
0.151384 0.1 0.14067848027 0.151384 0.05 0.13668775558 0.151384 0 0.13072785735 
0.201168 1.5 0.15819047391 0.201168 1.45 0.16981138289 0.201168 1.4 0.1838324368 
0.201168 1.35 0.1678943187 0.201168 1.3 0.16286498308 0.201168 1.25 0.18384899199 
0.201168 1.2 0.17824742198 0.201168 1.15 0.16605396569 0.201168 1.1 0.15515097976 
0.201168 1.05 0.15774175525 0.201168 1 0.14041532576 0.201168 0.95 0.13143028319 
0.201168 0.9 0.14984020591 0.201168 0.85 0.15246957541 0.201168 0.8 0.1515095979 
0.201168 0.75 0.15612746775 0.201168 0.7 0.17627468705 0.201168 0.65 0.18800888956 
0.201168 0.6 0.16611249745 0.201168 0.55 0.17687571049 0.201168 0.5 0.18396522105 
0.201168 0.45 0.19433827698 0.201168 0.4 0.18798545003 0.201168 0.35 0.17473083735 
0.201168 0.3 0.15916481614 0.201168 0.25 0.17034995556 0.201168 0.2 0.17147065699 
0.201168 0.15 0.16099752486 0.201168 0.1 0.16484448314 0.201168 0.05 0.1513453871 
0.201168 0 0.16544950008 0.250952 1.5 0.18435785174 0.250952 1.45 0.19351120293 
0.250952 1.4 0.19608923793 0.250952 1.35 0.19253478944 0.250952 1.3 0.19888809323 
0.250952 1.25 0.20568905771 0.250952 1.2 0.19688914716 0.250952 1.15 0.18769916892 
0.250952 1.1 0.18891656399 0.250952 1.05 0.18522630632 0.250952 1 0.16941827536 
0.250952 0.95 0.16307355464 0.250952 0.9 0.17541544139 0.250952 0.85 0.16921032965 
0.250952 0.8 0.17192786932 0.250952 0.75 0.17868806422 0.250952 0.7 0.20244324207 
0.250952 0.65 0.21809674799 0.250952 0.6 0.20097254217 0.250952 0.55 0.20614700019 
0.250952 0.5 0.21138383448 0.250952 0.45 0.22037528455 0.250952 0.4 0.20512619615 
0.250952 0.35 0.1995216161 0.250952 0.3 0.18446156383 0.250952 0.25 0.19617629051 
0.250952 0.2 0.19259688258 0.250952 0.15 0.18680296838 0.250952 0.1 0.19236606359 
0.250952 0.05 0.17557147145 0.250952 0 0.19881784916 0.300736 1.5 0.20803849399 
0.300736 1.45 0.22450494766 0.300736 1.4 0.24111500382 0.300736 1.35 0.21438613534 
0.300736 1.3 0.22131481767 0.300736 1.25 0.22628968954 0.300736 1.2 0.21725788713 
0.300736 1.15 0.20920580626 0.300736 1.1 0.20691625774 0.300736 1.05 0.22400972247 
0.300736 1 0.18486399949 0.300736 0.95 0.18706932664 0.300736 0.9 0.19810760021 
0.300736 0.85 0.19651654363 0.300736 0.8 0.19310407341 0.300736 0.75 0.2003094703 
0.300736 0.7 0.21430878341 0.300736 0.65 0.23479162157 0.300736 0.6 0.22170259058 
0.300736 0.55 0.23194031417 0.300736 0.5 0.23785816133 0.300736 0.45 0.23204995692 
0.300736 0.4 0.22343459725 0.300736 0.35 0.22023206949 0.300736 0.3 0.21283400059 
0.300736 0.25 0.22301922739 0.300736 0.2 0.21971012652 0.300736 0.15 0.17962399125 
0.300736 0.1 0.2110966444 0.300736 0.05 0.19656068087 0.300736 0 0.24524112046 
0.35052 1.5 0.23964858055 0.35052 1.45 0.24523301423 0.35052 1.4 0.24971304834 
0.35052 1.35 0.23865287006 0.35052 1.3 0.24538913369 0.35052 1.25 0.24782094359 
0.35052 1.2 0.24153222144 0.35052 1.15 0.233415097 0.35052 1.1 0.23135259748 
0.35052 1.05 0.21715019643 0.35052 1 0.22459840775 0.35052 0.95 0.21855171025 
0.35052 0.9 0.21806654334 0.35052 0.85 0.22691498697 0.35052 0.8 0.22012341022 
0.35052 0.75 0.21798722446 0.35052 0.7 0.232863307 0.35052 0.65 0.24847079813 
0.35052 0.6 0.24300558865 0.35052 0.55 0.25229287148 0.35052 0.5 0.26376393437 
0.35052 0.45 0.25297173858 0.35052 0.4 0.24934431911 0.35052 0.35 0.24087257683 
0.35052 0.3 0.23842160404 0.35052 0.25 0.2375600636 0.35052 0.2 0.23254838586 
0.35052 0.15 0.23718424141 0.35052 0.1 0.23579727113 0.35052 0.05 0.22965782881 
0.35052 0 0.25924360752 0.400304 1.5 0.26702955365 0.400304 1.45 0.26817452908 
0.400304 1.4 0.26565343142 0.400304 1.35 0.26500684023 0.400304 1.3 0.26505717635 
0.400304 1.25 0.26354458928 0.400304 1.2 0.25844630599 0.400304 1.15 0.25671294332 
0.400304 1.1 0.25340560079 0.400304 1.05 0.23356860876 0.400304 1 0.25225549936 
0.400304 0.95 0.24546273053 0.400304 0.9 0.23446214199 0.400304 0.85 0.24969096482 
0.400304 0.8 0.24719122052 0.400304 0.75 0.24667654932 0.400304 0.7 0.25291892886 
0.400304 0.65 0.25470194221 0.400304 0.6 0.25518780947 0.400304 0.55 0.25630384684 
0.400304 0.5 0.2586440146 0.400304 0.45 0.25918364525 0.400304 0.4 0.26043963432 
0.400304 0.35 0.26102674007 0.400304 0.3 0.26245349646 0.400304 0.25 0.26278477907 
0.400304 0.2 0.25635531545 0.400304 0.15 0.26862892509 0.400304 0.1 0.26161062717 
0.400304 0.05 0.265086025 0.400304 0 0.26442378759 0.450088 1.5 0.28265070915 
0.450088 1.45 0.28088587523 0.450088 1.4 0.27671536803 0.450088 1.35 0.27414673567 
0.450088 1.3 0.27094569802 0.450088 1.25 0.2672098279 0.450088 1.2 0.26364666224 
0.450088 1.15 0.26238209009 0.450088 1.1 0.25781831145 0.450088 1.05 0.24908962846 
0.450088 1 0.25460880995 0.450088 0.95 0.25088435411 0.450088 0.9 0.24486613274 
0.450088 0.85 0.25194895267 0.450088 0.8 0.25449594855 0.450088 0.75 0.25501379371 
0.450088 0.7 0.25526738167 0.450088 0.65 0.25308889151 0.450088 0.6 0.25173547864 
0.450088 0.55 0.249731794 0.450088 0.5 0.24910634756 0.450088 0.45 0.25234863162 
0.450088 0.4 0.25744634867 0.450088 0.35 0.26308688521 0.450088 0.3 0.26787254214 
0.450088 0.25 0.26960581541 0.450088 0.2 0.26810011268 0.450088 0.15 0.27262535691 
0.450088 0.1 0.27277028561 0.450088 0.05 0.27467289567 0.450088 0 0.27231183648 
0.499872 1.5 0.28937992454 0.499872 1.45 0.28271993995 0.499872 1.4 0.27569061518 
0.499872 1.35 0.27069506049 0.499872 1.3 0.2667106688 0.499872 1.25 0.26305139065 
0.499872 1.2 0.25997006893 0.499872 1.15 0.25736629963 0.499872 1.1 0.25318554044 
0.499872 1.05 0.24881272018 0.499872 1 0.24795123935 0.499872 0.95 0.24576666951 
0.499872 0.9 0.24349635839 0.499872 0.85 0.24539999664 0.499872 0.8 0.24769371748 
0.499872 0.75 0.2483304888 0.499872 0.7 0.24755699933 0.499872 0.65 0.24606649578 
0.499872 0.6 0.24466592073 0.499872 0.55 0.24306814373 0.499872 0.5 0.24243229628 
0.499872 0.45 0.24462074041 0.499872 0.4 0.24914360046 0.499872 0.35 0.25459751487 
0.499872 0.3 0.25968202949 0.499872 0.25 0.26266974211 0.499872 0.2 0.26418399811 
0.499872 0.15 0.26696276665 0.499872 0.1 0.27035832405 0.499872 0.05 0.27347487211 
0.499872 0 0.27521446347 0.549656 1.5 0.29273241758 0.549656 1.45 0.27979254723 
0.549656 1.4 0.27130940557 0.549656 1.35 0.26628467441 0.549656 1.3 0.26313856244 
0.549656 1.25 0.26045027375 0.549656 1.2 0.25786238909 0.549656 1.15 0.25525033474 
0.549656 1.1 0.25178965926 0.549656 1.05 0.24799740314 0.549656 1 0.24623936415 
0.549656 0.95 0.24491244555 0.549656 0.9 0.24339947104 0.549656 0.85 0.24334028363 
0.549656 0.8 0.24473537505 0.549656 0.75 0.24538643658 0.549656 0.7 0.24460078776 
0.549656 0.65 0.24482603371 0.549656 0.6 0.2452493012 0.549656 0.55 0.24486640096 
0.549656 0.5 0.24376308918 0.549656 0.45 0.24450233579 0.549656 0.4 0.24700298905 
0.549656 0.35 0.25010564923 0.549656 0.3 0.2543900609 0.549656 0.25 0.25757065415 
0.549656 0.2 0.25942894816 0.549656 0.15 0.26160904765 0.549656 0.1 0.26674219966 
0.549656 0.05 0.27257248759 0.549656 0 0.2764262259 0.59944 1.5 0.29500153661 
0.59944 1.45 0.27773916721 0.59944 1.4 0.27557533979 0.59944 1.35 0.27220237255 
0.59944 1.3 0.27159395814 0.59944 1.25 0.27030301094 0.59944 1.2 0.26895669103 
0.59944 1.15 0.26760774851 0.59944 1.1 0.26604533195 0.59944 1.05 0.2627620697 
0.59944 1 0.26236996055 0.59944 0.95 0.26216238737 0.59944 0.9 0.2610040009 
0.59944 0.85 0.26005521417 0.59944 0.8 0.26114472747 0.59944 0.75 0.26208913326 
0.59944 0.7 0.26031038165 0.59944 0.65 0.26213416457 0.59944 0.6 0.2632920444 
0.59944 0.55 0.26411387324 0.59944 0.5 0.26217928529 0.59944 0.45 0.26220142841 
0.59944 0.4 0.26336017251 0.59944 0.35 0.26302781701 0.59944 0.3 0.26631760597 
[...]
CELL_DATA 9270
FIELD FieldData 7
B_Stress_n_p_m2 1 9270 float
0.134494 0.150094 0.151599 0.149606 0.151217 0.151888 0.149521 0.146113 0.144205 
0.139744 0.137571 0.139372 0.138245 0.136593 0.137494 0.141433 0.144584 0.142568 
0.1428 0.144661 0.148596 0.150204 0.147898 0.146101 0.148856 0.152334 0.152162 
0.151557 0.148405 0.134738 0.0391723 0.0594871 0.0637755 0.0628729 0.0618444 0.0615058 
0.0604824 0.059021 0.0583601 0.057451 0.055667 0.0566772 0.0567938 0.0563466 0.0560422 
0.0566687 0.0574381 0.0566563 0.0560459 0.0568032 0.0577128 0.0592472 0.0589921 0.0580273 
0.0585785 0.0604421 0.0622593 0.0624009 0.0580556 0.0387014 0.0585524 0.0831318 0.0885088 
0.0891757 0.0881142 0.0870779 0.0853311 0.0844635 0.084209 0.0817022 0.0804426 0.0799601 
0.080029 0.0797261 0.0803473 0.0812765 0.0832767 0.0833159 0.08271 0.083445 0.0839819 
0.0844808 0.0845623 0.0841263 0.084281 0.0854631 0.0851624 0.0866053 0.0806408 0.0579245 
0.0591112 0.0862789 0.0924437 0.0930687 0.0929361 0.09122 0.0891337 0.0880598 0.0882846 
0.0868945 0.0842446 0.0841707 0.0844732 0.0829753 0.0831194 0.0845009 0.0869981 0.0883608 
0.0888706 0.0900351 0.089413 0.0894257 0.0884658 0.0886082 0.0887016 0.0897478 0.0885415 
0.0872796 0.0817007 0.0577875 0.0662029 0.0938181 0.103248 0.103214 0.103008 0.101813 
0.0999643 0.0983449 0.0958902 0.0977903 0.0951886 0.0941431 0.0950607 0.0943195 0.0931726 
0.0939723 0.0952918 0.097389 0.0981508 0.100068 0.100761 0.0999517 0.0995191 0.0994204 
0.0994382 0.0998514 0.101799 0.0972208 0.0906997 0.0641873 0.0731484 0.100855 0.109716 
0.111436 0.11082 0.109594 0.108415 0.106784 0.104837 0.103387 0.104783 0.10295 
0.102628 0.10339 0.102467 0.101662 0.101609 0.102152 0.102463 0.102985 0.104789 
0.105577 0.107011 0.107816 0.108771 0.108942 0.1099 0.109633 0.0997914 0.0712576 
0.0774911 0.105431 0.113607 0.115259 0.113836 0.112263 0.110943 0.109803 0.108644 
0.106695 0.10724 0.106284 0.104929 0.105686 0.105426 0.104569 0.103463 0.102279 
0.102083 0.101745 0.102504 0.104613 0.107061 0.109594 0.111572 0.11302 0.113508 
0.113082 0.103671 0.0756099 0.078264 0.105532 0.113035 0.113819 0.112316 0.110644 
0.109246 0.107995 0.106803 0.105716 0.104762 0.104147 0.103309 0.102955 0.102868 
0.102197 0.10125 0.100319 0.0998602 0.0995243 0.0999575 0.101494 0.103628 0.106129 
0.108393 0.110251 0.111483 0.110708 0.102907 0.075416 0.0785334 0.105155 0.112293 
0.112982 0.111881 0.110573 0.109392 0.108225 0.107053 0.106202 0.10517 0.104528 
0.103834 0.103218 0.102966 0.102417 0.102008 0.101742 0.101616 0.101394 0.101585 
0.10237 0.103536 0.105276 0.107049 0.108658 0.109769 0.109196 0.102112 0.0752958 
0.0808926 0.107397 0.115425 0.116798 0.116548 0.115953 0.115365 0.114779 0.114121 
0.113503 0.112905 0.112465 0.111855 0.111217 0.110898 0.11048 0.110154 0.110196 
0.110346 0.110341 0.110294 0.110536 0.11093 0.111621 0.112625 0.113544 0.113928 
0.112509 0.104733 0.0777782 0.0829573 0.110458 0.119877 0.122072 0.122549 0.12258 
0.122559 0.122546 0.122601 0.122424 0.122225 0.122077 0.121755 0.121225 0.120832 
0.120571 0.120139 0.120036 0.120026 0.120157 0.12012 0.120145 0.120273 0.120235 
0.120506 0.120714 0.120556 0.118199 0.109118 0.0812619 0.083155 0.111895 0.121246 
0.123747 0.124317 0.124509 0.124641 0.124766 0.1249 0.125041 0.124965 0.124847 
0.124677 0.124403 0.124047 0.12373 0.123546 0.123295 0.123151 0.123096 0.123184 
0.123209 0.123202 0.123242 0.123166 0.123129 0.122715 0.12048 0.111209 0.0828667 
0.0839536 0.112169 0.121132 0.123395 0.123909 0.124057 0.124146 0.124218 0.124279 
0.124308 0.124246 0.124144 0.123987 0.123771 0.123528 0.123303 0.123119 0.122953 
0.122848 0.122797 0.122798 0.122796 0.122797 0.122808 0.122799 0.122766 0.122369 
0.120216 0.111338 0.083293 0.0844486 0.112533 0.121249 0.123384 0.123843 0.123962 
0.124028 0.124077 0.12411 0.124118 0.124068 0.123983 0.123858 0.123696 0.123515 
0.12334 0.12319 0.123056 0.122962 0.122903 0.122881 0.122867 0.12286 0.122863 
0.122856 0.122815 0.122435 0.120368 0.111704 0.0837793 0.0848653 0.112811 0.121323 
0.123343 0.123745 0.123831 0.123869 0.123894 0.123905 0.123895 0.123849 0.123776 
0.123673 0.123547 0.123409 0.123272 0.12315 0.123042 0.12296 0.122903 0.122871 
0.122851 0.12284 0.12284 0.12284 0.122806 0.122454 0.120464 0.111977 0.0841713 
0.0852229 0.113044 0.121389 0.123318 0.123671 0.123728 0.123743 0.123749 0.123745 
0.123725 0.123682 0.123618 0.123533 0.123433 0.123324 0.123216 0.123116 0.123027 
0.122957 0.122904 0.122869 0.122848 0.122837 0.122837 0.122842 0.122817 0.122491 
0.12057 0.11223 0.0845391 0.0855464 0.113242 0.12144 0.123291 0.123604 0.123636 
0.123632 0.123623 0.123607 0.12358 0.123538 0.123481 0.123411 0.123329 0.123241 
0.123154 0.123072 0.122998 0.122938 0.122892 0.122859 0.122838 0.12283 0.122833 
0.122843 0.122826 0.122525 0.120666 0.112459 0.0848851 0.0858477 0.113414 0.121478 
0.123263 0.123542 0.123554 0.123534 0.123513 0.123489 0.123457 0.123416 0.123365 
0.123304 0.123236 0.123164 0.123092 0.123025 0.122964 0.122913 0.122873 0.122844 
0.122827 0.122821 0.122827 0.122844 0.122835 0.122556 0.120754 0.112672 0.0852183 
0.0861348 0.113569 0.121507 0.123231 0.123483 0.123479 0.123447 0.123416 0.123385 
0.12335 0.12331 0.123263 0.123209 0.123152 0.123092 0.123032 0.122976 0.122925 
0.122882 0.122849 0.122825 0.122812 0.12281 0.12282 0.122842 0.122841 0.122581 
0.120834 0.112872 0.0855423 0.0864129 0.113711 0.121527 0.123197 0.123426 0.123409 
0.123368 0.12333 0.123293 0.123256 0.123216 0.123172 0.123125 0.123075 0.123024 
0.122973 0.122927 0.122884 0.122849 0.122821 0.122803 0.122794 0.122796 0.122811 
0.122837 0.122844 0.122601 0.120905 0.113062 0.0858597 0.0866855 0.113844 0.121542 
0.12316 0.12337 0.123343 0.123295 0.123251 0.12321 0.123172 0.123132 0.12309 
0.123047 0.123003 0.122959 0.122917 0.122878 0.122843 0.122813 0.122791 0.122777 
0.122773 0.122779 0.122798 0.122829 0.122842 0.122616 0.12097 0.113244 0.0861724 
0.0869551 0.113971 0.121552 0.123122 0.123315 0.12328 0.123226 0.123178 0.123135 
0.123095 0.123055 0.123016 0.122977 0.122937 0.122899 0.122862 0.122829 0.1228 
0.122777 0.12276 0.12275 0.12275 0.12276 0.122783 0.122818 0.122837 0.122626 
0.121028 0.113418 0.0864816 0.0872236 0.114094 0.121559 0.123083 0.123261 0.12322 
0.123161 0.12311 0.123065 0.123024 0.122985 0.122947 0.122911 0.122875 0.122841 
0.12281 0.122782 0.122758 0.122739 0.122726 0.122721 0.122725 0.122739 0.122765 
0.122804 0.122828 0.122632 0.12108 0.113586 0.0867883 0.0874921 0.114214 0.121564 
0.123043 0.123207 0.123161 0.1231 0.123046 0.122999 0.122958 0.122919 0.122883 
0.122849 0.122816 0.122786 0.122759 0.122735 0.122715 0.122701 0.122692 0.122691 
0.122698 0.122715 0.122745 0.122786 0.122816 0.122633 0.121127 0.11375 0.0870934 
0.0877617 0.114331 0.121567 0.123003 0.123154 0.123104 0.12304 0.122985 0.122937 
0.122895 0.122857 0.122822 0.12279 0.12276 0.122733 0.122709 0.122689 0.122673 
0.122662 0.122657 0.122659 0.122669 0.12269 0.122722 0.122767 0.1228 0.122631 
0.12117 0.113908 0.0873974 0.088033 0.114448 0.121569 0.122962 0.123102 0.123049 
0.122983 0.122927 0.122878 0.122836 0.122799 0.122765 0.122734 0.122706 0.122682 
0.122661 0.122644 0.122631 0.122623 0.122621 0.122626 0.122639 0.122663 0.122697 
0.122745 0.122782 0.122625 0.121208 0.114063 0.0877008 0.0883065 0.114564 0.12157 
0.122922 0.123051 0.122995 0.122928 0.12287 0.122822 0.122779 0.122742 0.122709 
0.12268 0.122654 0.122632 0.122613 0.122599 0.122589 0.122584 0.122585 0.122592 
0.122608 0.122634 0.122671 0.12272 0.122761 0.122616 0.121242 0.114214 0.0880042 
0.0885827 0.11468 0.12157 0.122881 0.123 0.122941 0.122873 0.122816 0.122767 
0.122725 0.122688 0.122656 0.122628 0.122604 0.122584 0.122567 0.122555 0.122547 
0.122544 0.122548 0.122558 0.122576 0.122603 0.122642 0.122694 0.122738 0.122604 
0.121274 0.114362 0.0883079 0.0888617 0.114795 0.121571 0.12284 0.12295 0.122889 
0.12282 0.122762 0.122713 0.122672 0.122636 0.122604 0.122578 0.122555 0.122536 
0.122521 0.122511 0.122505 0.122505 0.12251 0.122522 0.122542 0.122572 0.122612 
0.122666 0.122713 0.12259 0.121302 0.114507 0.0886122 0.0891438 0.11491 0.12157 
0.1228 0.1229 0.122837 0.122768 0.12271 0.122661 0.12262 0.122584 0.122554 
0.122528 0.122507 0.122489 0.122476 0.122467 0.122464 0.122465 0.122472 0.122486 
0.122508 0.122539 0.122581 0.122636 0.122686 0.122574 0.121327 0.114649 0.0889176 
0.0894292 0.115026 0.12157 0.12276 0.122851 0.122787 0.122717 0.122659 0.12261 
0.122569 0.122534 0.122505 0.12248 0.122459 0.122443 0.122431 0.122424 0.122422 
0.122425 0.122434 0.122449 0.122472 0.122505 0.122549 0.122605 0.122658 0.122555 
0.12135 0.114789 0.0892242 0.0897179 0.115141 0.121569 0.12272 0.122802 0.122736 
0.122667 0.122609 0.12256 0.12252 0.122485 0.122456 0.122432 0.122413 0.122398 
0.122387 0.122381 0.12238 0.122385 0.122395 0.122412 0.122436 0.12247 0.122515 
0.122572 0.122628 0.122535 0.12137 0.114928 0.0895323 0.0900101 0.115257 0.121568 
0.12268 0.122754 0.122687 0.122617 0.12256 0.122511 0.122471 0.122437 0.122408 
0.122385 0.122366 0.122352 0.122343 0.122338 0.122339 0.122344 0.122356 0.122374 
0.122399 0.122434 0.12248 0.122539 0.122596 0.122513 0.121388 0.115064 0.0898421 
0.0903058 0.115373 0.121567 0.122641 0.122706 0.122638 0.122568 0.122511 0.122463 
0.122422 0.122389 0.122361 0.122338 0.122321 0.122308 0.122299 0.122295 0.122297 
0.122303 0.122316 0.122335 0.122362 0.122398 0.122445 0.122504 0.122564 0.12249 
0.121404 0.115199 0.0901538 0.090605 0.115489 0.121565 0.122601 0.122659 0.122589 
0.12252 0.122462 0.122414 0.122375 0.122342 0.122314 0.122292 0.122275 0.122263 
0.122255 0.122253 0.122255 0.122263 0.122276 0.122296 0.122324 0.122361 0.122408 
0.122469 0.12253 0.122465 0.121419 0.115332 0.0904675 0.0909078 0.115606 0.121563 
0.122562 0.122612 0.122541 0.122472 0.122414 0.122367 0.122327 0.122295 0.122268 
0.122247 0.12223 0.122219 0.122212 0.12221 0.122213 0.122221 0.122236 0.122257 
0.122285 0.122323 0.122371 0.122432 0.122496 0.122439 0.121431 0.115463 0.0907836 
0.0912143 0.115722 0.121561 0.122523 0.122565 0.122493 0.122424 0.122367 0.12232 
0.122281 0.122248 0.122222 0.122201 0.122185 0.122174 0.122168 0.122167 0.122171 
0.12218 0.122195 0.122217 0.122246 0.122284 0.122333 0.122395 0.12246 0.122412 
0.121442 0.115594 0.091102 0.0915244 0.115838 0.121558 0.122484 0.122518 0.122446 
0.122377 0.12232 0.122273 0.122234 0.122202 0.122176 0.122156 0.122141 0.12213 
0.122125 0.122124 0.122129 0.122138 0.122154 0.122177 0.122206 0.122245 0.122295 
0.122357 0.122424 0.122383 0.121451 0.115722 0.091423 0.0918382 0.115955 0.121555 
0.122444 0.122472 0.122399 0.12233 0.122273 0.122226 0.122188 0.122156 0.122131 
0.122111 0.122096 0.122086 0.122081 0.122081 0.122086 0.122097 0.122113 0.122136 
0.122166 0.122206 0.122256 0.122319 0.122387 0.122354 0.121458 0.11585 0.0917466 
0.0921558 0.116071 0.121552 0.122405 0.122426 0.122352 0.122283 0.122226 0.12218 
0.122142 0.122111 0.122085 0.122066 0.122051 0.122042 0.122037 0.122038 0.122044 
0.122055 0.122072 0.122095 0.122126 0.122166 0.122216 0.12228 0.122349 0.122324 
0.121465 0.115976 0.092073 0.0924771 0.116187 0.121548 0.122366 0.12238 0.122305 
0.122236 0.12218 0.122134 0.122096 0.122065 0.12204 0.122021 0.122007 0.121998 
0.121994 0.121995 0.122001 0.122012 0.12203 0.122054 0.122085 0.122125 0.122176 
0.12224 0.122311 0.122293 0.121469 0.116102 0.0924024 0.0928021 0.116303 0.121544 
0.122327 0.122335 0.122259 0.12219 0.122134 0.122088 0.12205 0.122019 0.121995 
0.121976 0.121962 0.121954 0.12195 0.121951 0.121958 0.12197 0.121988 0.122012 
0.122044 0.122084 0.122136 0.1222 0.122272 0.122261 0.121473 0.116226 0.0927347 
0.093131 0.116418 0.121539 0.122288 0.122289 0.122213 0.122144 0.122088 0.122042 
0.122004 0.121974 0.12195 0.121931 0.121918 0.12191 0.121906 0.121908 0.121915 
0.121927 0.121946 0.12197 0.122002 0.122043 0.122095 0.12216 0.122233 0.122228 
0.121475 0.116349 0.0930701 0.0934637 0.116533 0.121533 0.122248 0.122244 0.122166 
0.122098 0.122042 0.121996 0.121959 0.121929 0.121905 0.121887 0.121873 0.121866 
0.121863 0.121865 0.121872 0.121884 0.121903 0.121928 0.121961 0.122002 0.122054 
0.122119 0.122193 0.122194 0.121475 0.116471 0.0934087 0.0938002 0.116648 0.121527 
0.122209 0.122198 0.12212 0.122052 0.121996 0.121951 0.121913 0.121884 0.12186 
0.121842 0.121829 0.121821 0.121819 0.121821 0.121829 0.121841 0.12186 0.121886 
0.121918 0.12196 0.122012 0.122077 0.122152 0.12216 0.121475 0.116592 0.0937506 
0.0941406 0.116762 0.12152 0.122169 0.122153 0.122074 0.122006 0.12195 0.121905 
0.121868 0.121838 0.121815 0.121797 0.121784 0.121777 0.121775 0.121777 0.121785 
0.121798 0.121817 0.121843 0.121876 0.121918 0.12197 0.122036 0.122111 0.122125 
0.121473 0.116712 0.0940959 0.094485 0.116876 0.121513 0.12213 0.122108 0.122029 
0.12196 0.121905 0.12186 0.121823 0.121793 0.12177 0.121752 0.12174 0.121733 
0.12173 0.121733 0.121741 0.121755 0.121774 0.1218 0.121833 0.121875 0.121928 
0.121993 0.12207 0.12209 0.121471 0.11683 0.0944446 0.0948333 0.116989 0.121505 
0.12209 0.122062 0.121983 0.121914 0.121859 0.121814 0.121777 0.121748 0.121725 
0.121707 0.121695 0.121688 0.121686 0.121689 0.121698 0.121711 0.121731 0.121757 
0.12179 0.121832 0.121885 0.121951 0.122029 0.122054 0.121467 0.116948 0.0947969 
0.0951857 0.117102 0.121496 0.12205 0.122017 0.121937 0.121869 0.121813 0.121769 
0.121732 0.121703 0.12168 0.121662 0.12165 0.121644 0.121642 0.121645 0.121654 
0.121668 0.121687 0.121713 0.121747 0.121789 0.121842 0.121908 0.121987 0.122017 
0.121461 0.117065 0.0951528 0.095542 0.117213 0.121486 0.122009 0.121972 0.121891 
0.121823 0.121768 0.121723 0.121687 0.121658 0.121635 0.121618 0.121606 0.121599 
0.121598 0.121601 0.12161 0.121624 0.121644 0.12167 0.121704 0.121746 0.121799 
0.121865 0.121945 0.12198 0.121455 0.11718 0.0955124 0.0959025 0.117324 0.121476 
0.121969 0.121927 0.121845 0.121777 0.121722 0.121678 0.121641 0.121612 0.121589 
0.121573 0.121561 0.121554 0.121553 0.121557 0.121565 0.12158 0.1216 0.121626 
0.12166 0.121703 0.121756 0.121822 0.121902 0.121943 0.121448 0.117294 0.0958758 
0.0962671 0.117434 0.121464 0.121928 0.121881 0.1218 0.121732 0.121676 0.121632 
0.121596 0.121567 0.121544 0.121528 0.121516 0.12151 0.121508 0.121512 0.121521 
0.121535 0.121556 0.121582 0.121616 0.121659 0.121712 0.121779 0.121859 0.121904 
0.121439 0.117407 0.0962431 0.0966359 0.117544 0.121452 0.121887 0.121836 0.121754 
0.121686 0.121631 0.121587 0.12155 0.121522 0.121499 0.121482 0.121471 0.121465 
0.121464 0.121467 0.121477 0.121491 0.121512 0.121538 0.121572 0.121615 0.121669 
0.121735 0.121816 0.121866 0.12143 0.117519 0.0966142 0.097009 0.117652 0.121439 
0.121846 0.121791 0.121708 0.12164 0.121585 0.121541 0.121505 0.121476 0.121454 
0.121437 0.121426 0.12142 0.121419 0.121423 0.121432 0.121447 0.121467 0.121494 
0.121528 0.121571 0.121625 0.121691 0.121773 0.121827 0.121419 0.11763 0.0969894 
0.0973863 0.117759 0.121426 0.121805 0.121745 0.121662 0.121595 0.121539 0.121495 
0.121459 0.121431 0.121408 0.121392 0.121381 0.121375 0.121374 0.121378 0.121387 
0.121402 0.121423 0.121449 0.121484 0.121527 0.12158 0.121647 0.121729 0.121787 
0.121407 0.117739 0.0973687 0.097768 0.117865 0.121411 0.121763 0.1217 0.121617 
0.121549 0.121494 0.12145 0.121414 0.121385 0.121363 0.121347 0.121335 0.12133 
0.121329 0.121333 0.121342 0.121357 0.121378 0.121405 0.121439 0.121482 0.121536 
0.121603 0.121685 0.121747 0.121395 0.117847 0.0977521 0.098154 0.11797 0.121396 
0.121721 0.121654 0.121571 0.121503 0.121448 0.121404 0.121368 0.12134 0.121317 
0.121301 0.12129 0.121284 0.121283 0.121288 0.121297 0.121312 0.121333 0.12136 
0.121395 0.121438 0.121491 0.121558 0.121641 0.121707 0.121381 0.117954 0.0981398 
0.0985446 0.118073 0.121379 0.121679 0.121609 0.121525 0.121457 0.121402 0.121358 
0.121322 0.121294 0.121272 0.121256 0.121245 0.121239 0.121238 0.121243 0.121252 
0.121267 0.121288 0.121315 0.12135 0.121393 0.121447 0.121514 0.121597 0.121666 
0.121366 0.118059 0.0985317 0.0989396 0.118176 0.121362 0.121636 0.121563 0.121479 
0.121411 0.121356 0.121312 0.121277 0.121248 0.121226 0.12121 0.121199 0.121193 
0.121193 0.121197 0.121207 0.121222 0.121243 0.12127 0.121305 0.121348 0.121402 
0.121469 0.121552 0.121625 0.12135 0.118163 0.0989281 0.0993393 0.118277 0.121344 
0.121594 0.121517 0.121433 0.121365 0.12131 0.121267 0.121231 0.121203 0.12118 
0.121164 0.121153 0.121148 0.121147 0.121152 0.121162 0.121177 0.121198 0.121225 
0.12126 0.121303 0.121357 0.121424 0.121508 0.121584 0.121333 0.118265 0.0993289 
0.0997436 0.118376 0.121324 0.121551 0.121471 0.121387 0.121319 0.121264 0.121221 
0.121185 0.121157 0.121135 0.121119 0.121108 0.121102 0.121102 0.121106 0.121116 
0.121131 0.121152 0.121179 0.121215 0.121257 0.121312 0.121378 0.121463 0.121542 
0.121315 0.118366 0.0997342 0.100153 0.118474 0.121304 0.121508 0.121425 0.12134 
0.121273 0.121218 0.121175 0.121139 0.121111 0.121089 0.121073 0.121062 0.121056 
0.121056 0.121061 0.12107 0.121086 0.121107 0.121134 0.121169 0.121212 0.121266 
0.121333 0.121418 0.121499 0.121296 0.118465 0.100144 0.100566 0.11857 0.121283 
0.121464 0.121379 0.121294 0.121227 0.121172 0.121128 0.121093 0.121065 0.121043 
0.121027 0.121016 0.121011 0.12101 0.121015 0.121025 0.12104 0.121061 0.121088 
0.121124 0.121166 0.121221 0.121288 0.121372 0.121457 0.121275 0.118562 0.100559 
0.100985 0.118665 0.121261 0.121421 0.121333 0.121248 0.121181 0.121126 0.121082 
0.121046 0.121019 0.120997 0.120981 0.12097 0.120965 0.120964 0.120969 0.120979 
0.120994 0.121015 0.121043 0.121078 0.121121 0.121175 0.121242 0.121327 0.121414 
0.121254 0.118658 0.100978 0.101409 0.118758 0.121238 0.121377 0.121287 0.121201 
0.121134 0.121079 0.121036 0.121 0.120972 0.12095 0.120935 0.120924 0.120919 
0.120918 0.120923 0.120933 0.120948 0.12097 0.120997 0.121032 0.121075 0.121129 
0.121196 0.121281 0.121371 0.121232 0.118751 0.101402 0.101837 0.118849 0.121214 
0.121332 0.121241 0.121155 0.121088 0.121033 0.12099 0.120954 0.120926 0.120904 
0.120888 0.120878 0.120872 0.120872 0.120877 0.120887 0.120902 0.120924 0.120951 
0.120986 0.121029 0.121083 0.12115 0.121236 0.121327 0.121209 0.118843 0.101832 
0.102271 0.118938 0.121189 0.121288 0.121194 0.121108 0.121041 0.120987 0.120943 
0.120908 0.12088 0.120858 0.120842 0.120831 0.120826 0.120826 0.120831 0.120841 
0.120856 0.120877 0.120905 0.12094 0.120983 0.121037 0.121104 0.12119 0.121283 
0.121184 0.118933 0.102266 0.102709 0.119026 0.121163 0.121243 0.121148 0.121062 
0.120995 0.12094 0.120897 0.120861 0.120833 0.120811 0.120796 0.120785 0.12078 
0.12078 0.120784 0.120795 0.12081 0.120831 0.120859 0.120894 0.120937 0.120991 
0.121058 0.121144 0.121239 0.121159 0.119021 0.102705 0.103153 0.119111 0.121137 
0.121198 0.121101 0.121015 0.120948 0.120893 0.12085 0.120815 0.120787 0.120765 
0.120749 0.120739 0.120734 0.120733 0.120738 0.120748 0.120764 0.120785 0.120812 
0.120848 0.12089 0.120945 0.121011 0.121097 0.121194 0.121133 0.119106 0.103149 
0.103603 0.119194 0.121109 0.121153 0.121054 0.120968 0.120901 0.120847 0.120804 
0.120768 0.12074 0.120718 0.120703 0.120692 0.120687 0.120687 0.120692 0.120702 
0.120717 0.120739 0.120766 0.120801 0.120844 0.120899 0.120965 0.121051 0.12115 
0.121105 0.11919 0.103599 0.104057 0.119274 0.12108 0.121107 0.121007 0.120921 
0.120855 0.1208 0.120757 0.120721 0.120694 0.120672 0.120656 0.120646 0.120641 
0.12064 0.120645 0.120655 0.120671 0.120692 0.120719 0.120755 0.120798 0.120852 
0.120918 0.121005 0.121104 0.121077 0.119271 0.104054 0.104517 0.119353 0.12105 
0.121062 0.12096 0.120874 0.120808 0.120753 0.12071 0.120674 0.120647 0.120625 
0.12061 0.120599 0.120594 0.120594 0.120599 0.120609 0.120624 0.120646 0.120673 
0.120708 0.120751 0.120805 0.120871 0.120958 0.121059 0.121047 0.11935 0.104515 
0.104983 0.119428 0.121019 0.121016 0.120913 0.120827 0.120761 0.120706 0.120663 
0.120628 0.1206 0.120578 0.120563 0.120553 0.120547 0.120547 0.120552 0.120562 
0.120578 0.120599 0.120626 0.120661 0.120704 0.120759 0.120825 0.120911 0.121013 