# vtk DataFile Version 5.1
vtk output
ASCII
DATASET UNSTRUCTURED_GRID
POINTS 4929 double
0.1016 1.5 0.13098490238 0.1016 1.45 0.12904334068 0.1016 1.4 0.13187651336 
0.1016 1.35 0.12813037634 0.1016 1.3 0.12862718105 0.1016 1.25 0.1385114044 
0.1016 1.2 0.14134685695 0.1016 1.15 0.13386248052 0.1016 1.1 0.12584146857 
0.1016 1.05 0.1156399399 0.1016 1 0.1045832634 0.1016 0.95 0.10941039771 
0.1016 0.9 0.11066174507 0.1016 0.85 0.10626742989 0.1016 0.8 0.11094460636 
0.1016 0.75 0.12919001281 0.1016 0.7 0.14879082143 0.1016 0.65 0.15487360954 
0.1016 0.6 0.1479280889 0.1016 0.55 0.148271963 0.1016 0.5 0.15470503271 
0.1016 0.45 0.16150058806 0.1016 0.4 0.15196421742 0.1016 0.35 0.13916304708 
0.1016 0.3 0.13678921759 0.1016 0.25 0.14458087087 0.1016 0.2 0.14479809999 
0.1016 0.15 0.13326923549 0.1016 0.1 0.12809693813 0.1016 0.05 0.12411984801 
0.1016 0 0.12181563675 5.08 1.5 0.28700000048 5.08 1.45 0.28700000048 
5.08 1.4 0.28700000048 5.08 1.35 0.28700000048 5.08 1.3 0.28700000048 
5.08 1.25 0.28700000048 5.08 1.2 0.28700000048 5.08 1.15 0.28700000048 
5.08 1.1 0.28700000048 5.08 1.05 0.28700000048 5.08 1 0.28700000048 
5.08 0.95 0.28700000048 5.08 0.9 0.28700000048 5.08 0.85 0.28700000048 
5.08 0.8 0.28700000048 5.08 0.75 0.28700000048 5.08 0.7 0.28700000048 
5.08 0.65 0.28700000048 5.08 0.6 0.28700000048 5.08 0.55 0.28700000048 
5.08 0.5 0.28700000048 5.08 0.45 0.28700000048 5.08 0.4 0.28700000048 
5.08 0.35 0.28700000048 5.08 0.3 0.28700000048 5.08 0.25 0.28700000048 
5.08 0.2 0.28700000048 5.08 0.15 0.28700000048 5.08 0.1 0.28700000048 
5.08 0.05 0.28700000048 5.08 0 0.28700000048 0.12737462728 1.5 0.13469743729 
0.12737462728 1.45 0.13339111209 0.12737462728 1.4 0.14112786949 0.12737462728 1.35 0.13345472515 
0.12737462728 1.3 0.13203880191 0.12737462728 1.25 0.14687338471 0.12737462728 1.2 0.14984405041 
0.12737462728 1.15 0.13856810331 0.12737462728 1.1 0.13041561842 0.12737462728 1.05 0.12071851641 
0.12737462728 1 0.10268300027 0.12737462728 0.95 0.11353262514 0.12737462728 0.9 0.11517251283 
0.12737462728 0.85 0.10762606561 0.12737462728 0.8 0.11064387113 0.12737462728 0.75 0.13123205304 
0.12737462728 0.7 0.1540954113 0.12737462728 0.65 0.16063095629 0.12737462728 0.6 0.14702406526 
0.12737462728 0.55 0.14957000315 0.12737462728 0.5 0.15689258277 0.12737462728 0.45 0.1701939106 
0.12737462728 0.4 0.15671642125 0.12737462728 0.35 0.14091335237 0.12737462728 0.3 0.13771560788 
0.12737462728 0.25 0.15036292374 0.12737462728 0.2 0.15243889391 0.12737462728 0.15 0.13547295332 
0.12737462728 0.1 0.13308061659 0.12737462728 0.05 0.12930928171 0.12737462728 0 0.12429687381 
0.15441581276 1.5 0.14162544906 0.15441581276 1.45 0.14220172167 0.15441581276 1.4 0.15622261167 
0.15441581276 1.35 0.14304591715 0.15441581276 1.3 0.1389374584 0.15441581276 1.25 0.15900096297 
0.15441581276 1.2 0.16076129675 0.15441581276 1.15 0.14580747485 0.15441581276 1.1 0.13766561449 
0.15441581276 1.05 0.13197393715 0.15441581276 1 0.10636436939 0.15441581276 0.95 0.12130782008 
0.15441581276 0.9 0.1249922365 0.15441581276 0.85 0.11749754101 0.15441581276 0.8 0.11837852746 
0.15441581276 0.75 0.13772165775 0.15441581276 0.7 0.16155026853 0.15441581276 0.65 0.16960404813 
0.15441581276 0.6 0.14862746 0.15441581276 0.55 0.15571001172 0.15441581276 0.5 0.16187816858 
0.15441581276 0.45 0.18145462871 0.15441581276 0.4 0.16497761011 0.15441581276 0.35 0.14804247022 
0.15441581276 0.3 0.14167937636 0.15441581276 0.25 0.15746621788 0.15441581276 0.2 0.16134785116 
0.15441581276 0.15 0.13983085752 0.15441581276 0.1 0.14183776081 0.15441581276 0.05 0.13754104078 
0.15441581276 0 0.13231891394 0.18278579477 1.5 0.15086720884 0.18278579477 1.45 0.15905866027 
0.18278579477 1.4 0.17327019572 0.18278579477 1.35 0.15789192915 0.18278579477 1.3 0.15259724855 
0.18278579477 1.25 0.17343653738 0.18278579477 1.2 0.17143921554 0.18278579477 1.15 0.15749579668 
0.18278579477 1.1 0.14747035503 0.18278579477 1.05 0.14635924995 0.18278579477 1 0.12607979774 
0.18278579477 0.95 0.12627649307 0.18278579477 0.9 0.13934832811 0.18278579477 0.85 0.13862474263 
0.18278579477 0.8 0.13802690804 0.18278579477 0.75 0.14823414385 0.18278579477 0.7 0.16971324384 
0.18278579477 0.65 0.17904303968 0.18278579477 0.6 0.15808387101 0.18278579477 0.55 0.16670498252 
0.18278579477 0.5 0.17460426688 0.18278579477 0.45 0.18835215271 0.18278579477 0.4 0.17880757153 
0.18278579477 0.35 0.16324955225 0.18278579477 0.3 0.15160952508 0.18278579477 0.25 0.16446942091 
0.18278579477 0.2 0.16668191552 0.18278579477 0.15 0.15192879736 0.18278579477 0.1 0.15439125896 
0.18278579477 0.05 0.14542360604 0.18278579477 0 0.15142314136 0.21254987001 1.5 0.16390144825 
0.21254987001 1.45 0.17526760697 0.21254987001 1.4 0.1866234839 0.21254987001 1.35 0.17370803654 
0.21254987001 1.3 0.17114153504 0.21254987001 1.25 0.18907694519 0.21254987001 1.2 0.1825864315 
0.21254987001 1.15 0.17110799253 0.21254987001 1.1 0.16249263287 0.21254987001 1.05 0.16386604309 
0.21254987001 1 0.14782303572 0.21254987001 0.95 0.13823798299 0.21254987001 0.9 0.15571004152 
0.21254987001 0.85 0.15746732056 0.21254987001 0.8 0.15707331896 0.21254987001 0.75 0.16144196689 
0.21254987001 0.7 0.18216343224 0.21254987001 0.65 0.19457297027 0.21254987001 0.6 0.17403246462 
0.21254987001 0.55 0.1833589673 0.21254987001 0.5 0.19034929574 0.21254987001 0.45 0.19995494187 
0.21254987001 0.4 0.19257736206 0.21254987001 0.35 0.18066760898 0.21254987001 0.3 0.16485148668 
0.21254987001 0.25 0.17534452677 0.21254987001 0.2 0.17579416931 0.21254987001 0.15 0.16789878905 
0.21254987001 0.1 0.17129476368 0.21254987001 0.05 0.15682055056 0.21254987001 0 0.17282171547 
0.24377654385 1.5 0.18049195409 0.24377654385 1.45 0.19000637531 0.24377654385 1.4 0.19394518435 
0.24377654385 1.35 0.18908546865 0.24377654385 1.3 0.1939163506 0.24377654385 1.25 0.20260290802 
0.24377654385 1.2 0.19427405298 0.24377654385 1.15 0.18463684618 0.24377654385 1.1 0.18401181698 
0.24377654385 1.05 0.18105074763 0.24377654385 1 0.16569465399 0.24377654385 0.95 0.15853838623 
0.24377654385 0.9 0.17168515921 0.24377654385 0.85 0.16735130548 0.24377654385 0.8 0.16940394044 
0.24377654385 0.75 0.17559953034 0.24377654385 0.7 0.19877840579 0.24377654385 0.65 0.21361622214 
0.24377654385 0.6 0.19619959593 0.24377654385 0.55 0.20178471506 0.24377654385 0.5 0.20757913589 
0.24377654385 0.45 0.2165504396 0.24377654385 0.4 0.20306913555 0.24377654385 0.35 0.19604125619 
0.24377654385 0.3 0.1808398366 0.24377654385 0.25 0.19188299775 0.24377654385 0.2 0.18929369748 
0.24377654385 0.15 0.18398496509 0.24377654385 0.1 0.18851952255 0.24377654385 0.05 0.17220850289 
0.24377654385 0 0.19368071854 0.27653768798 1.5 0.19641757011 0.27653768798 1.45 0.20955716074 
0.27653768798 1.4 0.21804586053 0.27653768798 1.35 0.20457078516 0.27653768798 1.3 0.21117533743 
0.27653768798 1.25 0.21614867449 0.27653768798 1.2 0.20697236061 0.27653768798 1.15 0.19857083261 
0.27653768798 1.1 0.20007415116 0.27653768798 1.05 0.20590928197 0.27653768798 1 0.17800976336 
0.27653768798 0.95 0.17558854818 0.27653768798 0.9 0.18691346049 0.27653768798 0.85 0.18195950985 
0.27653768798 0.8 0.18200665712 0.27653768798 0.75 0.19014567137 0.27653768798 0.7 0.20992714167 
0.27653768798 0.65 0.22749570012 0.27653768798 0.6 0.21355111897 0.27653768798 0.55 0.21964769065 
0.27653768798 0.5 0.22507943213 0.27653768798 0.45 0.22649180889 0.27653768798 0.4 0.214177683 
0.27653768798 0.35 0.20982912183 0.27653768798 0.3 0.19972002506 0.27653768798 0.25 0.21097266674 
0.27653768798 0.2 0.20614571869 0.27653768798 0.15 0.18347467482 0.27653768798 0.1 0.20030352473 
0.27653768798 0.05 0.18765150011 0.27653768798 0 0.22274535894 0.31090870586 1.5 0.21390642226 
0.31090870586 1.45 0.22968521714 0.31090870586 1.4 0.24585744739 0.31090870586 1.35 0.21919007599 
0.31090870586 1.3 0.22587294877 0.31090870586 1.25 0.23067069054 0.31090870586 1.2 0.22204498947 
0.31090870586 1.15 0.21390415728 0.31090870586 1.1 0.21106949449 0.31090870586 1.05 0.22573760152 
0.31090870586 1 0.19104859233 0.31090870586 0.95 0.19278992712 0.31090870586 0.9 0.20248502493 
0.31090870586 0.85 0.20274576545 0.31090870586 0.8 0.19827488065 0.31090870586 0.75 0.20390865207 
0.31090870586 0.7 0.21724063158 0.31090870586 0.65 0.23752813041 0.31090870586 0.6 0.22589272261 
0.31090870586 0.55 0.23675717413 0.31090870586 0.5 0.24356411397 0.31090870586 0.45 0.2358520329 
0.31090870586 0.4 0.228300035 0.31090870586 0.35 0.22449226677 0.31090870586 0.3 0.21815247834 
0.31090870586 0.25 0.22663548589 0.31090870586 0.2 0.22314043343 0.31090870586 0.15 0.18643654883 
0.31090870586 0.1 0.21540172398 0.31090870586 0.05 0.20239855349 0.31090870586 0 0.25073593855 
0.34696870625 1.5 0.23730570078 0.34696870625 1.45 0.24399776757 0.34696870625 1.4 0.24951246381 
0.34696870625 1.35 0.2370120436 0.34696870625 1.3 0.24356395006 0.34696870625 1.25 0.24629762769 
0.34696870625 1.2 0.2398070544 0.34696870625 1.15 0.23160806298 0.34696870625 1.1 0.22950185835 
0.34696870625 1.05 0.21795426309 0.34696870625 1 0.22152137756 0.34696870625 0.95 0.2161411047 
0.34696870625 0.9 0.21671491861 0.34696870625 0.85 0.22475832701 0.34696870625 0.8 0.21811245382 
0.34696870625 0.75 0.21658015251 0.34696870625 0.7 0.2313695997 0.34696870625 0.65 0.24740175903 
0.34696870625 0.6 0.2416113466 0.34696870625 0.55 0.25109943748 0.34696870625 0.5 0.26220074296 
0.34696870625 0.45 0.25155386329 0.34696870625 0.4 0.24748778343 0.34696870625 0.35 0.23938533664 
0.34696870625 0.3 0.23661911488 0.34696870625 0.25 0.23655344546 0.34696870625 0.2 0.23153360188 
0.34696870625 0.15 0.23241950572 0.34696870625 0.1 0.23355834186 0.34696870625 0.05 0.22732141614 
0.34696870625 0 0.25871485472 0.3848006853 1.5 0.25947511196 0.3848006853 1.45 0.26098883152 
0.3848006853 1.4 0.25968557596 0.3848006853 1.35 0.25739461184 0.3848006853 1.3 0.26011627913 
0.3848006853 1.25 0.25984326005 0.3848006853 1.2 0.25449496508 0.3848006853 1.15 0.25089648366 
[...]
CELL_DATA 4740
FIELD FieldData 7
B_Stress_n_p_m2 1 4740 float
0.0797152 0.0809589 0.080749 0.0804967 0.0813496 0.0819893 0.0813009 0.0801314 0.0788656 
0.0768595 0.0767154 0.0767385 0.0758057 0.075151 0.0759594 0.077675 0.0787142 0.0781482 
0.0782117 0.0789103 0.0807681 0.0810672 0.0801786 0.0799189 0.0811773 0.0823325 0.0817159 
0.0812405 0.0810725 0.0795854 0.0682264 0.0696952 0.0696226 0.0689395 0.0696937 0.0704854 
0.0698688 0.0685927 0.0678299 0.0662001 0.0655479 0.0663292 0.0658107 0.0649617 0.0651003 
0.0662943 0.0670588 0.0662313 0.0660655 0.0667498 0.0684176 0.0693505 0.0683591 0.0676535 
0.068557 0.069833 0.0695782 0.068986 0.0689694 0.0675565 0.0680448 0.0697853 0.0702333 
0.0693703 0.0698837 0.0707052 0.070167 0.0687017 0.0680447 0.0671774 0.065628 0.0666651 
0.0669609 0.0664585 0.0660339 0.0667209 0.0673727 0.0666398 0.0662673 0.0671465 0.068382 
0.0698013 0.069023 0.0677396 0.0678646 0.0688784 0.069341 0.0686563 0.0681947 0.06686 
0.0721739 0.0737657 0.07477 0.0744966 0.0747342 0.0753073 0.0747142 0.0736744 0.0728086 
0.0722954 0.0708865 0.0709839 0.071634 0.0718114 0.0714984 0.0719543 0.0727762 0.0722216 
0.0717148 0.0725097 0.0736545 0.07443 0.0742 0.0726745 0.0721283 0.0725866 0.0733416 
0.0732441 0.072195 0.0707807 0.0768379 0.077873 0.078646 0.0794379 0.0797009 0.0797777 
0.079073 0.0788524 0.0784322 0.077116 0.0761682 0.0756805 0.075774 0.0759138 0.07629 
0.0771532 0.0786545 0.0786067 0.0779454 0.0783898 0.0791435 0.0791952 0.0788988 0.0777151 
0.0769983 0.0768801 0.0766169 0.0774034 0.0764671 0.0755488 0.0824205 0.0837711 0.0832602 
0.0841453 0.0848457 0.0843814 0.0835228 0.0835441 0.0846399 0.0821095 0.0807738 0.08069 
0.0805071 0.0798146 0.0804589 0.0816991 0.0840006 0.0846202 0.0845437 0.0848041 0.0845793 
0.0843154 0.0834495 0.0827781 0.0822687 0.0818753 0.0792673 0.0802065 0.0802373 0.0812944 
0.0879806 0.0899769 0.0898874 0.0895932 0.0903519 0.0899855 0.0889322 0.0884919 0.0893381 
0.088534 0.085972 0.0860752 0.0864653 0.0853492 0.0852675 0.0865118 0.0888591 0.0902601 
0.091028 0.09212 0.0912894 0.0902714 0.0889737 0.0883326 0.0877102 0.0874367 0.0847356 
0.0833759 0.084439 0.0867909 0.0938841 0.0950082 0.0965478 0.0959667 0.0967184 0.0967056 
0.0957945 0.0948598 0.0934348 0.0952068 0.0931402 0.0926415 0.09345 0.0927512 0.0917543 
0.0925127 0.0941551 0.0960771 0.0969588 0.0988455 0.098751 0.0973398 0.095969 0.0950367 
0.0939436 0.0934228 0.0936082 0.0906128 0.0913386 0.0922473 0.101124 0.100925 0.102149 
0.102656 0.103232 0.103195 0.102834 0.101846 0.0999741 0.100273 0.101162 0.0998593 
0.100143 0.100469 0.0995052 0.0990793 0.0995872 0.10068 0.101057 0.10202 0.103107 
0.102765 0.102655 0.102074 0.101427 0.100464 0.101203 0.100948 0.0997068 0.0992879 
0.107198 0.106626 0.107163 0.107733 0.107576 0.107205 0.107 0.106575 0.105358 
0.104472 0.105786 0.104681 0.104113 0.105032 0.10467 0.103745 0.102847 0.102274 
0.10193 0.101676 0.102506 0.103726 0.105169 0.106153 0.106618 0.106221 0.106269 
0.106966 0.105617 0.105291 0.109653 0.109203 0.10909 0.108996 0.108243 0.107566 
0.107133 0.10681 0.106303 0.105284 0.105547 0.104964 0.104114 0.104578 0.104499 
0.103712 0.102384 0.101017 0.100276 0.0996361 0.0998766 0.101374 0.103293 0.105156 
0.106421 0.10707 0.107117 0.107552 0.106955 0.107091 0.10932 0.108876 0.108179 
0.107496 0.106696 0.106004 0.105464 0.10495 0.104431 0.10383 0.103246 0.102849 
0.102321 0.102032 0.101872 0.101272 0.10033 0.0993884 0.098682 0.0981392 0.0981753 
0.0990495 0.100445 0.102032 0.103364 0.104311 0.104934 0.105483 0.105858 0.105694 
0.109141 0.108765 0.107923 0.10737 0.106937 0.106586 0.106261 0.105853 0.105359 
0.10495 0.104403 0.104009 0.103546 0.103093 0.102808 0.102312 0.101866 0.101507 
0.101175 0.100727 0.100534 0.100746 0.101257 0.102146 0.103008 0.103688 0.104154 
0.104798 0.105543 0.105254 0.111232 0.110965 0.110923 0.111158 0.111486 0.111787 
0.112021 0.112169 0.112117 0.112005 0.111859 0.111686 0.111303 0.110859 0.110569 
0.110137 0.109801 0.109676 0.109602 0.109282 0.108876 0.108616 0.108383 0.108379 
0.108506 0.108552 0.108322 0.108176 0.108295 0.107875 0.113504 0.113732 0.115026 
0.116052 0.117076 0.117946 0.11871 0.119395 0.120009 0.1203 0.120533 0.120665 
0.120552 0.120199 0.119889 0.119609 0.119127 0.118887 0.118656 0.118455 0.118006 
0.117545 0.11706 0.116352 0.115835 0.115209 0.114478 0.113372 0.11238 0.111679 
0.113425 0.114972 0.116489 0.117846 0.118987 0.120003 0.120907 0.121711 0.122427 
0.123008 0.123346 0.12353 0.123581 0.123455 0.123186 0.122889 0.122596 0.122217 
0.121839 0.121491 0.121154 0.120696 0.120124 0.119453 0.118633 0.117764 0.11681 
0.115676 0.114329 0.113286 0.11369 0.115081 0.1164 0.117614 0.118685 0.119634 
0.120468 0.121189 0.121799 0.122284 0.122605 0.122791 0.122855 0.122796 0.122632 
0.122413 0.122162 0.121855 0.121522 0.121169 0.120788 0.120326 0.119775 0.119136 
0.118383 0.117544 0.116602 0.11553 0.114339 0.113242 0.113939 0.115235 0.116467 
0.117604 0.118623 0.119525 0.120311 0.120983 0.121541 0.12198 0.122292 0.122487 
0.122572 0.122556 0.122456 0.122292 0.122079 0.121817 0.121515 0.121172 0.120779 
0.120316 0.119773 0.119142 0.118415 0.117591 0.116662 0.115619 0.114472 0.113259 
0.114075 0.115358 0.116555 0.117648 0.118627 0.119491 0.12024 0.120877 0.121404 
0.12182 0.122125 0.122327 0.122432 0.122448 0.122388 0.122264 0.122084 0.121852 
0.121572 0.121241 0.120853 0.120396 0.119861 0.11924 0.118524 0.11771 0.116789 
0.115757 0.114613 0.113355 0.114157 0.115437 0.116611 0.117674 0.11862 0.119451 
0.12017 0.120778 0.12128 0.121679 0.121978 0.122182 0.1223 0.122339 0.122307 
0.122212 0.122059 0.121852 0.121592 0.121276 0.120898 0.120451 0.119926 0.119315 
0.11861 0.117805 0.116893 0.115866 0.114722 0.113454 0.114212 0.11549 0.116649 
0.117689 0.118611 0.119416 0.12011 0.120696 0.121179 0.121564 0.121857 0.122063 
0.12219 0.122244 0.122231 0.122158 0.122027 0.12184 0.121598 0.121297 0.120932 
0.120496 0.119982 0.119382 0.118687 0.117891 0.116985 0.115964 0.114821 0.113552 
0.114249 0.115524 0.116673 0.117698 0.118601 0.119387 0.120061 0.12063 0.121098 
0.121472 0.12176 0.121966 0.122099 0.122163 0.122164 0.122107 0.121993 0.121823 
0.121596 0.12131 0.120958 0.120535 0.120032 0.119443 0.118758 0.11797 0.117072 
0.116055 0.114914 0.113645 0.114273 0.115547 0.116689 0.117702 0.118591 0.119362 
0.120021 0.120575 0.121031 0.121397 0.121679 0.121885 0.122021 0.122092 0.122104 
0.122058 0.121958 0.121802 0.121589 0.121316 0.120977 0.120566 0.120076 0.119497 
0.118822 0.118043 0.117151 0.116139 0.115001 0.113732 0.114291 0.115563 0.116699 
0.117703 0.118581 0.11934 0.119987 0.12053 0.120976 0.121334 0.121612 0.121816 
0.121954 0.12203 0.122048 0.122012 0.121922 0.121778 0.121578 0.121317 0.120991 
0.120592 0.120113 0.119545 0.11888 0.118109 0.117224 0.116217 0.115082 0.113814 
0.114304 0.115575 0.116707 0.117704 0.118573 0.119322 0.119958 0.120491 0.120929 
0.121281 0.121554 0.121756 0.121894 0.121973 0.121996 0.121967 0.121886 0.121753 
0.121563 0.121314 0.120999 0.120612 0.120145 0.119588 0.118933 0.11817 0.117292 
0.116291 0.115159 0.113891 0.114318 0.115587 0.116714 0.117705 0.118567 0.119307 
0.119935 0.120459 0.120889 0.121234 0.121502 0.121702 0.121839 0.12192 0.121947 
0.121924 0.12185 0.121725 0.121546 0.121307 0.121004 0.120628 0.120171 0.119625 
0.11898 0.118226 0.117356 0.116359 0.115231 0.113964 0.114332 0.1156 0.116723 
0.117709 0.118563 0.119296 0.119915 0.120431 0.120854 0.121192 0.121456 0.121652 
0.121788 0.121869 0.121899 0.12188 0.121813 0.121696 0.121525 0.121297 0.121004 
0.120639 0.120194 0.119658 0.119023 0.118278 0.117415 0.116424 0.115299 0.114033 
0.11435 0.115616 0.116736 0.117716 0.118563 0.119288 0.119899 0.120407 0.120822 
0.121154 0.121412 0.121604 0.121739 0.12182 0.121851 0.121836 0.121774 0.121664 
0.121502 0.121283 0.121001 0.120647 0.120212 0.119688 0.119063 0.118327 0.117471 
0.116486 0.115364 0.1141 0.114371 0.115636 0.116752 0.117726 0.118567 0.119284 
0.119887 0.120386 0.120793 0.121118 0.12137 0.121558 0.12169 0.12177 0.121803 
0.121791 0.121733 0.12163 0.121476 0.121266 0.120994 0.120651 0.120228 0.119714 
0.119099 0.118373 0.117525 0.116546 0.115428 0.114165 0.114398 0.11566 0.116773 
0.117741 0.118575 0.119283 0.119877 0.120368 0.120766 0.121083 0.121329 0.121512 
0.12164 0.121719 0.121752 0.121743 0.12169 0.121592 0.121446 0.121245 0.120983 
0.120651 0.12024 0.119737 0.119134 0.118417 0.117577 0.116605 0.115491 0.11423 
0.11443 0.115691 0.116799 0.117761 0.118587 0.119286 0.119871 0.120352 0.120741 
0.121049 0.121287 0.121465 0.121589 0.121666 0.121699 0.121691 0.121643 0.121551 
0.121412 0.121221 0.120969 0.120649 0.120249 0.119758 0.119166 0.11846 0.117629 
0.116664 0.115555 0.114295 0.11447 0.115728 0.116831 0.117787 0.118604 0.119293 
0.119867 0.120337 0.120716 0.121015 0.121245 0.121416 0.121535 0.121609 0.121642 
0.121636 0.121591 0.121505 0.121374 0.121192 0.120952 0.120643 0.120256 0.119778 
0.119198 0.118503 0.117682 0.116723 0.115619 0.114362 0.114516 0.115772 0.11687 
0.117818 0.118625 0.119304 0.119866 0.120324 0.120691 0.12098 0.121201 0.121364 
0.121478 0.121549 0.121581 0.121576 0.121535 0.121455 0.121332 0.121159 0.12093 
0.120634 0.12026 0.119796 0.119228 0.118546 0.117735 0.116785 0.115686 0.114431 
0.114571 0.115824 0.116916 0.117855 0.118652 0.119318 0.119867 0.120311 0.120666 
0.120943 0.121154 0.121309 0.121417 0.121484 0.121515 0.121511 0.121473 0.121399 
0.121284 0.121122 0.120905 0.120622 0.120262 0.119812 0.119259 0.11859 0.117791 
0.11685 0.115757 0.114505 0.114634 0.115884 0.116969 0.117899 0.118683 0.119336 
0.11987 0.1203 0.12064 0.120904 0.121104 0.12125 0.121351 0.121414 0.121443 
0.12144 0.121405 0.121337 0.121231 0.121079 0.120875 0.120606 0.120262 0.119828 
0.119291 0.118636 0.117849 0.116919 0.115833 0.114583 0.114707 0.115953 0.117031 
0.11795 0.11872 0.119357 0.119874 0.120288 0.120613 0.120862 0.12105 0.121186 
0.121279 0.121337 0.121364 0.121362 0.121331 0.121269 0.121171 0.121031 0.12084 
0.120587 0.120259 0.119843 0.119323 0.118684 0.117912 0.116993 0.115915 0.114669 
0.114791 0.116034 0.117103 0.118008 0.118763 0.119382 0.119881 0.120276 0.120583 
0.120817 0.12099 0.121115 0.1212 0.121253 0.121277 0.121275 0.121248 0.121192 
0.121104 0.120976 0.1208 0.120564 0.120254 0.119857 0.119357 0.118736 0.11798 
0.117074 0.116005 0.114763 0.114888 0.116126 0.117185 0.118076 0.118812 0.119411 
0.119889 0.120263 0.12055 0.120766 0.120925 0.121037 0.121114 0.12116 0.121182 
0.12118 0.121157 0.121108 0.121029 0.120915 0.120754 0.120536 0.120247 0.119871 
0.119392 0.118793 0.118055 0.117164 0.116104 0.114867 0.114999 0.116231 0.117279 
0.118152 0.118868 0.119444 0.119897 0.120248 0.120513 0.12071 0.120852 0.120952 
0.121018 0.121058 0.121076 0.121076 0.121055 0.121014 0.120946 0.120845 0.120701 
0.120503 0.120236 0.119885 0.11943 0.118854 0.118138 0.117263 0.116216 0.114984 
0.115128 0.116353 0.117386 0.11824 0.118931 0.11948 0.119906 0.12023 0.120471 
0.120647 0.120771 0.120856 0.120912 0.120945 0.120961 0.12096 0.120944 0.120909 
0.120852 0.120766 0.12064 0.120464 0.120222 0.119897 0.11947 0.118921 0.118229 
0.117375 0.116342 0.115117 0.115276 0.116494 0.11751 0.11834 0.119002 0.11952 
0.119914 0.120208 0.120423 0.120575 0.12068 0.12075 0.120795 0.120821 0.120833 
0.120832 0.12082 0.120793 0.120747 0.120676 0.12057 0.120418 0.120203 0.119908 
0.119513 0.118995 0.118332 0.117502 0.116486 0.115269 0.115449 0.116657 0.117653 
0.118453 0.119082 0.119562 0.119921 0.120181 0.120365 0.120492 0.120577 0.120631 
0.120665 0.120684 0.120692 0.120692 0.120683 0.120664 0.120629 0.120574 0.120489 
0.120362 0.120177 0.119916 0.119558 0.119077 0.118448 0.117647 0.116652 0.115444 
0.115653 0.116848 0.117817 0.118582 0.119169 0.119606 0.119923 0.120145 0.120297 
0.120397 0.12046 0.120499 0.120521 0.120533 0.120537 0.120537 0.120532 0.12052 
0.120497 0.120459 0.120395 0.120295 0.120143 0.11992 0.119603 0.119166 0.118579 
0.117814 0.116844 0.115649 0.115895 0.117073 0.118009 0.118729 0.119264 0.11965 
0.119918 0.120098 0.120214 0.120286 0.120328 0.12035 0.120362 0.120367 0.120368 
0.120368 0.120366 0.120361 0.12035 0.120327 0.120285 0.120213 0.120097 0.119916 
0.119648 0.119262 0.118727 0.118007 0.117071 0.115892 0.116186 0.117342 0.118233 
0.118894 0.119365 0.119689 0.119901 0.120035 0.120114 0.120157 0.120177 0.120185 
0.120186 0.120185 0.120184 0.120184 0.120185 0.120186 0.120185 0.120177 0.120156 
0.120113 0.120034 0.1199 0.119687 0.119364 0.118892 0.118231 0.11734 0.116185 
0.116543 0.117665 0.118493 0.119075 0.119466 0.119715 0.119865 0.119949 0.11999 
0.120006 0.120008 0.120003 0.119996 0.119991 0.119987 0.119987 0.11999 0.119996 
0.120003 0.120007 0.120006 0.11999 0.119948 0.119864 0.119714 0.119465 0.119075 
0.118492 0.117664 0.116542 0.116996 0.118064 0.118796 0.119268 0.119554 0.119716 
0.119798 0.119832 0.119839 0.119832 0.119819 0.119806 0.119794 0.119785 0.119781 
0.119781 0.119785 0.119794 0.119805 0.119819 0.119832 0.119839 0.119832 0.119798 
0.119715 0.119554 0.119267 0.118796 0.118064 0.116995 0.117608 0.118568 0.119135 
0.119444 0.119598 0.119662 0.119677 0.119669 0.11965 0.119629 0.11961 0.119593 
0.119581 0.119573 0.119568 0.119568 0.119573 0.119581 0.119593 0.11961 0.119629 
0.11965 0.119669 0.119677 0.119662 0.119598 0.119444 0.119135 0.118567 0.117608 
0.118365 0.119063 0.119379 0.119506 0.119543 0.11954 0.119522 0.119501 0.11948 
0.119463 0.119449 0.119438 0.119431 0.119426 0.119424 0.119424 0.119426 0.119431 
0.119438 0.119449 0.119463 0.11948 0.119501 0.119522 0.11954 0.119543 0.119505 
0.119379 0.119063 0.118365 0.0635817 0.0639115 0.0640039 0.0640266 0.0639175 0.0639449 
0.0642833 0.0648534 0.0655273 0.0661753 0.0666478 0.0668561 0.066788 0.0663537 0.0655476 
0.0645847 0.0637408 0.0632245 0.0628916 0.0626692 0.0625972 0.0627713 0.0630953 0.0633559 
0.0635115 0.0637103 0.0640261 0.0644021 0.0647551 0.0645686 0.0716142 0.0719372 0.0720052 
0.07201 0.0719321 0.071968 0.07227 0.0728213 0.073522 0.0741966 0.0746548 0.0748871 
0.0749124 0.0746113 0.0739335 0.0730693 0.0723321 0.0718947 0.0716164 0.0713919 0.0712665 
0.071369 0.0716301 0.071831 0.0718947 0.0719825 0.0722317 0.0725713 0.07287 0.0726799 
0.0711329 0.0713314 0.0713772 0.0713943 0.0713327 0.0713362 0.0715419 0.0719552 0.0725136 
0.073049 0.0733468 0.0734789 0.0735291 0.0733577 0.0728555 0.0721773 0.0716415 0.0713987 
0.0712681 0.0711141 0.0709912 0.0710888 0.0713609 0.071563 0.0715801 0.0715977 0.0718003 
0.0720821 0.0723122 0.0722166 0.0685738 0.0687567 0.0688128 0.0688631 0.068787 0.068729 
0.0688379 0.0690924 0.0694535 0.0698026 0.0698963 0.0698835 0.0699225 0.0698498 0.069492 
0.0689749 0.0686296 0.0686078 0.0686497 0.0685859 0.0684854 0.0686267 0.0689698 0.0692159 
0.0692124 0.0691913 0.06938 0.0696064 0.0697651 0.0696682 0.0666449 0.0668475 0.0669378 
0.0670397 0.0669447 0.0668258 0.0668503 0.0669423 0.0670818 0.067239 0.0671296 0.0669621 
0.0669596 0.0669457 0.0666994 0.0663167 0.0661265 0.0662995 0.0664923 0.0665259 0.0664661 
0.0666744 0.0671055 0.0674198 0.0674299 0.0674044 0.0676066 0.0677776 0.0678576 0.0677273 
0.065028 0.0653153 0.0654449 0.0656029 0.0655182 0.0653728 0.0653213 0.065241 0.0651304 
0.0650866 0.0648123 0.0645082 0.0644251 0.064421 0.0642832 0.064057 0.0639971 0.0642931 
0.0645773 0.0647194 0.0647459 0.0650172 0.0654889 0.065864 0.0659439 0.0659628 0.0661833 
0.0662878 0.0662743 0.0660323 0.0611861 0.0616807 0.0618215 0.0620018 0.0619725 0.0618549 
0.0617376 0.0615154 0.0611813 0.0609349 0.0606148 0.0602359 0.0600282 0.0599644 0.0599266 
0.0598758 0.0599011 0.0601825 0.0604686 0.0607047 0.0608894 0.0611858 0.0616029 0.0619988 
0.062217 0.0623378 0.0625438 0.0625968 0.0625158 0.062026 0.0546154 0.0552466 0.0553179 
0.0554411 0.0555081 0.0554673 0.0552929 0.0550084 0.0545797 0.0541192 0.0539405 0.0535932 
0.0532267 0.0530262 0.0530475 0.0531336 0.0531725 0.0532639 0.0534919 0.0537486 0.0541695 
0.0544404 0.054716 0.0550755 0.055479 0.0557551 0.0558693 0.0559291 0.0559006 0.0552192 
0.0443948 0.044778 0.0451164 0.0454107 0.0456617 0.0458701 0.0460369 0.0461631 0.0462499 
0.0462984 0.0463101 0.0462863 0.0462287 0.0461388 0.0460183 0.045869 0.0456927 0.0454911 
0.045266 0.0450192 0.0447524 0.0444672 0.0441651 0.0438476 0.0435157 0.0431706 0.0428132 
0.0424439 0.0420635 0.0416721 0.0444681 0.0448505 0.0451877 0.0454801 0.0457285 0.0459337 
0.0460966 0.0462182 0.0462997 0.0463424 0.0463477 0.0463171 0.0462521 0.0461545 0.046026 
0.0458685 0.0456839 0.0454739 0.0452406 0.0449858 0.0447113 0.0444188 0.0441099 0.0437862 
0.043449 0.0430993 0.0427382 0.0423662 0.0419839 0.0415914 0.0445163 0.0448985 0.045235 
0.0455264 0.0457733 0.0459765 0.046137 0.0462557 0.046334 0.0463729 0.0463741 0.0463389 
0.0462691 0.0461664 0.0460325 0.0458695 0.0456791 0.0454635 0.0452244 0.044964 0.0446841 
0.0443865 0.0440729 0.0437449 0.0434038 0.043051 0.0426872 0.0423134 0.0419299 0.0415369 
0.0445765 0.0449587 0.0452945 0.0455846 0.0458296 0.0460304 0.0461878 0.046303 0.046377 
0.0464113 0.0464072 0.0463663 0.0462904 0.0461812 0.0460405 0.0458704 0.0456729 0.04545 
0.0452038 0.0449364 0.0446497 0.0443456 0.044026 0.0436926 0.0433468 0.04299 0.0426231 
0.0422469 0.0418621 0.0414687 0.0446357 0.0450178 0.045353 0.0456418 0.0458851 0.0460835 
0.046238 0.0463497 0.0464197 0.0464494 0.0464403 0.0463939 0.046312 0.0461964 0.046049 
0.045872 0.0456674 0.0454373 0.0451839 0.0449095 0.0446159 0.0443054 0.0439799 0.043641 
0.0432904 0.0429295 0.0425594 0.0421809 0.0417946 0.0414008 0.0446974 0.0450793 0.0454139 
0.0457016 0.045943 0.0461391 0.0462906 0.0463987 0.0464646 0.0464896 0.0464752 0.0464231 
0.0463349 0.0462127 0.0460583 0.045874 0.0456619 0.0454243 0.0451634 0.0448815 0.0445808 
0.0442634 0.0439315 0.0435869 0.0432312 0.042866 0.0424925 0.0421115 0.0417238 0.0413295 
0.0447598 0.0451417 0.0454756 0.0457621 0.0460019 0.0461956 0.0463442 0.0464488 0.0465105 
0.0465308 0.0465112 0.0464532 0.0463588 0.0462298 0.0460683 0.0458766 0.0456568 0.0454115 
0.0451428 0.0448532 0.0445451 0.0442208 0.0438823 0.0435316 0.0431707 0.0428011 0.042424 
0.0420405 0.0416512 0.0412564 0.0448231 0.045205 0.0455384 0.0458238 0.0460618 0.0462532 
0.0463989 0.0465 0.0465577 0.0465733 0.0465483 0.0464845 0.0463836 0.0462478 0.0460791 
0.0458797 0.0456522 0.0453988 0.0451221 0.0448247 0.0445089 0.0441772 0.0438319 0.0434751 
0.0431087 0.0427344 0.0423536 0.0419674 0.0415765 0.0411813 0.0448871 0.045269 0.0456018 
0.0458861 0.0461225 0.0463117 0.0464546 0.0465522 0.0466058 0.0466168 0.0465865 0.0465168 
0.0464095 0.0462667 0.0460906 0.0458835 0.0456479 0.0453864 0.0451016 0.044796 0.0444723 
0.0441331 0.0437807 0.0434174 0.0430453 0.0426662 0.0422816 0.0418926 0.0415 0.0411043 
0.0449515 0.0453335 0.0456658 0.0459491 0.0461839 0.046371 0.0465111 0.0466054 0.046655 
0.0466613 0.0466258 0.0465502 0.0464364 0.0462866 0.046103 0.045888 0.0456443 0.0453744 
0.0450811 0.0447672 0.0444353 0.0440883 0.0437286 0.0433587 0.0429807 0.0425966 0.042208 
0.0418161 0.0414217 0.0410255 0.0450163 0.0453983 0.0457302 0.0460126 0.0462459 0.0464309 
0.0465685 0.0466595 0.0467052 0.0467069 0.0466662 0.0465847 0.0464644 0.0463075 0.0461163 
0.0458933 0.0456412 0.0453627 0.0450608 0.0447383 0.0443981 0.044043 0.0436758 0.043299 
0.0429149 0.0425256 0.0421328 0.0417379 0.0413417 0.0409449 0.0450813 0.0454634 0.0457949 
0.0460764 0.0463084 0.0464915 0.0466266 0.0467145 0.0467564 0.0467536 0.0467076 0.0466203 
0.0464934 0.0463294 0.0461305 0.0458994 0.0456387 0.0453516 0.0450408 0.0447095 0.0443606 
0.0439973 0.0436223 0.0432383 0.0428479 0.0424533 0.0420561 0.041658 0.04126 0.0408625 
0.0451463 0.0455285 0.0458598 0.0461405 0.0463713 0.0465527 0.0466853 0.0467702 0.0468085 
0.0468013 0.0467502 0.046657 0.0465236 0.0463524 0.0461457 0.0459063 0.045637 0.0453409 
0.0450211 0.0446807 0.044323 0.0439511 0.0435681 0.0431768 0.0427799 0.0423796 0.041978 
0.0415766 0.0411766 0.0407785 0.0452111 0.0455935 0.0459246 0.0462048 0.0464345 0.0466142 
0.0467447 0.0468268 0.0468615 0.04685 0.0467939 0.0466949 0.046555 0.0463765 0.0461619 