# vtk DataFile Version 5.1
vtk output
ASCII
DATASET UNSTRUCTURED_GRID
POINTS 9610 double
0.1016 1.5 0 0.1016 1.45 0 0.1016 1.4 0 
0.1016 1.35 0 0.1016 1.3 0 0.1016 1.25 0 
0.1016 1.2 0 0.1016 1.15 0 0.1016 1.1 0 
0.1016 1.05 0 0.1016 1 0 0.1016 0.95 0 
0.1016 0.9 0 0.1016 0.85 0 0.1016 0.8 0 
0.1016 0.75 0 0.1016 0.7 0 0.1016 0.65 0 
0.1016 0.6 0 0.1016 0.55 0 0.1016 0.5 0 
0.1016 0.45 0 0.1016 0.4 0 0.1016 0.35 0 
0.1016 0.3 0 0.1016 0.25 0 0.1016 0.2 0 
0.1016 0.15 0 0.1016 0.1 0 0.1016 0.05 0 
0.1016 0 0 5.08 1.5 0 5.08 1.45 0 
5.08 1.4 0 5.08 1.35 0 5.08 1.3 0 
5.08 1.25 0 5.08 1.2 0 5.08 1.15 0 
5.08 1.1 0 5.08 1.05 0 5.08 1 0 
5.08 0.95 0 5.08 0.9 0 5.08 0.85 0 
5.08 0.8 0 5.08 0.75 0 5.08 0.7 0 
5.08 0.65 0 5.08 0.6 0 5.08 0.55 0 
5.08 0.5 0 5.08 0.45 0 5.08 0.4 0 
5.08 0.35 0 5.08 0.3 0 5.08 0.25 0 
5.08 0.2 0 5.08 0.15 0 5.08 0.1 0 
5.08 0.05 0 5.08 0 0 0.151384 1.5 0 
0.151384 1.45 0 0.151384 1.4 0 0.151384 1.35 0 
0.151384 1.3 0 0.151384 1.25 0 0.151384 1.2 0 
0.151384 1.15 0 0.151384 1.1 0 0.151384 1.05 0 
0.151384 1 0 0.151384 0.95 0 0.151384 0.9 0 
0.151384 0.85 0 0.151384 0.8 0 0.151384 0.75 0 
0.151384 0.7 0 0.151384 0.65 0 0.151384 0.6 0 
0.151384 0.55 0 0.151384 0.5 0 0.151384 0.45 0 
0.151384 0.4 0 0.151384 0.35 0 0.151384 0.3 0 
0.151384 0.25 0 0.151384 0.2 0 0.151384 0.15 0 
0.151384 0.1 0 0.151384 0.05 0 0.151384 0 0 
0.201168 1.5 0 0.201168 1.45 0 0.201168 1.4 0 
0.201168 1.35 0 0.201168 1.3 0 0.201168 1.25 0 
0.201168 1.2 0 0.201168 1.15 0 0.201168 1.1 0 
0.201168 1.05 0 0.201168 1 0 0.201168 0.95 0 
0.201168 0.9 0 0.201168 0.85 0 0.201168 0.8 0 
0.201168 0.75 0 0.201168 0.7 0 0.201168 0.65 0 
0.201168 0.6 0 0.201168 0.55 0 0.201168 0.5 0 
0.201168 0.45 0 0.201168 0.4 0 0.201168 0.35 0 
0.201168 0.3 0 0.201168 0.25 0 0.201168 0.2 0 
0.201168 0.15 0 0.201168 0.1 0 0.201168 0.05 0 
0.201168 0 0 0.250952 1.5 0 0.250952 1.45 0 
0.250952 1.4 0 0.250952 1.35 0 0.250952 1.3 0 
0.250952 1.25 0 0.250952 1.2 0 0.250952 1.15 0 
0.250952 1.1 0 0.250952 1.05 0 0.250952 1 0 
0.250952 0.95 0 0.250952 0.9 0 0.250952 0.85 0 
0.250952 0.8 0 0.250952 0.75 0 0.250952 0.7 0 
0.250952 0.65 0 0.250952 0.6 0 0.250952 0.55 0 
0.250952 0.5 0 0.250952 0.45 0 0.250952 0.4 0 
0.250952 0.35 0 0.250952 0.3 0 0.250952 0.25 0 
0.250952 0.2 0 0.250952 0.15 0 0.250952 0.1 0 
0.250952 0.05 0 0.250952 0 0 0.300736 1.5 0 
0.300736 1.45 0 0.300736 1.4 0 0.300736 1.35 0 
0.300736 1.3 0 0.300736 1.25 0 0.300736 1.2 0 
0.300736 1.15 0 0.300736 1.1 0 0.300736 1.05 0 
0.300736 1 0 0.300736 0.95 0 0.300736 0.9 0 
0.300736 0.85 0 0.300736 0.8 0 0.300736 0.75 0 
0.300736 0.7 0 0.300736 0.65 0 0.300736 0.6 0 
0.300736 0.55 0 0.300736 0.5 0 0.300736 0.45 0 
0.300736 0.4 0 0.300736 0.35 0 0.300736 0.3 0 
0.300736 0.25 0 0.300736 0.2 0 0.300736 0.15 0 
0.300736 0.1 0 0.300736 0.05 0 0.300736 0 0 
0.35052 1.5 0 0.35052 1.45 0 0.35052 1.4 0 
0.35052 1.35 0 0.35052 1.3 0 0.35052 1.25 0 
0.35052 1.2 0 0.35052 1.15 0 0.35052 1.1 0 
0.35052 1.05 0 0.35052 1 0 0.35052 0.95 0 
0.35052 0.9 0 0.35052 0.85 0 0.35052 0.8 0 
0.35052 0.75 0 0.35052 0.7 0 0.35052 0.65 0 
0.35052 0.6 0 0.35052 0.55 0 0.35052 0.5 0 
0.35052 0.45 0 0.35052 0.4 0 0.35052 0.35 0 
0.35052 0.3 0 0.35052 0.25 0 0.35052 0.2 0 
0.35052 0.15 0 0.35052 0.1 0 0.35052 0.05 0 
0.35052 0 0 0.400304 1.5 0 0.400304 1.45 0 
0.400304 1.4 0 0.400304 1.35 0 0.400304 1.3 0 
0.400304 1.25 0 0.400304 1.2 0 0.400304 1.15 0 
0.400304 1.1 0 0.400304 1.05 0 0.400304 1 0 
0.400304 0.95 0 0.400304 0.9 0 0.400304 0.85 0 
0.400304 0.8 0 0.400304 0.75 0 0.400304 0.7 0 
0.400304 0.65 0 0.400304 0.6 0 0.400304 0.55 0 
0.400304 0.5 0 0.400304 0.45 0 0.400304 0.4 0 
0.400304 0.35 0 0.400304 0.3 0 0.400304 0.25 0 
0.400304 0.2 0 0.400304 0.15 0 0.400304 0.1 0 
0.400304 0.05 0 0.400304 0 0 0.450088 1.5 0 
0.450088 1.45 0 0.450088 1.4 0 0.450088 1.35 0 
0.450088 1.3 0 0.450088 1.25 0 0.450088 1.2 0 
0.450088 1.15 0 0.450088 1.1 0 0.450088 1.05 0 
0.450088 1 0 0.450088 0.95 0 0.450088 0.9 0 
0.450088 0.85 0 0.450088 0.8 0 0.450088 0.75 0 
0.450088 0.7 0 0.450088 0.65 0 0.450088 0.6 0 
0.450088 0.55 0 0.450088 0.5 0 0.450088 0.45 0 
0.450088 0.4 0 0.450088 0.35 0 0.450088 0.3 0 
0.450088 0.25 0 0.450088 0.2 0 0.450088 0.15 0 
0.450088 0.1 0 0.450088 0.05 0 0.450088 0 0 
0.499872 1.5 0 0.499872 1.45 0 0.499872 1.4 0 
0.499872 1.35 0 0.499872 1.3 0 0.499872 1.25 0 
0.499872 1.2 0 0.499872 1.15 0 0.499872 1.1 0 
0.499872 1.05 0 0.499872 1 0 0.499872 0.95 0 
0.499872 0.9 0 0.499872 0.85 0 0.499872 0.8 0 
0.499872 0.75 0 0.499872 0.7 0 0.499872 0.65 0 
0.499872 0.6 0 0.499872 0.55 0 0.499872 0.5 0 
0.499872 0.45 0 0.499872 0.4 0 0.499872 0.35 0 
0.499872 0.3 0 0.499872 0.25 0 0.499872 0.2 0 
0.499872 0.15 0 0.499872 0.1 0 0.499872 0.05 0 
0.499872 0 0 0.549656 1.5 0 0.549656 1.45 0 
0.549656 1.4 0 0.549656 1.35 0 0.549656 1.3 0 
0.549656 1.25 0 0.549656 1.2 0 0.549656 1.15 0 
0.549656 1.1 0 0.549656 1.05 0 0.549656 1 0 
0.549656 0.95 0 0.549656 0.9 0 0.549656 0.85 0 
0.549656 0.8 0 0.549656 0.75 0 0.549656 0.7 0 
0.549656 0.65 0 0.549656 0.6 0 0.549656 0.55 0 
0.549656 0.5 0 0.549656 0.45 0 0.549656 0.4 0 
0.549656 0.35 0 0.549656 0.3 0 0.549656 0.25 0 
0.549656 0.2 0 0.549656 0.15 0 0.549656 0.1 0 
0.549656 0.05 0 0.549656 0 0 0.59944 1.5 0 
0.59944 1.45 0 0.59944 1.4 0 0.59944 1.35 0 
0.59944 1.3 0 0.59944 1.25 0 0.59944 1.2 0 
0.59944 1.15 0 0.59944 1.1 0 0.59944 1.05 0 
0.59944 1 0 0.59944 0.95 0 0.59944 0.9 0 
0.59944 0.85 0 0.59944 0.8 0 0.59944 0.75 0 
0.59944 0.7 0 0.59944 0.65 0 0.59944 0.6 0 
0.59944 0.55 0 0.59944 0.5 0 0.59944 0.45 0 
0.59944 0.4 0 0.59944 0.35 0 0.59944 0.3 0 
0.59944 0.25 0 0.59944 0.2 0 0.59944 0.15 0 
0.59944 0.1 0 0.59944 0.05 0 0.59944 0 0 
0.649224 1.5 0 0.649224 1.45 0 0.649224 1.4 0 
0.649224 1.35 0 0.649224 1.3 0 0.649224 1.25 0 
0.649224 1.2 0 0.649224 1.15 0 0.649224 1.1 0 
0.649224 1.05 0 0.649224 1 0 0.649224 0.95 0 
0.649224 0.9 0 0.649224 0.85 0 0.649224 0.8 0 
0.649224 0.75 0 0.649224 0.7 0 0.649224 0.65 0 
0.649224 0.6 0 0.649224 0.55 0 0.649224 0.5 0 
0.649224 0.45 0 0.649224 0.4 0 0.649224 0.35 0 
0.649224 0.3 0 0.649224 0.25 0 0.649224 0.2 0 
0.649224 0.15 0 0.649224 0.1 0 0.649224 0.05 0 
0.649224 0 0 0.699008 1.5 0 0.699008 1.45 0 
0.699008 1.4 0 0.699008 1.35 0 0.699008 1.3 0 
0.699008 1.25 0 0.699008 1.2 0 0.699008 1.15 0 
0.699008 1.1 0 0.699008 1.05 0 0.699008 1 0 
0.699008 0.95 0 0.699008 0.9 0 0.699008 0.85 0 
0.699008 0.8 0 0.699008 0.75 0 0.699008 0.7 0 
0.699008 0.65 0 0.699008 0.6 0 0.699008 0.55 0 
0.699008 0.5 0 0.699008 0.45 0 0.699008 0.4 0 
0.699008 0.35 0 0.699008 0.3 0 0.699008 0.25 0 
0.699008 0.2 0 0.699008 0.15 0 0.699008 0.1 0 
0.699008 0.05 0 0.699008 0 0 0.748792 1.5 0 
0.748792 1.45 0 0.748792 1.4 0 0.748792 1.35 0 
0.748792 1.3 0 0.748792 1.25 0 0.748792 1.2 0 
0.748792 1.15 0 0.748792 1.1 0 0.748792 1.05 0 
0.748792 1 0 0.748792 0.95 0 0.748792 0.9 0 
0.748792 0.85 0 0.748792 0.8 0 0.748792 0.75 0 
0.748792 0.7 0 0.748792 0.65 0 0.748792 0.6 0 
0.748792 0.55 0 0.748792 0.5 0 0.748792 0.45 0 
0.748792 0.4 0 0.748792 0.35 0 0.748792 0.3 0 
0.748792 0.25 0 0.748792 0.2 0 0.748792 0.15 0 
0.748792 0.1 0 0.748792 0.05 0 0.748792 0 0 
0.798576 1.5 0 0.798576 1.45 0 0.798576 1.4 0 
0.798576 1.35 0 0.798576 1.3 0 0.798576 1.25 0 
0.798576 1.2 0 0.798576 1.15 0 0.798576 1.1 0 
0.798576 1.05 0 0.798576 1 0 0.798576 0.95 0 
0.798576 0.9 0 0.798576 0.85 0 0.798576 0.8 0 
0.798576 0.75 0 0.798576 0.7 0 0.798576 0.65 0 
0.798576 0.6 0 0.798576 0.55 0 0.798576 0.5 0 
0.798576 0.45 0 0.798576 0.4 0 0.798576 0.35 0 
0.798576 0.3 0 0.798576 0.25 0 0.798576 0.2 0 
0.798576 0.15 0 0.798576 0.1 0 0.798576 0.05 0 
0.798576 0 0 0.84836 1.5 0 0.84836 1.45 0 
0.84836 1.4 0 0.84836 1.35 0 0.84836 1.3 0 
0.84836 1.25 0 0.84836 1.2 0 0.84836 1.15 0 
0.84836 1.1 0 0.84836 1.05 0 0.84836 1 0 
0.84836 0.95 0 0.84836 0.9 0 0.84836 0.85 0 
0.84836 0.8 0 0.84836 0.75 0 0.84836 0.7 0 
0.84836 0.65 0 0.84836 0.6 0 0.84836 0.55 0 
0.84836 0.5 0 0.84836 0.45 0 0.84836 0.4 0 
0.84836 0.35 0 0.84836 0.3 0 0.84836 0.25 0 
0.84836 0.2 0 0.84836 0.15 0 0.84836 0.1 0 
0.84836 0.05 0 0.84836 0 0 0.898144 1.5 0 
0.898144 1.45 0 0.898144 1.4 0 0.898144 1.35 0 
0.898144 1.3 0 0.898144 1.25 0 0.898144 1.2 0 
0.898144 1.15 0 0.898144 1.1 0 0.898144 1.05 0 
0.898144 1 0 0.898144 0.95 0 0.898144 0.9 0 
0.898144 0.85 0 0.898144 0.8 0 0.898144 0.75 0 
0.898144 0.7 0 0.898144 0.65 0 0.898144 0.6 0 
0.898144 0.55 0 0.898144 0.5 0 0.898144 0.45 0 
0.898144 0.4 0 0.898144 0.35 0 0.898144 0.3 0 
0.898144 0.25 0 0.898144 0.2 0 0.898144 0.15 0 
0.898144 0.1 0 0.898144 0.05 0 0.898144 0 0 
0.947928 1.5 0 0.947928 1.45 0 0.947928 1.4 0 
0.947928 1.35 0 0.947928 1.3 0 0.947928 1.25 0 
0.947928 1.2 0 0.947928 1.15 0 0.947928 1.1 0 
0.947928 1.05 0 0.947928 1 0 0.947928 0.95 0 
0.947928 0.9 0 0.947928 0.85 0 0.947928 0.8 0 
0.947928 0.75 0 0.947928 0.7 0 0.947928 0.65 0 
0.947928 0.6 0 0.947928 0.55 0 0.947928 0.5 0 
0.947928 0.45 0 0.947928 0.4 0 0.947928 0.35 0 
0.947928 0.3 0 0.947928 0.25 0 0.947928 0.2 0 
0.947928 0.15 0 0.947928 0.1 0 0.947928 0.05 0 
0.947928 0 0 0.997712 1.5 0 0.997712 1.45 0 
0.997712 1.4 0 0.997712 1.35 0 0.997712 1.3 0 
0.997712 1.25 0 0.997712 1.2 0 0.997712 1.15 0 
0.997712 1.1 0 0.997712 1.05 0 0.997712 1 0 
0.997712 0.95 0 0.997712 0.9 0 0.997712 0.85 0 
0.997712 0.8 0 0.997712 0.75 0 0.997712 0.7 0 
0.997712 0.65 0 0.997712 0.6 0 0.997712 0.55 0 
0.997712 0.5 0 0.997712 0.45 0 0.997712 0.4 0 
0.997712 0.35 0 0.997712 0.3 0 0.997712 0.25 0 
0.997712 0.2 0 0.997712 0.15 0 0.997712 0.1 0 
0.997712 0.05 0 0.997712 0 0 1.047496 1.5 0 
1.047496 1.45 0 1.047496 1.4 0 1.047496 1.35 0 
1.047496 1.3 0 1.047496 1.25 0 1.047496 1.2 0 
1.047496 1.15 0 1.047496 1.1 0 1.047496 1.05 0 
1.047496 1 0 1.047496 0.95 0 1.047496 0.9 0 
1.047496 0.85 0 1.047496 0.8 0 1.047496 0.75 0 
1.047496 0.7 0 1.047496 0.65 0 1.047496 0.6 0 
1.047496 0.55 0 1.047496 0.5 0 1.047496 0.45 0 
1.047496 0.4 0 1.047496 0.35 0 1.047496 0.3 0 
1.047496 0.25 0 1.047496 0.2 0 1.047496 0.15 0 
[...]
CELL_DATA 9270
FIELD FieldData 7
B_Stress_n_p_m2 1 9270 float
0.397045 0.38595 0.390931 0.392642 0.392224 0.392135 0.392025 0.391974 0.391951 
0.39195 0.391961 0.391981 0.392007 0.392037 0.392067 0.392067 0.392037 0.392007 
0.391981 0.391961 0.39195 0.391951 0.391974 0.392025 0.392135 0.392224 0.392642 
0.390931 0.38595 0.397045 0.137928 0.135518 0.152127 0.151257 0.150876 0.150119 
0.149633 0.149288 0.149051 0.148888 0.148774 0.148698 0.148649 0.148621 0.148609 
0.148609 0.148621 0.148649 0.148698 0.148774 0.148888 0.149051 0.149288 0.149633 
0.150119 0.150876 0.151257 0.152127 0.135518 0.137928 0.141935 0.17248 0.180606 
0.180117 0.178898 0.177797 0.177029 0.176486 0.176095 0.175815 0.175609 0.175462 
0.175358 0.175291 0.175256 0.175256 0.175291 0.175358 0.175462 0.175609 0.175815 
0.176095 0.176486 0.177029 0.177797 0.178898 0.180117 0.180606 0.17248 0.141935 
0.129864 0.167086 0.176198 0.176382 0.175217 0.174097 0.173254 0.172639 0.172184 
0.171851 0.171605 0.171428 0.171305 0.171227 0.17119 0.17119 0.171227 0.171305 
0.171428 0.171605 0.171851 0.172184 0.172639 0.173254 0.174097 0.175217 0.176382 
0.176198 0.167086 0.129864 0.126656 0.166983 0.176709 0.177485 0.176483 0.175442 
0.174603 0.173968 0.173482 0.173116 0.17284 0.172639 0.172496 0.172406 0.172362 
0.172362 0.172406 0.172496 0.172639 0.17284 0.173116 0.173482 0.173968 0.174603 
0.175442 0.176483 0.177485 0.176709 0.166983 0.126656 0.124315 0.165707 0.176082 
0.177319 0.176552 0.175645 0.174868 0.174257 0.173774 0.173402 0.173116 0.172904 
0.172753 0.172657 0.17261 0.17261 0.172657 0.172753 0.172904 0.173116 0.173402 
0.173774 0.174257 0.174868 0.175645 0.176552 0.177319 0.176082 0.165707 0.124315 
0.123055 0.164803 0.175589 0.177148 0.1766 0.175834 0.175142 0.174579 0.174122 
0.173761 0.173478 0.173266 0.173113 0.173014 0.172966 0.172966 0.173014 0.173113 
0.173266 0.173478 0.173761 0.174122 0.174579 0.175142 0.175834 0.1766 0.177148 
0.175589 0.164803 0.123055 0.122287 0.164088 0.175116 0.176891 0.176524 0.175889 
0.175287 0.174783 0.174363 0.174024 0.173754 0.173548 0.173399 0.173302 0.173254 
0.173254 0.173302 0.173399 0.173548 0.173754 0.174024 0.174363 0.174783 0.175287 
0.175889 0.176524 0.176891 0.175116 0.164088 0.122287 0.121851 0.163565 0.174713 
0.176628 0.176404 0.17588 0.175364 0.174919 0.174541 0.17423 0.17398 0.173786 
0.173644 0.173551 0.173506 0.173506 0.173551 0.173644 0.173786 0.17398 0.17423 
0.174541 0.174919 0.175364 0.17588 0.176404 0.176628 0.174713 0.163565 0.121851 
0.12163 0.163187 0.174376 0.17638 0.176262 0.17583 0.175389 0.175001 0.174666 
0.174386 0.174157 0.173978 0.173846 0.173759 0.173716 0.173716 0.173759 0.173846 
0.173978 0.174157 0.174386 0.174666 0.175001 0.175389 0.17583 0.176262 0.17638 
0.174376 0.163187 0.12163 0.12156 0.162922 0.174099 0.176154 0.176117 0.175758 
0.175381 0.175044 0.174749 0.1745 0.174294 0.174131 0.17401 0.17393 0.173891 
0.173891 0.17393 0.17401 0.174131 0.174294 0.1745 0.174749 0.175044 0.175381 
0.175758 0.176117 0.176154 0.174099 0.162922 0.12156 0.1216 0.162741 0.173874 
0.175954 0.175975 0.175675 0.175352 0.175059 0.174801 0.17458 0.174396 0.17425 
0.17414 0.174068 0.174032 0.174032 0.174068 0.17414 0.17425 0.174396 0.17458 
0.174801 0.175059 0.175352 0.175675 0.175975 0.175954 0.173874 0.162741 0.1216 
0.121712 0.162635 0.17369 0.175778 0.175842 0.175588 0.175308 0.175054 0.174828 
0.174633 0.17447 0.174339 0.174241 0.174176 0.174143 0.174143 0.174176 0.174241 
0.174339 0.17447 0.174633 0.174828 0.175054 0.175308 0.175588 0.175842 0.175778 
0.17369 0.162635 0.121712 0.121879 0.162585 0.173543 0.175624 0.175718 0.1755 
0.175256 0.175034 0.174836 0.174664 0.174519 0.174403 0.174316 0.174257 0.174228 
0.174228 0.174257 0.174316 0.174403 0.174519 0.174664 0.174836 0.175034 0.175256 
0.1755 0.175718 0.175624 0.173543 0.162585 0.121879 0.122088 0.16258 0.173427 
0.175488 0.175603 0.175414 0.175199 0.175004 0.174829 0.174678 0.17455 0.174447 
0.174369 0.174317 0.174291 0.174291 0.174317 0.174369 0.174447 0.17455 0.174678 
0.174829 0.175004 0.175199 0.175414 0.175603 0.175488 0.173427 0.16258 0.122088 
0.122331 0.162608 0.173334 0.175369 0.175497 0.17533 0.17514 0.174966 0.174812 
0.174678 0.174564 0.174473 0.174403 0.174357 0.174334 0.174334 0.174357 0.174403 
0.174473 0.174564 0.174678 0.174812 0.174966 0.17514 0.17533 0.175497 0.175369 
0.173334 0.162608 0.122331 0.1226 0.162662 0.173261 0.175263 0.1754 0.17525 
0.175079 0.174924 0.174786 0.174666 0.174565 0.174484 0.174422 0.174381 0.17436 
0.17436 0.174381 0.174422 0.174484 0.174565 0.174666 0.174786 0.174924 0.175079 
0.17525 0.1754 0.175263 0.173261 0.162662 0.1226 0.122891 0.162737 0.173203 
0.175169 0.175309 0.175173 0.175017 0.174877 0.174753 0.174646 0.174556 0.174483 
0.174428 0.174391 0.174372 0.174372 0.174391 0.174428 0.174483 0.174556 0.174646 
0.174753 0.174877 0.175017 0.175173 0.175309 0.175169 0.173203 0.162737 0.122891 
0.1232 0.162829 0.173157 0.175083 0.175224 0.175098 0.174955 0.174828 0.174715 
0.174619 0.174537 0.174472 0.174422 0.174389 0.174372 0.174372 0.174389 0.174422 
0.174472 0.174537 0.174619 0.174715 0.174828 0.174955 0.175098 0.175224 0.175083 
0.173157 0.162829 0.1232 0.123524 0.162934 0.173122 0.175006 0.175144 0.175027 
0.174894 0.174776 0.174673 0.174585 0.174512 0.174452 0.174408 0.174378 0.174363 
0.174363 0.174378 0.174408 0.174452 0.174512 0.174585 0.174673 0.174776 0.174894 
0.175027 0.175144 0.175006 0.173122 0.162934 0.123524 0.123861 0.16305 0.173094 
0.174934 0.175069 0.174957 0.174833 0.174723 0.174628 0.174548 0.17448 0.174426 
0.174385 0.174358 0.174345 0.174345 0.174358 0.174385 0.174426 0.17448 0.174548 
0.174628 0.174723 0.174833 0.174957 0.175069 0.174934 0.173094 0.16305 0.123861 
0.124209 0.163174 0.173072 0.174867 0.174997 0.17489 0.174772 0.174669 0.174581 
0.174506 0.174444 0.174394 0.174357 0.174332 0.17432 0.17432 0.174332 0.174357 
0.174394 0.174444 0.174506 0.174581 0.174669 0.174772 0.17489 0.174997 0.174867 
0.173072 0.163174 0.124209 0.124568 0.163304 0.173056 0.174804 0.174928 0.174824 
0.174711 0.174614 0.174531 0.174461 0.174403 0.174358 0.174323 0.1743 0.174289 
0.174289 0.1743 0.174323 0.174358 0.174403 0.174461 0.174531 0.174614 0.174711 
0.174824 0.174928 0.174804 0.173056 0.163304 0.124568 0.124934 0.163441 0.173042 
0.174744 0.174861 0.17476 0.174651 0.174558 0.17448 0.174414 0.17436 0.174317 
0.174285 0.174264 0.174253 0.174253 0.174264 0.174285 0.174317 0.17436 0.174414 
0.17448 0.174558 0.174651 0.17476 0.174861 0.174744 0.173042 0.163441 0.124934 
0.125309 0.163581 0.173032 0.174686 0.174795 0.174696 0.174591 0.174502 0.174427 
0.174365 0.174314 0.174273 0.174243 0.174223 0.174213 0.174213 0.174223 0.174243 
0.174273 0.174314 0.174365 0.174427 0.174502 0.174591 0.174696 0.174795 0.174686 
0.173032 0.163581 0.125309 0.12569 0.163725 0.173024 0.17463 0.174732 0.174634 
0.174531 0.174445 0.174373 0.174314 0.174265 0.174227 0.174198 0.174179 0.17417 
0.17417 0.174179 0.174198 0.174227 0.174265 0.174314 0.174373 0.174445 0.174531 
0.174634 0.174732 0.17463 0.173024 0.163725 0.12569 0.126079 0.163871 0.173018 
0.174576 0.174669 0.174572 0.174472 0.174388 0.174319 0.174261 0.174215 0.174178 
0.174151 0.174133 0.174124 0.174124 0.174133 0.174151 0.174178 0.174215 0.174261 
0.174319 0.174388 0.174472 0.174572 0.174669 0.174576 0.173018 0.163871 0.126079 
0.126473 0.16402 0.173012 0.174523 0.174608 0.174511 0.174413 0.174331 0.174263 
0.174208 0.174163 0.174127 0.174101 0.174084 0.174076 0.174076 0.174084 0.174101 
0.174127 0.174163 0.174208 0.174263 0.174331 0.174413 0.174511 0.174608 0.174523 
0.173012 0.16402 0.126473 0.126873 0.16417 0.173008 0.174471 0.174547 0.17445 
0.174353 0.174273 0.174207 0.174153 0.174109 0.174075 0.17405 0.174034 0.174025 
0.174025 0.174034 0.17405 0.174075 0.174109 0.174153 0.174207 0.174273 0.174353 
0.17445 0.174547 0.174471 0.173008 0.16417 0.126873 0.127278 0.164321 0.173003 
0.17442 0.174487 0.17439 0.174294 0.174215 0.17415 0.174098 0.174055 0.174022 
0.173998 0.173981 0.173973 0.173973 0.173981 0.173998 0.174022 0.174055 0.174098 
0.17415 0.174215 0.174294 0.17439 0.174487 0.17442 0.173003 0.164321 0.127278 
0.127689 0.164473 0.172999 0.174368 0.174427 0.174329 0.174235 0.174157 0.174093 
0.174041 0.174 0.173967 0.173944 0.173928 0.17392 0.17392 0.173928 0.173944 
0.173967 0.174 0.174041 0.174093 0.174157 0.174235 0.174329 0.174427 0.174368 
0.172999 0.164473 0.127689 0.128105 0.164626 0.172995 0.174317 0.174368 0.174269 
0.174175 0.174099 0.174036 0.173985 0.173944 0.173912 0.173889 0.173873 0.173866 
0.173866 0.173873 0.173889 0.173912 0.173944 0.173985 0.174036 0.174099 0.174175 
0.174269 0.174368 0.174317 0.172995 0.164626 0.128105 0.128526 0.164779 0.172991 
0.174267 0.174309 0.174209 0.174116 0.17404 0.173978 0.173927 0.173887 0.173856 
0.173833 0.173818 0.17381 0.17381 0.173818 0.173833 0.173856 0.173887 0.173927 
0.173978 0.17404 0.174116 0.174209 0.174309 0.174267 0.172991 0.164779 0.128526 
0.128952 0.164933 0.172986 0.174216 0.174249 0.17415 0.174057 0.173981 0.173919 
0.17387 0.17383 0.173799 0.173777 0.173762 0.173754 0.173754 0.173762 0.173777 
0.173799 0.17383 0.17387 0.173919 0.173981 0.174057 0.17415 0.174249 0.174216 
0.172986 0.164933 0.128952 0.129383 0.165086 0.17298 0.174165 0.17419 0.17409 
0.173997 0.173922 0.173861 0.173811 0.173772 0.173742 0.173719 0.173705 0.173697 
0.173697 0.173705 0.173719 0.173742 0.173772 0.173811 0.173861 0.173922 0.173997 
0.17409 0.17419 0.174165 0.17298 0.165086 0.129383 0.129818 0.165239 0.172974 
0.174114 0.174131 0.17403 0.173938 0.173863 0.173802 0.173753 0.173714 0.173684 
0.173662 0.173647 0.17364 0.17364 0.173647 0.173662 0.173684 0.173714 0.173753 
0.173802 0.173863 0.173938 0.17403 0.174131 0.174114 0.172974 0.165239 0.129818 
0.130259 0.165392 0.172968 0.174063 0.174072 0.17397 0.173878 0.173803 0.173743 
0.173694 0.173655 0.173625 0.173603 0.173589 0.173582 0.173582 0.173589 0.173603 
0.173625 0.173655 0.173694 0.173743 0.173803 0.173878 0.17397 0.174072 0.174063 
0.172968 0.165392 0.130259 0.130704 0.165544 0.17296 0.174011 0.174013 0.17391 
0.173818 0.173744 0.173684 0.173635 0.173596 0.173567 0.173545 0.17353 0.173523 
0.173523 0.17353 0.173545 0.173567 0.173596 0.173635 0.173684 0.173744 0.173818 
0.17391 0.174013 0.174011 0.17296 0.165544 0.130704 0.131154 0.165696 0.172952 
0.17396 0.173954 0.17385 0.173758 0.173684 0.173624 0.173575 0.173537 0.173507 
0.173486 0.173471 0.173464 0.173464 0.173471 0.173486 0.173507 0.173537 0.173575 
0.173624 0.173684 0.173758 0.17385 0.173954 0.17396 0.172952 0.165696 0.131154 
0.131609 0.165848 0.172943 0.173908 0.173894 0.17379 0.173698 0.173624 0.173564 
0.173516 0.173478 0.173448 0.173426 0.173412 0.173405 0.173405 0.173412 0.173426 
0.173448 0.173478 0.173516 0.173564 0.173624 0.173698 0.17379 0.173894 0.173908 
0.172943 0.165848 0.131609 0.132069 0.165998 0.172933 0.173855 0.173835 0.173729 
0.173638 0.173564 0.173504 0.173456 0.173418 0.173388 0.173367 0.173353 0.173346 
0.173346 0.173353 0.173367 0.173388 0.173418 0.173456 0.173504 0.173564 0.173638 
0.173729 0.173835 0.173855 0.172933 0.165998 0.132069 0.132534 0.166148 0.172922 
0.173803 0.173775 0.173669 0.173577 0.173503 0.173444 0.173396 0.173358 0.173328 
0.173307 0.173293 0.173286 0.173286 0.173293 0.173307 0.173328 0.173358 0.173396 
0.173444 0.173503 0.173577 0.173669 0.173775 0.173803 0.172922 0.166148 0.132534 
0.133003 0.166297 0.17291 0.17375 0.173715 0.173608 0.173517 0.173443 0.173383 
0.173335 0.173297 0.173268 0.173247 0.173232 0.173226 0.173226 0.173232 0.173247 
0.173268 0.173297 0.173335 0.173383 0.173443 0.173517 0.173608 0.173715 0.17375 
0.17291 0.166297 0.133003 0.133478 0.166445 0.172897 0.173696 0.173655 0.173547 
0.173456 0.173382 0.173323 0.173275 0.173237 0.173207 0.173186 0.173172 0.173165 
0.173165 0.173172 0.173186 0.173207 0.173237 0.173275 0.173323 0.173382 0.173456 
0.173547 0.173655 0.173696 0.172897 0.166445 0.133478 0.133958 0.166593 0.172882 
0.173642 0.173595 0.173486 0.173395 0.173321 0.173262 0.173214 0.173176 0.173147 
0.173125 0.173111 0.173104 0.173104 0.173111 0.173125 0.173147 0.173176 0.173214 
0.173262 0.173321 0.173395 0.173486 0.173595 0.173642 0.172882 0.166593 0.133958 
0.134442 0.166739 0.172867 0.173588 0.173535 0.173425 0.173334 0.17326 0.173201 
0.173153 0.173115 0.173086 0.173064 0.17305 0.173044 0.173044 0.17305 0.173064 
0.173086 0.173115 0.173153 0.173201 0.17326 0.173334 0.173425 0.173535 0.173588 
0.172867 0.166739 0.134442 0.134932 0.166884 0.172851 0.173533 0.173474 0.173364 
0.173273 0.173199 0.17314 0.173092 0.173054 0.173025 0.173003 0.172989 0.172982 
0.172982 0.172989 0.173003 0.173025 0.173054 0.173092 0.17314 0.173199 0.173273 
0.173364 0.173474 0.173533 0.172851 0.166884 0.134932 0.135428 0.167028 0.172834 
0.173478 0.173413 0.173303 0.173211 0.173138 0.173078 0.17303 0.172993 0.172963 
0.172942 0.172928 0.172921 0.172921 0.172928 0.172942 0.172963 0.172993 0.17303 
0.173078 0.173138 0.173211 0.173303 0.173413 0.173478 0.172834 0.167028 0.135428 
0.135928 0.16717 0.172815 0.173423 0.173353 0.173241 0.17315 0.173076 0.173017 
0.172969 0.172931 0.172902 0.172881 0.172866 0.17286 0.17286 0.172866 0.172881 
0.172902 0.172931 0.172969 0.173017 0.173076 0.17315 0.173241 0.173353 0.173423 
0.172815 0.16717 0.135928 0.136434 0.167312 0.172796 0.173367 0.173291 0.17318 
0.173088 0.173014 0.172955 0.172907 0.172869 0.17284 0.172819 0.172805 0.172798 
0.172798 0.172805 0.172819 0.17284 0.172869 0.172907 0.172955 0.173014 0.173088 
0.17318 0.173291 0.173367 0.172796 0.167312 0.136434 0.136945 0.167452 0.172775 
0.173311 0.17323 0.173118 0.173026 0.172952 0.172893 0.172845 0.172808 0.172778 
0.172757 0.172743 0.172736 0.172736 0.172743 0.172757 0.172778 0.172808 0.172845 
0.172893 0.172952 0.173026 0.173118 0.17323 0.173311 0.172775 0.167452 0.136945 
0.137462 0.16759 0.172753 0.173254 0.173169 0.173056 0.172964 0.17289 0.172831 
0.172783 0.172745 0.172716 0.172695 0.172681 0.172674 0.172674 0.172681 0.172695 
0.172716 0.172745 0.172783 0.172831 0.17289 0.172964 0.173056 0.173169 0.173254 
0.172753 0.16759 0.137462 0.137985 0.167728 0.17273 0.173197 0.173107 0.172994 
0.172902 0.172828 0.172769 0.172721 0.172683 0.172654 0.172633 0.172618 0.172612 
0.172612 0.172618 0.172633 0.172654 0.172683 0.172721 0.172769 0.172828 0.172902 
0.172994 0.173107 0.173197 0.17273 0.167728 0.137985 0.138513 0.167863 0.172706 
0.173139 0.173045 0.172931 0.17284 0.172766 0.172707 0.172658 0.172621 0.172591 
0.17257 0.172556 0.172549 0.172549 0.172556 0.17257 0.172591 0.172621 0.172658 
0.172707 0.172766 0.17284 0.172931 0.173045 0.173139 0.172706 0.167863 0.138513 
0.139046 0.167997 0.172681 0.173082 0.172983 0.172869 0.172777 0.172703 0.172644 
0.172596 0.172558 0.172529 0.172508 0.172493 0.172487 0.172487 0.172493 0.172508 
0.172529 0.172558 0.172596 0.172644 0.172703 0.172777 0.172869 0.172983 0.173082 
0.172681 0.167997 0.139046 0.139586 0.168129 0.172654 0.173023 0.172921 0.172806 
0.172715 0.17264 0.172581 0.172533 0.172495 0.172466 0.172445 0.172431 0.172424 
0.172424 0.172431 0.172445 0.172466 0.172495 0.172533 0.172581 0.17264 0.172715 
0.172806 0.172921 0.173023 0.172654 0.168129 0.139586 0.140132 0.16826 0.172626 
0.172965 0.172858 0.172743 0.172652 0.172578 0.172519 0.17247 0.172433 0.172403 
0.172382 0.172368 0.172361 0.172361 0.172368 0.172382 0.172403 0.172433 0.17247 
0.172519 0.172578 0.172652 0.172743 0.172858 0.172965 0.172626 0.16826 0.140132 
0.140683 0.168388 0.172597 0.172906 0.172795 0.17268 0.172589 0.172514 0.172455 
0.172407 0.17237 0.17234 0.172319 0.172305 0.172298 0.172298 0.172305 0.172319 
0.17234 0.17237 0.172407 0.172455 0.172514 0.172589 0.17268 0.172795 0.172906 
0.172597 0.168388 0.140683 0.14124 0.168515 0.172567 0.172846 0.172733 0.172617 
0.172526 0.172451 0.172392 0.172344 0.172306 0.172277 0.172256 0.172241 0.172234 
0.172234 0.172241 0.172256 0.172277 0.172306 0.172344 0.172392 0.172451 0.172526 
0.172617 0.172733 0.172846 0.172567 0.168515 0.14124 0.141804 0.16864 0.172536 
0.172786 0.17267 0.172554 0.172462 0.172388 0.172329 0.172281 0.172243 0.172213 
0.172192 0.172178 0.172171 0.172171 0.172178 0.172192 0.172213 0.172243 0.172281 
0.172329 0.172388 0.172462 0.172554 0.17267 0.172786 0.172536 0.16864 0.141804 
0.142374 0.168762 0.172504 0.172726 0.172606 0.17249 0.172399 0.172324 0.172265 
0.172217 0.172179 0.17215 0.172129 0.172114 0.172108 0.172108 0.172114 0.172129 
0.17215 0.172179 0.172217 0.172265 0.172324 0.172399 0.17249 0.172606 0.172726 
0.172504 0.168762 0.142374 0.14295 0.168883 0.17247 0.172666 0.172543 0.172426 
0.172335 0.172261 0.172202 0.172153 0.172116 0.172086 0.172065 0.172051 0.172044 
0.172044 0.172051 0.172065 0.172086 0.172116 0.172153 0.172202 0.172261 0.172335 
0.172426 0.172543 0.172666 0.17247 0.168883 0.14295 0.143533 0.169001 0.172435 
0.172605 0.172479 0.172363 0.172271 0.172197 0.172138 0.172089 0.172052 0.172022 
0.172001 0.171987 0.17198 0.17198 0.171987 0.172001 0.172022 0.172052 0.172089 
0.172138 0.172197 0.172271 0.172363 0.172479 0.172605 0.172435 0.169001 0.143533 
0.144122 0.169117 0.172399 0.172544 0.172416 0.172299 0.172207 0.172133 0.172074 
0.172025 0.171988 0.171958 0.171937 0.171923 0.171916 0.171916 0.171923 0.171937 
0.171958 0.171988 0.172025 0.172074 0.172133 0.172207 0.172299 0.172416 0.172544 
0.172399 0.169117 0.144122 0.144718 0.16923 0.172362 0.172482 0.172352 0.172234 
0.172143 0.172069 0.17201 0.171961 0.171924 0.171894 0.171873 0.171859 0.171852 
0.171852 0.171859 0.171873 0.171894 0.171924 0.171961 0.17201 0.172069 0.172143 
0.172234 0.172352 0.172482 0.172362 0.16923 0.144718 0.14532 0.169341 0.172323 
0.17242 0.172287 0.17217 0.172079 0.172004 0.171945 0.171897 0.171859 0.17183 
0.171808 0.171794 0.171787 0.171787 0.171794 0.171808 0.17183 0.171859 0.171897 
0.171945 0.172004 0.172079 0.17217 0.172287 0.17242 0.172323 0.169341 0.14532 
0.145929 0.169449 0.172283 0.172358 0.172223 0.172106 0.172015 0.17194 0.171881 
0.171833 0.171795 0.171765 0.171744 0.17173 0.171723 0.171723 0.17173 0.171744 
0.171765 0.171795 0.171833 0.171881 0.17194 0.172015 0.172106 0.172223 0.172358 
0.172283 0.169449 0.145929 0.146546 0.169555 0.172243 0.172295 0.172159 0.172041 
0.17195 0.171875 0.171816 0.171768 0.17173 0.171701 0.171679 0.171665 0.171658 
0.171658 0.171665 0.171679 0.171701 0.17173 0.171768 0.171816 0.171875 0.17195 
0.172041 0.172159 0.172295 0.172243 0.169555 0.146546 0.147169 0.169657 0.1722 
0.172232 0.172094 0.171976 0.171885 0.171811 0.171752 0.171703 0.171666 0.171636 
0.171615 0.171601 0.171594 0.171594 0.171601 0.171615 0.171636 0.171666 0.171703 
0.171752 0.171811 0.171885 0.171976 0.172094 0.172232 0.1722 0.169657 0.147169 
0.147799 0.169757 0.172157 0.172169 0.172029 0.171911 0.17182 0.171746 0.171687 
0.171638 0.171601 0.171571 0.17155 0.171536 0.171529 0.171529 0.171536 0.17155 
0.171571 0.171601 0.171638 0.171687 0.171746 0.17182 0.171911 0.172029 0.172169 
0.172157 0.169757 0.147799 0.148436 0.169854 0.172112 0.172105 0.171964 0.171846 
0.171755 0.171681 0.171622 0.171573 0.171536 0.171506 0.171485 0.171471 0.171464 
0.171464 0.171471 0.171485 0.171506 0.171536 0.171573 0.171622 0.171681 0.171755 
0.171846 0.171964 0.172105 0.172112 0.169854 0.148436 0.149081 0.169947 0.172067 
0.172041 0.171899 0.171781 0.17169 0.171615 0.171557 0.171508 0.171471 0.171441 
0.17142 0.171406 0.171399 0.171399 0.171406 0.17142 0.171441 0.171471 0.171508 
0.171557 0.171615 0.17169 0.171781 0.171899 0.172041 0.172067 0.169947 0.149081 
0.149733 0.170037 0.17202 0.171977 0.171833 0.171715 0.171625 0.17155 0.171491 
0.171443 0.171406 0.171376 0.171355 0.171341 0.171334 0.171334 0.171341 0.171355 
0.171376 0.171406 0.171443 0.171491 0.17155 0.171625 0.171715 0.171833 0.171977 
0.17202 0.170037 0.149733 0.150392 0.170124 0.171971 0.171912 0.171768 0.171649 
0.171559 0.171485 0.171426 0.171378 0.17134 0.171311 0.17129 0.171276 0.171269 
0.171269 0.171276 0.17129 0.171311 0.17134 0.171378 0.171426 0.171485 0.171559 