# vtk DataFile Version 5.1
vtk output
ASCII
DATASET UNSTRUCTURED_GRID
POINTS 10043 double
-10.1 1.4499999993 -3.1683089219e-07 -10.049999999 1.4499999993 -1.9979982824e-07 -10.049999999 1.5 7.3252681432e-07 
-9.9999999985 1.4499999993 -1.5377302987e-07 -9.9999999985 1.5 5.7977899814e-07 -9.9499999978 1.4499999993 -1.3029988111e-07 
-9.9499999978 1.5 4.9448112804e-07 -9.899999997 1.4499999993 -1.1525775534e-07 -9.899999997 1.5 4.387336503e-07 
-9.8499999963 1.4499999993 -1.0465395661e-07 -9.8499999963 1.5 3.9890323933e-07 -9.7999999955 1.4499999993 -9.6690421003e-08 
-9.7999999955 1.5 3.688335255e-07 -9.7499999948 1.4499999993 -9.0487667137e-08 -9.7499999948 1.5 3.4527306525e-07 
-9.699999994 1.4499999993 -8.5529102023e-08 -9.699999994 1.5 3.2626644497e-07 -9.6499999933 1.4499999993 -8.1365435278e-08 
-9.6499999933 1.5 3.1054219107e-07 -9.5999999925 1.4499999993 -7.7907536422e-08 -9.5999999925 1.5 2.9739271667e-07 
-9.5499999918 1.4499999993 -7.4979872977e-08 -9.5499999918 1.5 2.8623685466e-07 -9.4999999911 1.4499999993 -7.2482400526e-08 
-9.4999999911 1.5 2.7661985769e-07 -9.4499999903 1.4499999993 -7.0181378931e-08 -9.4499999903 1.5 2.6828888622e-07 
-9.3999999896 1.4499999993 -6.8335104686e-08 -9.3999999896 1.5 2.6095381145e-07 -9.3499999888 1.4499999993 -6.6678914834e-08 
-9.3499999888 1.5 2.5453550734e-07 -9.2999999881 1.4499999993 -6.5124588389e-08 -9.2999999881 1.5 2.4889845918e-07 
-9.2499999873 1.4499999993 -6.382310147e-08 -9.2499999873 1.5 2.438471256e-07 -9.1999999866 1.4499999993 -6.2686233093e-08 
-9.1999999866 1.5 2.3935422178e-07 -9.1499999858 1.4499999993 -6.1623033787e-08 -9.1499999858 1.5 2.3532426496e-07 
-9.0999999851 1.4499999993 -6.0682616265e-08 -9.0999999851 1.5 2.3169720009e-07 -9.0499999844 1.4499999993 -5.9821324783e-08 
-9.0499999844 1.5 2.2849850723e-07 -8.9999999836 1.4499999993 -5.9046431744e-08 -8.9999999836 1.5 2.2559267165e-07 
-8.9499999829 1.4499999993 -5.8390686064e-08 -8.9499999829 1.5 2.2301243519e-07 -8.8999999821 1.4499999993 -5.7783143603e-08 
-8.8999999821 1.5 2.2062501159e-07 -8.8499999814 1.4499999993 -5.7207433457e-08 -8.8499999814 1.5 2.1856682508e-07 
-8.7999999806 1.4499999993 -5.669538794e-08 -8.7999999806 1.5 2.1664597227e-07 -8.7499999799 1.4499999993 -5.6272472904e-08 
-8.7499999799 1.5 2.1495795011e-07 -8.6999999791 1.4499999993 -5.6091483458e-08 -8.6999999791 1.5 2.1418124163e-07 
-8.6499999784 1.4499999993 -5.5700400736e-08 -8.6499999784 1.5 2.1276788686e-07 -8.5999999776 1.4499999993 -5.5344788308e-08 
-8.5999999776 1.5 2.1145275753e-07 -8.5499999769 1.4499999993 -5.5098315244e-08 -8.5499999769 1.5 2.1039137721e-07 
-8.4999999762 1.4499999993 -5.478817755e-08 -8.4999999762 1.5 2.0936001022e-07 -8.4499999754 1.4499999993 -5.4539885497e-08 
-8.4499999754 1.5 2.0849871873e-07 -8.3999999747 1.4499999993 -5.4419832196e-08 -8.3999999747 1.5 2.0779840781e-07 
-8.3499999739 1.4499999993 -5.4278860517e-08 -8.3499999739 1.5 2.0714448112e-07 -8.2999999732 1.4499999993 -5.4146983786e-08 
-8.2999999732 1.5 2.0662061218e-07 -8.2499999724 1.4499999993 -5.4013288064e-08 -8.2499999724 1.5 2.0620952057e-07 
-8.1999999717 1.4499999993 -5.3902329711e-08 -8.1999999717 1.5 2.0585117966e-07 -8.1499999709 1.4499999993 -5.3865949923e-08 
-8.1499999709 1.5 2.0560925407e-07 -8.0999999702 1.4499999993 -5.3767724495e-08 -8.0999999702 1.5 2.053800614e-07 
-8.0499999695 1.4499999993 -5.379955681e-08 -8.0499999695 1.5 2.0530048062e-07 -7.9999999687 1.4499999993 -5.375317258e-08 
-7.9999999687 1.5 2.0536050727e-07 -7.949999968 1.4499999993 -5.3701331382e-08 -7.949999968 1.5 2.0542826462e-07 
-7.8999999672 1.4499999993 -5.3792735599e-08 -7.8999999672 1.5 2.0551102864e-07 -7.8499999665 1.4499999993 -5.3890051532e-08 
-7.8499999665 1.5 2.0567337344e-07 -7.7999999657 1.4499999993 -5.3901420216e-08 -7.7999999657 1.5 2.0588119298e-07 
-7.749999965 1.4499999993 -5.4016016549e-08 -7.749999965 1.5 2.0627273045e-07 -7.6999999642 1.4499999993 -5.4142436312e-08 
-7.6999999642 1.5 2.065564928e-07 -7.6499999635 1.4499999993 -5.4219743362e-08 -7.6499999635 1.5 2.0698304581e-07 
-7.5999999627 1.4499999993 -5.4352984336e-08 -7.5999999627 1.5 2.0745552831e-07 -7.549999962 1.4499999993 -5.447758511e-08 
-7.549999962 1.5 2.0795711464e-07 -7.4999999613 1.4499999993 -5.4610826083e-08 -7.4999999613 1.5 2.0850553994e-07 
-7.4499999605 1.4499999993 -5.4761802204e-08 -7.4499999605 1.5 2.0908261433e-07 -7.3999999598 1.4499999993 -5.4951886597e-08 
-7.3999999598 1.5 2.0973017456e-07 -7.349999959 1.4499999993 -5.5111502917e-08 -7.349999959 1.5 2.104354877e-07 
-7.2999999583 1.4499999993 -5.5289309131e-08 -7.2999999583 1.5 2.1109669035e-07 -7.2499999575 1.4499999993 -5.5464386861e-08 
-7.2499999575 1.5 2.1185248045e-07 -7.1999999568 1.4499999993 -5.5655835496e-08 -7.1999999568 1.5 2.1260872529e-07 
-7.149999956 1.4499999993 -5.5876970606e-08 -7.149999956 1.5 2.133972572e-07 -7.0999999553 1.4499999993 -5.598643682e-08 
-7.0999999553 1.5 2.137919779e-07 -7.0499999546 1.4499999993 -5.6191982623e-08 -7.0499999546 1.5 2.1461279687e-07 
-6.9999999538 1.4499999993 -5.6443457908e-08 -6.9999999538 1.5 2.1545089623e-07 -6.9499999531 1.4499999993 -5.6645820479e-08 
-6.9499999531 1.5 2.1627444369e-07 -6.8999999523 1.4499999993 -5.6870010923e-08 -6.8999999523 1.5 2.1715347032e-07 
-6.8499999516 1.4499999993 -5.7088744398e-08 -6.8499999516 1.5 2.1806296502e-07 -6.7999999508 1.4499999993 -5.7300656664e-08 
-6.7999999508 1.5 2.1894653912e-07 -6.7499999501 1.4499999993 -5.7545765486e-08 -6.7499999501 1.5 2.1977145082e-07 
-6.6999999493 1.4499999993 -5.7787691077e-08 -6.6999999493 1.5 2.2065638916e-07 -6.6499999486 1.4499999993 -5.8009153037e-08 
-6.6499999486 1.5 2.2149630752e-07 -6.5999999478 1.4499999993 -5.8213334597e-08 -6.5999999478 1.5 2.2233440689e-07 
-6.5499999471 1.4499999993 -5.8471176345e-08 -6.5499999471 1.5 2.2313339798e-07 -6.4999999464 1.4499999993 -5.8634430644e-08 
-6.4999999464 1.5 2.2392283938e-07 -6.4499999456 1.4499999993 -5.8810872616e-08 -6.4499999456 1.5 2.2462951677e-07 
-6.3999999449 1.4499999993 -5.8991862062e-08 -6.3999999449 1.5 2.2531800425e-07 -6.3499999441 1.4499999993 -5.9174670497e-08 
-6.3499999441 1.5 2.2591008531e-07 -6.2999999434 1.4499999993 -5.9264710472e-08 -6.2999999434 1.5 2.2647488152e-07 
-6.2499999426 1.4499999993 -5.9394540841e-08 -6.2499999426 1.5 2.2691575907e-07 -6.1999999419 1.4499999993 -5.951755e-08 
-6.1999999419 1.5 2.2725477322e-07 -6.1499999411 1.4499999993 -5.9548018072e-08 -6.1499999411 1.5 2.2748805861e-07 
-6.0999999404 1.4499999993 -5.9600768765e-08 -6.0999999404 1.5 2.2757355111e-07 -6.0499999397 1.4499999993 -5.9579850387e-08 
-6.0499999397 1.5 2.2749624407e-07 -5.9999999389 1.4499999993 -5.9507545558e-08 -5.9999999389 1.5 2.2728819715e-07 
-5.9499999382 1.4499999993 -5.9404317909e-08 -5.9499999382 1.5 2.2683117606e-07 -5.8999999374 1.4499999993 -5.9202410085e-08 
-5.8999999374 1.5 2.2615746786e-07 -5.8499999367 1.4499999993 -5.8971853178e-08 -5.8499999367 1.5 2.2521818721e-07 
-5.7999999359 1.4499999993 -5.863420327e-08 -5.7999999359 1.5 2.2395421695e-07 -5.7499999352 1.4499999993 -5.8250851254e-08 
-5.7499999352 1.5 2.2237351516e-07 -5.6999999344 1.4499999993 -5.7720843216e-08 -5.6999999344 1.5 2.2039036196e-07 
-5.6499999337 1.4499999993 -5.7060095315e-08 -5.6499999337 1.5 2.1796110161e-07 -5.5999999329 1.4499999993 -5.631684985e-08 
-5.5999999329 1.5 2.1499410252e-07 -5.5499999322 1.4499999993 -5.5848875746e-08 -5.5499999322 1.5 2.1331790379e-07 
-5.4999999315 1.4499999993 -5.4846157838e-08 -5.4999999315 1.5 2.0950302826e-07 -5.4499999307 1.4499999993 -5.365608402e-08 
-5.4499999307 1.5 2.0495419051e-07 -5.39999993 1.4499999993 -5.2272287832e-08 -5.39999993 1.5 1.9960522479e-07 
-5.3499999292 1.4499999993 -5.0623146564e-08 -5.3499999292 1.5 1.9334108003e-07 -5.2999999285 1.4499999993 -4.8693880927e-08 
-5.2999999285 1.5 1.8603283536e-07 -5.2499999277 1.4499999993 -4.6474259108e-08 -5.2499999277 1.5 1.7752451242e-07 
-5.199999927 1.4499999993 -4.3893795265e-08 -5.199999927 1.5 1.6761897825e-07 -5.1499999262 1.4499999993 -4.0875864471e-08 
-5.1499999262 1.5 1.5610704907e-07 -5.0999999255 1.4499999993 -3.7371581385e-08 -5.0999999255 1.5 1.4279341087e-07 
-5.0499999247 1.4499999993 -3.3339336625e-08 -5.0499999247 1.5 1.2732267862e-07 -4.999999924 1.4499999993 -2.8622812565e-08 
-4.999999924 1.5 1.093977815e-07 -4.9499999233 1.4499999993 -2.3178804653e-08 -4.9499999233 1.5 8.8586951108e-08 
-4.8999999225 1.4499999993 -1.6839171835e-08 -4.8999999225 1.5 6.4427361224e-08 -4.8499999218 1.4499999993 -9.4748795476e-09 
-4.8499999218 1.5 3.6297830519e-08 -4.799999921 1.4499999993 -8.7617535449e-10 -4.799999921 1.5 3.5158882472e-09 
-4.7499999203 1.4499999993 9.1651006784e-09 -4.7499999203 1.5 -3.4752350331e-08 -4.6999999195 1.4499999993 2.0937600098e-08 
-4.6999999195 1.5 -7.9583962531e-08 -4.6499999188 1.4499999993 3.4738274479e-08 -4.6499999188 1.5 -1.322865586e-07 
-4.599999918 1.4499999993 5.1064613871e-08 -4.599999918 1.5 -1.9442892096e-07 -4.5499999173 1.4499999993 7.0382277784e-08 
-4.5499999173 1.5 -2.6804138997e-07 -4.4999999166 1.4499999993 9.3374531218e-08 -4.4999999166 1.5 -3.5567643408e-07 
-4.4499999158 1.4499999993 1.2095064506e-07 -4.4499999158 1.5 -4.6057698455e-07 -4.3999999151 1.4499999993 1.5413469612e-07 
-4.3999999151 1.5 -5.8698969951e-07 -4.3499999143 1.4499999993 1.9446373756e-07 -4.3499999143 1.5 -7.4036597653e-07 
-4.2999999136 1.4499999993 2.4384985409e-07 -4.2999999136 1.5 -9.2811546892e-07 -4.2499999128 1.4499999993 3.0493526992e-07 
-4.2499999128 1.5 -1.1601647429e-06 -4.1999999121 1.4499999993 3.8131861402e-07 -4.1999999121 1.5 -1.4501356418e-06 
-4.1499999113 1.4499999993 4.7813898618e-07 -4.1499999113 1.5 -1.8172748923e-06 -4.0999999106 1.4499999993 6.027589734e-07 
-4.0999999106 1.5 -2.2892406832e-06 -4.0499999098 1.4499999993 7.6620642631e-07 -4.0499999098 1.5 -2.9071277368e-06 
-3.9999999091 1.4499999993 9.8542636806e-07 -3.9999999091 1.5 -3.7340157633e-06 -3.9499999084 1.4499999993 1.1239126252e-06 
[...]
CELL_DATA 9510
FIELD FieldData 4
Water_Depth_m 1 9510 float
0.75 0.750001 0.750001 0.750001 0.750001 0.750002 0.750002 0.750002 0.750003 
0.750003 0.750003 0.750004 0.750004 0.750004 0.750005 0.750005 0.750005 0.750006 
0.750006 0.750006 0.750006 0.750007 0.750007 0.750007 0.750008 0.750008 0.750008 
0.750009 0.750009 0.750009 0.75001 0.75001 0.75001 0.75001 0.750011 0.750011 
0.750011 0.750012 0.750012 0.750012 0.750013 0.750013 0.750013 0.750014 0.750014 
0.750014 0.750015 0.750015 0.750015 0.750015 0.750016 0.750016 0.750016 0.750017 
0.750017 0.750017 0.750018 0.750018 0.750018 0.750019 0.750019 0.750019 0.75002 
0.75002 0.75002 0.75002 0.750021 0.750021 0.750021 0.750022 0.750022 0.750022 
0.750023 0.750023 0.750023 0.750024 0.750024 0.750024 0.750025 0.750025 0.750025 
0.750026 0.750026 0.750026 0.750027 0.750027 0.750027 0.750027 0.750028 0.750028 
0.750028 0.750029 0.750029 0.75003 0.75003 0.75003 0.750031 0.750031 0.750031 
0.750032 0.750032 0.750033 0.750033 0.750034 0.750034 0.750035 0.750035 0.750036 
0.750036 0.750037 0.750038 0.750038 0.750039 0.75004 0.750041 0.750042 0.750043 
0.750045 0.750046 0.750048 0.75005 0.750052 0.750055 0.750058 0.750062 0.750067 
0.750074 0.750086 0.750107 0.750173 0.75038 0.750273 0.744831 0.731517 0.712093 
0.688232 0.661232 0.632218 0.602238 0.572285 0.543866 0.517808 0.495095 0.477174 
0.46605 0.464166 0.464167 0.464169 0.464174 0.464179 0.464184 0.464189 0.464194 
0.464199 0.464204 0.464209 0.464214 0.464218 0.464223 0.464228 0.464234 0.464239 
0.464245 0.464251 0.464257 0.464264 0.464271 0.464279 0.464287 0.464296 0.464305 
0.464315 0.467821 0.482917 0.483675 0.48246 0.482177 0.480761 0.480437 0.480869 
0.481975 0.476344 0.447246 0.415903 0.382998 0.355459 0.32535 0.303609 0.314831 
0.328332 0.34453 0.3605 0.384005 0.410953 0.443064 0.476376 0.513537 0.552659 
0.632799 0.602587 0.576988 0.548637 0.520192 0.503235 0.502907 0.505725 0.505431 
0.494864 0.494598 0.494447 0.494399 0.494377 0.494367 0.494361 0.494357 0.494355 
0.494355 0.494354 0.494355 0.494355 0.494356 0.494357 0.494358 0.494359 0.49436 
0.494361 0.494362 0.494363 0.494364 0.494366 0.494367 0.494368 0.49437 0.494371 
0.494372 0.494374 0.494375 0.494376 0.494377 0.494379 0.49438 0.494381 0.494383 
0.494384 0.494385 0.494387 0.494388 0.494389 0.49439 0.494392 0.494393 0.494394 
0.494396 0.494397 0.494398 0.494399 0.494401 0.494402 0.494403 0.494405 0.494406 
0.494407 0.494408 0.49441 0.494411 0.494412 0.494414 0.494415 0.494416 0.494417 
0.494419 0.49442 0.494421 0.494423 0.494424 0.494425 0.494426 0.494428 0.494429 
0.49443 0.494432 0.494433 0.494434 0.494435 0.494437 0.494438 0.494439 0.49444 
0.494442 0.494443 0.494444 0.494446 0.494447 0.494448 0.49031 0.75 0.750001 
0.750001 0.750001 0.750002 0.750002 0.750002 0.750003 0.750003 0.750003 0.750003 
0.750004 0.750004 0.750004 0.750005 0.750005 0.750005 0.750006 0.750006 0.750006 
0.750006 0.750007 0.750007 0.750007 0.750008 0.750008 0.750008 0.750009 0.750009 
0.750009 0.75001 0.75001 0.75001 0.750011 0.750011 0.750011 0.750011 0.750012 
0.750012 0.750012 0.750013 0.750013 0.750013 0.750014 0.750014 0.750014 0.750015 
0.750015 0.750015 0.750015 0.750016 0.750016 0.750016 0.750017 0.750017 0.750017 
0.750018 0.750018 0.750018 0.750019 0.750019 0.750019 0.75002 0.75002 0.75002 
0.750021 0.750021 0.750021 0.750021 0.750022 0.750022 0.750022 0.750023 0.750023 
0.750023 0.750024 0.750024 0.750024 0.750025 0.750025 0.750025 0.750026 0.750026 
0.750026 0.750027 0.750027 0.750027 0.750028 0.750028 0.750028 0.750029 0.750029 
0.750029 0.75003 0.75003 0.75003 0.750031 0.750031 0.750031 0.750032 0.750032 
0.750033 0.750033 0.750034 0.750034 0.750035 0.750035 0.750036 0.750036 0.750037 
0.750037 0.750038 0.750039 0.750039 0.75004 0.750041 0.750042 0.750043 0.750044 
0.750046 0.750047 0.750049 0.75005 0.750052 0.750054 0.750057 0.750059 0.750062 
0.750066 0.750072 0.75011 0.750071 0.745191 0.732566 0.713598 0.689846 0.662684 
0.633332 0.602908 0.572427 0.543191 0.516319 0.493225 0.475617 0.465711 0.464183 
0.464177 0.464174 0.464177 0.464181 0.464186 0.464191 0.464195 0.4642 0.464205 
0.46421 0.464214 0.464219 0.464224 0.464229 0.464234 0.46424 0.464245 0.464251 
0.464258 0.464265 0.464272 0.46428 0.464288 0.464296 0.464304 0.464315 0.467757 
0.482641 0.483616 0.482014 0.481894 0.481345 0.480604 0.481082 0.480742 0.471724 
0.433442 0.401641 0.367529 0.331921 0.307105 0.297425 0.304492 0.316589 0.334099 
0.355343 0.382479 0.417493 0.453515 0.482365 0.52303 0.545217 0.622625 0.592659 
0.561238 0.537752 0.521324 0.506501 0.510524 0.51177 0.5094 0.495485 0.494353 
0.494351 0.494348 0.494347 0.494346 0.494347 0.494347 0.494348 0.494349 0.49435 
0.494351 0.494353 0.494354 0.494355 0.494356 0.494358 0.494359 0.49436 0.494362 
0.494363 0.494364 0.494366 0.494367 0.494368 0.49437 0.494371 0.494372 0.494374 
0.494375 0.494376 0.494378 0.494379 0.49438 0.494381 0.494383 0.494384 0.494385 
0.494387 0.494388 0.494389 0.494391 0.494392 0.494393 0.494394 0.494396 0.494397 
0.494398 0.4944 0.494401 0.494402 0.494403 0.494405 0.494406 0.494407 0.494409 
0.49441 0.494411 0.494412 0.494414 0.494415 0.494416 0.494417 0.494419 0.49442 
0.494421 0.494423 0.494424 0.494425 0.494426 0.494428 0.494429 0.49443 0.494432 
0.494433 0.494434 0.494435 0.494437 0.494438 0.494439 0.49444 0.494442 0.494443 
0.494444 0.494446 0.494447 0.494448 0.49031 0.75 0.750001 0.750001 0.750001 
0.750001 0.750002 0.750002 0.750002 0.750003 0.750003 0.750003 0.750004 0.750004 
0.750004 0.750005 0.750005 0.750005 0.750005 0.750006 0.750006 0.750006 0.750007 
0.750007 0.750007 0.750008 0.750008 0.750008 0.750009 0.750009 0.750009 0.75001 
0.75001 0.75001 0.75001 0.750011 0.750011 0.750011 0.750012 0.750012 0.750012 
0.750013 0.750013 0.750013 0.750014 0.750014 0.750014 0.750015 0.750015 0.750015 
0.750015 0.750016 0.750016 0.750016 0.750017 0.750017 0.750017 0.750018 0.750018 
0.750018 0.750019 0.750019 0.750019 0.750019 0.75002 0.75002 0.75002 0.750021 
0.750021 0.750021 0.750022 0.750022 0.750022 0.750023 0.750023 0.750023 0.750024 
0.750024 0.750024 0.750025 0.750025 0.750025 0.750026 0.750026 0.750026 0.750026 
0.750027 0.750027 0.750027 0.750028 0.750028 0.750028 0.750029 0.750029 0.75003 
0.75003 0.75003 0.750031 0.750031 0.750031 0.750032 0.750032 0.750033 0.750033 
0.750033 0.750034 0.750034 0.750035 0.750035 0.750036 0.750037 0.750037 0.750038 
0.750039 0.750039 0.75004 0.750041 0.750042 0.750043 0.750044 0.750045 0.750047 
0.750048 0.75005 0.750052 0.750054 0.750057 0.750059 0.750063 0.750068 0.750077 
0.750162 0.75007 0.745338 0.733057 0.714417 0.690823 0.663627 0.63408 0.603347 
0.572514 0.542854 0.515623 0.492455 0.475157 0.465639 0.464154 0.464161 0.464167 
0.464173 0.464179 0.464184 0.464189 0.464194 0.464199 0.464204 0.464208 0.464213 
0.464218 0.464222 0.464227 0.464232 0.464237 0.464243 0.464249 0.464255 0.464261 
0.464268 0.464276 0.464284 0.464293 0.464303 0.464314 0.467498 0.481813 0.483109 
0.481255 0.481074 0.481004 0.480422 0.481139 0.479121 0.462288 0.430691 0.400738 
0.363747 0.328905 0.296809 0.271269 0.28009 0.304661 0.329366 0.357527 0.389043 
0.423485 0.457609 0.494355 0.531876 0.556292 0.630068 0.5958 0.572494 0.548795 
0.522658 0.510031 0.515359 0.516144 0.512739 0.495144 0.494356 0.494354 0.494348 
0.494347 0.494347 0.494347 0.494347 0.494348 0.494349 0.49435 0.494351 0.494353 
0.494354 0.494355 0.494356 0.494358 0.494359 0.49436 0.494362 0.494363 0.494364 
0.494366 0.494367 0.494368 0.49437 0.494371 0.494372 0.494374 0.494375 0.494376 
0.494377 0.494379 0.49438 0.494381 0.494383 0.494384 0.494385 0.494387 0.494388 
0.494389 0.49439 0.494392 0.494393 0.494394 0.494396 0.494397 0.494398 0.494399 
0.494401 0.494402 0.494403 0.494405 0.494406 0.494407 0.494408 0.49441 0.494411 
0.494412 0.494414 0.494415 0.494416 0.494417 0.494419 0.49442 0.494421 0.494423 
0.494424 0.494425 0.494426 0.494428 0.494429 0.49443 0.494431 0.494433 0.494434 
0.494435 0.494437 0.494438 0.494439 0.49444 0.494442 0.494443 0.494444 0.494446 
0.494447 0.494448 0.49031 0.75 0.750001 0.750001 0.750001 0.750001 0.750002 
0.750002 0.750002 0.750003 0.750003 0.750003 0.750004 0.750004 0.750004 0.750005 
0.750005 0.750005 0.750005 0.750006 0.750006 0.750006 0.750007 0.750007 0.750007 
0.750008 0.750008 0.750008 0.750009 0.750009 0.750009 0.75001 0.75001 0.75001 
0.75001 0.750011 0.750011 0.750011 0.750012 0.750012 0.750012 0.750013 0.750013 
0.750013 0.750014 0.750014 0.750014 0.750015 0.750015 0.750015 0.750015 0.750016 
0.750016 0.750016 0.750017 0.750017 0.750017 0.750018 0.750018 0.750018 0.750019 
0.750019 0.750019 0.750019 0.75002 0.75002 0.75002 0.750021 0.750021 0.750021 
0.750022 0.750022 0.750022 0.750023 0.750023 0.750023 0.750024 0.750024 0.750024 
0.750025 0.750025 0.750025 0.750026 0.750026 0.750026 0.750026 0.750027 0.750027 
0.750027 0.750028 0.750028 0.750028 0.750029 0.750029 0.75003 0.75003 0.75003 
0.750031 0.750031 0.750031 0.750032 0.750032 0.750033 0.750033 0.750033 0.750034 
0.750034 0.750035 0.750035 0.750036 0.750036 0.750037 0.750038 0.750038 0.750039 
0.75004 0.750041 0.750042 0.750043 0.750044 0.750045 0.750046 0.750048 0.750049 
0.750051 0.750053 0.750055 0.750057 0.75006 0.750063 0.750067 0.750146 0.750067 
0.7454 0.73329 0.714844 0.691376 0.664187 0.634533 0.603607 0.572564 0.542679 
0.515321 0.492176 0.475023 0.46564 0.464156 0.464163 0.464168 0.464174 0.46418 
0.464185 0.46419 0.464195 0.464199 0.464204 0.464208 0.464213 0.464217 0.464222 
0.464227 0.464232 0.464237 0.464242 0.464248 0.464254 0.46426 0.464267 0.464274 
0.464282 0.464291 0.4643 0.464311 0.467602 0.481911 0.482697 0.481094 0.480438 
0.479653 0.478969 0.480822 0.476128 0.445708 0.416362 0.390631 0.354877 0.320019 
0.290781 0.278953 0.294656 0.31332 0.338564 0.36294 0.391533 0.424355 0.45625 
0.494151 0.529441 0.554073 0.634228 0.596173 0.57218 0.54856 0.522572 0.513891 
0.51871 0.518814 0.514002 0.495428 0.494342 0.494343 0.494343 0.494343 0.494344 
0.494345 0.494346 0.494347 0.494349 0.49435 0.494351 0.494352 0.494354 0.494355 
0.494356 0.494358 0.494359 0.49436 0.494362 0.494363 0.494364 0.494366 0.494367 
0.494368 0.49437 0.494371 0.494372 0.494374 0.494375 0.494376 0.494377 0.494379 
0.49438 0.494381 0.494383 0.494384 0.494385 0.494387 0.494388 0.494389 0.49439 
0.494392 0.494393 0.494394 0.494396 0.494397 0.494398 0.494399 0.494401 0.494402 
0.494403 0.494405 0.494406 0.494407 0.494408 0.49441 0.494411 0.494412 0.494414 
0.494415 0.494416 0.494417 0.494419 0.49442 0.494421 0.494423 0.494424 0.494425 
0.494426 0.494428 0.494429 0.49443 0.494431 0.494433 0.494434 0.494435 0.494437 
0.494438 0.494439 0.49444 0.494442 0.494443 0.494444 0.494446 0.494447 0.494448 
0.49031 0.75 0.750001 0.750001 0.750001 0.750001 0.750002 0.750002 0.750002 
0.750003 0.750003 0.750003 0.750004 0.750004 0.750004 0.750005 0.750005 0.750005 
0.750005 0.750006 0.750006 0.750006 0.750007 0.750007 0.750007 0.750008 0.750008 
0.750008 0.750009 0.750009 0.750009 0.75001 0.75001 0.75001 0.75001 0.750011 
0.750011 0.750011 0.750012 0.750012 0.750012 0.750013 0.750013 0.750013 0.750014 
0.750014 0.750014 0.750015 0.750015 0.750015 0.750015 0.750016 0.750016 0.750016 
0.750017 0.750017 0.750017 0.750018 0.750018 0.750018 0.750019 0.750019 0.750019 
0.750019 0.75002 0.75002 0.75002 0.750021 0.750021 0.750021 0.750022 0.750022 
0.750022 0.750023 0.750023 0.750023 0.750024 0.750024 0.750024 0.750025 0.750025 
0.750025 0.750026 0.750026 0.750026 0.750026 0.750027 0.750027 0.750027 0.750028 
0.750028 0.750028 0.750029 0.750029 0.75003 0.75003 0.75003 0.750031 0.750031 
0.750031 0.750032 0.750032 0.750033 0.750033 0.750033 0.750034 0.750034 0.750035 
0.750035 0.750036 0.750036 0.750037 0.750038 0.750038 0.750039 0.75004 0.75004 
0.750041 0.750042 0.750043 0.750044 0.750046 0.750047 0.750049 0.75005 0.750052 
0.750054 0.750056 0.750059 0.750062 0.750067 0.750147 0.750065 0.745425 0.733395 
0.715055 0.691664 0.664491 0.63478 0.603747 0.57259 0.542592 0.515195 0.492083 
0.474992 0.46564 0.464157 0.464163 0.464169 0.464175 0.46418 0.464186 0.46419 
0.464195 0.4642 0.464204 0.464208 0.464213 0.464217 0.464221 0.464226 0.464231 
0.464236 0.464241 0.464246 0.464252 0.464258 0.464264 0.464271 0.464279 0.464288 
0.464297 0.464307 0.46764 0.482092 0.483053 0.480809 0.481483 0.481174 0.480851 
0.478196 0.468926 0.430982 0.401144 0.372257 0.341096 0.306533 0.295438 0.309832 
0.323616 0.342124 0.360285 0.377169 0.397954 0.424922 0.445946 0.484217 0.511279 
0.539923 0.628986 0.590111 0.564255 0.541726 0.521781 0.517565 0.521699 0.521623 
0.51566 0.495329 0.49434 0.494341 0.494341 0.494342 0.494343 0.494344 0.494346 
0.494347 0.494348 0.49435 0.494351 0.494352 0.494354 0.494355 0.494356 0.494358 
0.494359 0.49436 0.494362 0.494363 0.494364 0.494366 0.494367 0.494368 0.49437 
0.494371 0.494372 0.494374 0.494375 0.494376 0.494377 0.494379 0.49438 0.494381 
0.494383 0.494384 0.494385 0.494387 0.494388 0.494389 0.49439 0.494392 0.494393 
0.494394 0.494396 0.494397 0.494398 0.494399 0.494401 0.494402 0.494403 0.494405 
0.494406 0.494407 0.494408 0.49441 0.494411 0.494412 0.494414 0.494415 0.494416 
0.494417 0.494419 0.49442 0.494421 0.494423 0.494424 0.494425 0.494426 0.494428 
0.494429 0.49443 0.494431 0.494433 0.494434 0.494435 0.494437 0.494438 0.494439 
0.49444 0.494442 0.494443 0.494444 0.494446 0.494447 0.494448 0.49031 0.75 
0.750001 0.750001 0.750001 0.750001 0.750002 0.750002 0.750002 0.750003 0.750003 
0.750003 0.750004 0.750004 0.750004 0.750005 0.750005 0.750005 0.750005 0.750006 
0.750006 0.750006 0.750007 0.750007 0.750007 0.750008 0.750008 0.750008 0.750009 
0.750009 0.750009 0.75001 0.75001 0.75001 0.75001 0.750011 0.750011 0.750011 
0.750012 0.750012 0.750012 0.750013 0.750013 0.750013 0.750014 0.750014 0.750014 
0.750015 0.750015 0.750015 0.750015 0.750016 0.750016 0.750016 0.750017 0.750017 
0.750017 0.750018 0.750018 0.750018 0.750019 0.750019 0.750019 0.750019 0.75002 
0.75002 0.75002 0.750021 0.750021 0.750021 0.750022 0.750022 0.750022 0.750023 
0.750023 0.750023 0.750024 0.750024 0.750024 0.750024 0.750025 0.750025 0.750026 
0.750026 0.750026 0.750026 0.750027 0.750027 0.750027 0.750028 0.750028 0.750028 
0.750029 0.750029 0.750029 0.75003 0.75003 0.750031 0.750031 0.750031 0.750032 
0.750032 0.750032 0.750033 0.750033 0.750034 0.750034 0.750035 0.750035 0.750036 
0.750036 0.750037 0.750037 0.750038 0.750039 0.750039 0.75004 0.750041 0.750042 
0.750043 0.750044 0.750045 0.750046 0.750048 0.750049 0.750051 0.750053 0.750055 
0.750057 0.75006 0.750064 0.750144 0.750063 0.745433 0.733437 0.715147 0.691799 
0.664638 0.634901 0.603816 0.572603 0.542552 0.515143 0.492053 0.474987 0.465645 
0.464159 0.464166 0.464172 0.464177 0.464182 0.464187 0.464191 0.464196 0.4642 
0.464204 0.464208 0.464212 0.464217 0.464221 0.464225 0.46423 0.464234 0.464239 
0.464244 0.46425 0.464255 0.464262 0.464268 0.464276 0.464284 0.464292 0.464302 
0.467764 0.483142 0.484286 0.482117 0.48137 0.481766 0.482519 0.477572 0.454244 
0.417609 0.386316 0.354063 0.322825 0.30297 0.311226 0.325091 0.337226 0.354256 
0.368562 0.385773 0.404121 0.428919 0.453824 0.482809 0.520447 0.539136 0.614676 
0.591353 0.571436 0.547745 0.526909 0.520517 0.524454 0.524325 0.517382 0.495463 
0.494337 0.494338 0.494339 0.494341 0.494342 0.494344 0.494345 0.494346 0.494348 
0.494349 0.494351 0.494352 0.494353 0.494355 0.494356 0.494358 0.494359 0.49436 
0.494362 0.494363 0.494364 0.494366 0.494367 0.494368 0.49437 0.494371 0.494372 
0.494374 0.494375 0.494376 0.494378 0.494379 0.49438 0.494381 0.494383 0.494384 
0.494385 0.494387 0.494388 0.494389 0.49439 0.494392 0.494393 0.494394 0.494396 
0.494397 0.494398 0.494399 0.494401 0.494402 0.494403 0.494405 0.494406 0.494407 
0.494408 0.49441 0.494411 0.494412 0.494414 0.494415 0.494416 0.494417 0.494419 
0.49442 0.494421 0.494423 0.494424 0.494425 0.494426 0.494428 0.494429 0.49443 
0.494431 0.494433 0.494434 0.494435 0.494437 0.494438 0.494439 0.49444 0.494442 
0.494443 0.494444 0.494446 0.494447 0.494448 0.49031 0.75 0.750001 0.750001 
0.750001 0.750001 0.750002 0.750002 0.750002 0.750003 0.750003 0.750003 0.750004 
0.750004 0.750004 0.750005 0.750005 0.750005 0.750005 0.750006 0.750006 0.750006 
0.750007 0.750007 0.750007 0.750008 0.750008 0.750008 0.750009 0.750009 0.750009 
0.75001 0.75001 0.75001 0.75001 0.750011 0.750011 0.750011 0.750012 0.750012 
0.750012 0.750013 0.750013 0.750013 0.750014 0.750014 0.750014 0.750015 0.750015 
0.750015 0.750015 0.750016 0.750016 0.750016 0.750017 0.750017 0.750017 0.750018 
0.750018 0.750018 0.750019 0.750019 0.750019 0.750019 0.75002 0.75002 0.75002 
0.750021 0.750021 0.750021 0.750022 0.750022 0.750022 0.750023 0.750023 0.750023 
0.750024 0.750024 0.750024 0.750024 0.750025 0.750025 0.750025 0.750026 0.750026 
0.750026 0.750027 0.750027 0.750027 0.750028 0.750028 0.750028 0.750029 0.750029 
0.750029 0.75003 0.75003 0.750031 0.750031 0.750031 0.750032 0.750032 0.750032 
0.750033 0.750033 0.750034 0.750034 0.750035 0.750035 0.750035 0.750036 0.750037 
0.750037 0.750038 0.750038 0.750039 0.75004 0.750041 0.750041 0.750042 0.750043 
0.750044 0.750045 0.750047 0.750048 0.75005 0.750051 0.750053 0.750055 0.750058 
0.750062 0.750141 0.75006 0.745432 0.733446 0.715178 0.691851 0.664697 0.634952 
0.603845 0.57261 0.542534 0.515123 0.492045 0.47499 0.465649 0.464163 0.464169 
0.464174 0.464179 0.464184 0.464188 0.464192 0.464197 0.464201 0.464204 0.464208 
0.464212 0.464216 0.46422 0.464224 0.464228 0.464233 0.464237 0.464242 0.464247 
0.464252 0.464258 0.464264 0.464271 0.464279 0.464287 0.464296 0.467724 0.482959 
0.484181 0.482053 0.481241 0.481652 0.482495 0.476532 0.446359 0.409682 0.379008 
0.347232 0.314908 0.315276 0.324895 0.333944 0.346473 0.36072 0.375453 0.390319 
0.405713 0.428494 0.453598 0.483766 0.521981 0.551156 0.628746 0.600284 0.578879 
0.555099 0.529604 0.523018 0.527321 0.527139 0.519125 0.495539 0.494334 0.494336 
0.494337 0.494339 0.494341 0.494343 0.494344 0.494346 0.494348 0.494349 0.494351 
0.494352 0.494353 0.494355 0.494356 0.494358 0.494359 0.49436 0.494362 0.494363 
0.494364 0.494366 0.494367 0.494368 0.49437 0.494371 0.494372 0.494374 0.494375 
0.494376 0.494378 0.494379 0.49438 0.494381 0.494383 0.494384 0.494385 0.494387 
0.494388 0.494389 0.49439 0.494392 0.494393 0.494394 0.494396 0.494397 0.494398 
0.494399 0.494401 0.494402 0.494403 0.494405 0.494406 0.494407 0.494408 0.49441 
0.494411 0.494412 0.494414 0.494415 0.494416 0.494417 0.494419 0.49442 0.494421 
0.494423 0.494424 0.494425 0.494426 0.494428 0.494429 0.49443 0.494431 0.494433 
0.494434 0.494435 0.494437 0.494438 0.494439 0.49444 0.494442 0.494443 0.494444 
0.494446 0.494447 0.494448 0.49031 0.75 0.75 0.750001 0.750001 0.750001 
0.750002 0.750002 0.750002 0.750003 0.750003 0.750003 0.750004 0.750004 0.750004 
0.750005 0.750005 0.750005 0.750005 0.750006 0.750006 0.750006 0.750007 0.750007 
0.750007 0.750008 0.750008 0.750008 0.750009 0.750009 0.750009 0.75001 0.75001 
0.75001 0.75001 0.750011 0.750011 0.750011 0.750012 0.750012 0.750012 0.750013 
0.750013 0.750013 0.750014 0.750014 0.750014 0.750014 0.750015 0.750015 0.750015 
0.750016 0.750016 0.750016 0.750017 0.750017 0.750017 0.750018 0.750018 0.750018 
0.750019 0.750019 0.750019 0.750019 0.75002 0.75002 0.75002 0.750021 0.750021 
0.750021 0.750022 0.750022 0.750022 0.750023 0.750023 0.750023 0.750024 0.750024 
0.750024 0.750024 0.750025 0.750025 0.750025 0.750026 0.750026 0.750026 0.750027 
0.750027 0.750027 0.750028 0.750028 0.750028 0.750029 0.750029 0.750029 0.75003 
0.75003 0.75003 0.750031 0.750031 0.750032 0.750032 0.750032 0.750033 0.750033 
0.750033 0.750034 0.750034 0.750035 0.750035 0.750036 0.750036 0.750037 0.750037 
0.750038 0.750039 0.750039 0.75004 0.750041 0.750042 0.750042 0.750043 0.750044 
0.750046 0.750047 0.750048 0.75005 0.750051 0.750053 0.750055 0.750059 0.750138 
0.750056 0.745427 0.733443 0.715179 0.69186 0.664712 0.634966 0.603854 0.572613 
0.542529 0.515117 0.492045 0.474996 0.465654 0.464167 0.464172 0.464177 0.464181 