# vtk DataFile Version 5.1
vtk output
ASCII
DATASET UNSTRUCTURED_GRID
POINTS 4929 double
0.1016 1.5 0.13098490238 0.1016 1.45 0.12904334068 0.1016 1.4 0.13187651336 
0.1016 1.35 0.12813037634 0.1016 1.3 0.12862718105 0.1016 1.25 0.1385114044 
0.1016 1.2 0.14134685695 0.1016 1.15 0.13386248052 0.1016 1.1 0.12584146857 
0.1016 1.05 0.1156399399 0.1016 1 0.1045832634 0.1016 0.95 0.10941039771 
0.1016 0.9 0.11066174507 0.1016 0.85 0.10626742989 0.1016 0.8 0.11094460636 
0.1016 0.75 0.12919001281 0.1016 0.7 0.14879082143 0.1016 0.65 0.15487360954 
0.1016 0.6 0.1479280889 0.1016 0.55 0.148271963 0.1016 0.5 0.15470503271 
0.1016 0.45 0.16150058806 0.1016 0.4 0.15196421742 0.1016 0.35 0.13916304708 
0.1016 0.3 0.13678921759 0.1016 0.25 0.14458087087 0.1016 0.2 0.14479809999 
0.1016 0.15 0.13326923549 0.1016 0.1 0.12809693813 0.1016 0.05 0.12411984801 
0.1016 0 0.12181563675 5.08 1.5 0.28700000048 5.08 1.45 0.28700000048 
5.08 1.4 0.28700000048 5.08 1.35 0.28700000048 5.08 1.3 0.28700000048 
5.08 1.25 0.28700000048 5.08 1.2 0.28700000048 5.08 1.15 0.28700000048 
5.08 1.1 0.28700000048 5.08 1.05 0.28700000048 5.08 1 0.28700000048 
5.08 0.95 0.28700000048 5.08 0.9 0.28700000048 5.08 0.85 0.28700000048 
5.08 0.8 0.28700000048 5.08 0.75 0.28700000048 5.08 0.7 0.28700000048 
5.08 0.65 0.28700000048 5.08 0.6 0.28700000048 5.08 0.55 0.28700000048 
5.08 0.5 0.28700000048 5.08 0.45 0.28700000048 5.08 0.4 0.28700000048 
5.08 0.35 0.28700000048 5.08 0.3 0.28700000048 5.08 0.25 0.28700000048 
5.08 0.2 0.28700000048 5.08 0.15 0.28700000048 5.08 0.1 0.28700000048 
5.08 0.05 0.28700000048 5.08 0 0.28700000048 0.12737462728 1.5 0.13469743729 
0.12737462728 1.45 0.13339111209 0.12737462728 1.4 0.14112786949 0.12737462728 1.35 0.13345472515 
0.12737462728 1.3 0.13203880191 0.12737462728 1.25 0.14687338471 0.12737462728 1.2 0.14984405041 
0.12737462728 1.15 0.13856810331 0.12737462728 1.1 0.13041561842 0.12737462728 1.05 0.12071851641 
0.12737462728 1 0.10268300027 0.12737462728 0.95 0.11353262514 0.12737462728 0.9 0.11517251283 
0.12737462728 0.85 0.10762606561 0.12737462728 0.8 0.11064387113 0.12737462728 0.75 0.13123205304 
0.12737462728 0.7 0.1540954113 0.12737462728 0.65 0.16063095629 0.12737462728 0.6 0.14702406526 
0.12737462728 0.55 0.14957000315 0.12737462728 0.5 0.15689258277 0.12737462728 0.45 0.1701939106 
0.12737462728 0.4 0.15671642125 0.12737462728 0.35 0.14091335237 0.12737462728 0.3 0.13771560788 
0.12737462728 0.25 0.15036292374 0.12737462728 0.2 0.15243889391 0.12737462728 0.15 0.13547295332 
0.12737462728 0.1 0.13308061659 0.12737462728 0.05 0.12930928171 0.12737462728 0 0.12429687381 
0.15441581276 1.5 0.14162544906 0.15441581276 1.45 0.14220172167 0.15441581276 1.4 0.15622261167 
0.15441581276 1.35 0.14304591715 0.15441581276 1.3 0.1389374584 0.15441581276 1.25 0.15900096297 
0.15441581276 1.2 0.16076129675 0.15441581276 1.15 0.14580747485 0.15441581276 1.1 0.13766561449 
0.15441581276 1.05 0.13197393715 0.15441581276 1 0.10636436939 0.15441581276 0.95 0.12130782008 
0.15441581276 0.9 0.1249922365 0.15441581276 0.85 0.11749754101 0.15441581276 0.8 0.11837852746 
0.15441581276 0.75 0.13772165775 0.15441581276 0.7 0.16155026853 0.15441581276 0.65 0.16960404813 
0.15441581276 0.6 0.14862746 0.15441581276 0.55 0.15571001172 0.15441581276 0.5 0.16187816858 
0.15441581276 0.45 0.18145462871 0.15441581276 0.4 0.16497761011 0.15441581276 0.35 0.14804247022 
0.15441581276 0.3 0.14167937636 0.15441581276 0.25 0.15746621788 0.15441581276 0.2 0.16134785116 
0.15441581276 0.15 0.13983085752 0.15441581276 0.1 0.14183776081 0.15441581276 0.05 0.13754104078 
0.15441581276 0 0.13231891394 0.18278579477 1.5 0.15086720884 0.18278579477 1.45 0.15905866027 
0.18278579477 1.4 0.17327019572 0.18278579477 1.35 0.15789192915 0.18278579477 1.3 0.15259724855 
0.18278579477 1.25 0.17343653738 0.18278579477 1.2 0.17143921554 0.18278579477 1.15 0.15749579668 
0.18278579477 1.1 0.14747035503 0.18278579477 1.05 0.14635924995 0.18278579477 1 0.12607979774 
0.18278579477 0.95 0.12627649307 0.18278579477 0.9 0.13934832811 0.18278579477 0.85 0.13862474263 
0.18278579477 0.8 0.13802690804 0.18278579477 0.75 0.14823414385 0.18278579477 0.7 0.16971324384 
0.18278579477 0.65 0.17904303968 0.18278579477 0.6 0.15808387101 0.18278579477 0.55 0.16670498252 
0.18278579477 0.5 0.17460426688 0.18278579477 0.45 0.18835215271 0.18278579477 0.4 0.17880757153 
0.18278579477 0.35 0.16324955225 0.18278579477 0.3 0.15160952508 0.18278579477 0.25 0.16446942091 
0.18278579477 0.2 0.16668191552 0.18278579477 0.15 0.15192879736 0.18278579477 0.1 0.15439125896 
0.18278579477 0.05 0.14542360604 0.18278579477 0 0.15142314136 0.21254987001 1.5 0.16390144825 
0.21254987001 1.45 0.17526760697 0.21254987001 1.4 0.1866234839 0.21254987001 1.35 0.17370803654 
0.21254987001 1.3 0.17114153504 0.21254987001 1.25 0.18907694519 0.21254987001 1.2 0.1825864315 
0.21254987001 1.15 0.17110799253 0.21254987001 1.1 0.16249263287 0.21254987001 1.05 0.16386604309 
0.21254987001 1 0.14782303572 0.21254987001 0.95 0.13823798299 0.21254987001 0.9 0.15571004152 
0.21254987001 0.85 0.15746732056 0.21254987001 0.8 0.15707331896 0.21254987001 0.75 0.16144196689 
0.21254987001 0.7 0.18216343224 0.21254987001 0.65 0.19457297027 0.21254987001 0.6 0.17403246462 
0.21254987001 0.55 0.1833589673 0.21254987001 0.5 0.19034929574 0.21254987001 0.45 0.19995494187 
0.21254987001 0.4 0.19257736206 0.21254987001 0.35 0.18066760898 0.21254987001 0.3 0.16485148668 
0.21254987001 0.25 0.17534452677 0.21254987001 0.2 0.17579416931 0.21254987001 0.15 0.16789878905 
0.21254987001 0.1 0.17129476368 0.21254987001 0.05 0.15682055056 0.21254987001 0 0.17282171547 
0.24377654385 1.5 0.18049195409 0.24377654385 1.45 0.19000637531 0.24377654385 1.4 0.19394518435 
0.24377654385 1.35 0.18908546865 0.24377654385 1.3 0.1939163506 0.24377654385 1.25 0.20260290802 
0.24377654385 1.2 0.19427405298 0.24377654385 1.15 0.18463684618 0.24377654385 1.1 0.18401181698 
0.24377654385 1.05 0.18105074763 0.24377654385 1 0.16569465399 0.24377654385 0.95 0.15853838623 
0.24377654385 0.9 0.17168515921 0.24377654385 0.85 0.16735130548 0.24377654385 0.8 0.16940394044 
0.24377654385 0.75 0.17559953034 0.24377654385 0.7 0.19877840579 0.24377654385 0.65 0.21361622214 
0.24377654385 0.6 0.19619959593 0.24377654385 0.55 0.20178471506 0.24377654385 0.5 0.20757913589 
0.24377654385 0.45 0.2165504396 0.24377654385 0.4 0.20306913555 0.24377654385 0.35 0.19604125619 
0.24377654385 0.3 0.1808398366 0.24377654385 0.25 0.19188299775 0.24377654385 0.2 0.18929369748 
0.24377654385 0.15 0.18398496509 0.24377654385 0.1 0.18851952255 0.24377654385 0.05 0.17220850289 
0.24377654385 0 0.19368071854 0.27653768798 1.5 0.19641757011 0.27653768798 1.45 0.20955716074 
0.27653768798 1.4 0.21804586053 0.27653768798 1.35 0.20457078516 0.27653768798 1.3 0.21117533743 
0.27653768798 1.25 0.21614867449 0.27653768798 1.2 0.20697236061 0.27653768798 1.15 0.19857083261 
0.27653768798 1.1 0.20007415116 0.27653768798 1.05 0.20590928197 0.27653768798 1 0.17800976336 
0.27653768798 0.95 0.17558854818 0.27653768798 0.9 0.18691346049 0.27653768798 0.85 0.18195950985 
0.27653768798 0.8 0.18200665712 0.27653768798 0.75 0.19014567137 0.27653768798 0.7 0.20992714167 
0.27653768798 0.65 0.22749570012 0.27653768798 0.6 0.21355111897 0.27653768798 0.55 0.21964769065 
0.27653768798 0.5 0.22507943213 0.27653768798 0.45 0.22649180889 0.27653768798 0.4 0.214177683 
0.27653768798 0.35 0.20982912183 0.27653768798 0.3 0.19972002506 0.27653768798 0.25 0.21097266674 
0.27653768798 0.2 0.20614571869 0.27653768798 0.15 0.18347467482 0.27653768798 0.1 0.20030352473 
0.27653768798 0.05 0.18765150011 0.27653768798 0 0.22274535894 0.31090870586 1.5 0.21390642226 
0.31090870586 1.45 0.22968521714 0.31090870586 1.4 0.24585744739 0.31090870586 1.35 0.21919007599 
0.31090870586 1.3 0.22587294877 0.31090870586 1.25 0.23067069054 0.31090870586 1.2 0.22204498947 
0.31090870586 1.15 0.21390415728 0.31090870586 1.1 0.21106949449 0.31090870586 1.05 0.22573760152 
0.31090870586 1 0.19104859233 0.31090870586 0.95 0.19278992712 0.31090870586 0.9 0.20248502493 
0.31090870586 0.85 0.20274576545 0.31090870586 0.8 0.19827488065 0.31090870586 0.75 0.20390865207 
0.31090870586 0.7 0.21724063158 0.31090870586 0.65 0.23752813041 0.31090870586 0.6 0.22589272261 
0.31090870586 0.55 0.23675717413 0.31090870586 0.5 0.24356411397 0.31090870586 0.45 0.2358520329 
0.31090870586 0.4 0.228300035 0.31090870586 0.35 0.22449226677 0.31090870586 0.3 0.21815247834 
0.31090870586 0.25 0.22663548589 0.31090870586 0.2 0.22314043343 0.31090870586 0.15 0.18643654883 
0.31090870586 0.1 0.21540172398 0.31090870586 0.05 0.20239855349 0.31090870586 0 0.25073593855 
0.34696870625 1.5 0.23730570078 0.34696870625 1.45 0.24399776757 0.34696870625 1.4 0.24951246381 
0.34696870625 1.35 0.2370120436 0.34696870625 1.3 0.24356395006 0.34696870625 1.25 0.24629762769 
0.34696870625 1.2 0.2398070544 0.34696870625 1.15 0.23160806298 0.34696870625 1.1 0.22950185835 
0.34696870625 1.05 0.21795426309 0.34696870625 1 0.22152137756 0.34696870625 0.95 0.2161411047 
0.34696870625 0.9 0.21671491861 0.34696870625 0.85 0.22475832701 0.34696870625 0.8 0.21811245382 
0.34696870625 0.75 0.21658015251 0.34696870625 0.7 0.2313695997 0.34696870625 0.65 0.24740175903 
0.34696870625 0.6 0.2416113466 0.34696870625 0.55 0.25109943748 0.34696870625 0.5 0.26220074296 
0.34696870625 0.45 0.25155386329 0.34696870625 0.4 0.24748778343 0.34696870625 0.35 0.23938533664 
0.34696870625 0.3 0.23661911488 0.34696870625 0.25 0.23655344546 0.34696870625 0.2 0.23153360188 
0.34696870625 0.15 0.23241950572 0.34696870625 0.1 0.23355834186 0.34696870625 0.05 0.22732141614 
0.34696870625 0 0.25871485472 0.3848006853 1.5 0.25947511196 0.3848006853 1.45 0.26098883152 
0.3848006853 1.4 0.25968557596 0.3848006853 1.35 0.25739461184 0.3848006853 1.3 0.26011627913 
0.3848006853 1.25 0.25984326005 0.3848006853 1.2 0.25449496508 0.3848006853 1.15 0.25089648366 
[...]
CELL_DATA 4740
FIELD FieldData 7
B_Stress_n_p_m2 1 4740 float
0.0433841 0.0532291 0.0580224 0.0657104 0.0719286 0.0762224 0.0774342 0.0772864 0.0765275 
0.0742894 0.0739364 0.0739782 0.0726185 0.0712117 0.0717003 0.0738433 0.0753797 0.0744735 
0.0742304 0.0753677 0.0778837 0.0781682 0.0764785 0.074991 0.0747084 0.0729534 0.0671059 
0.058553 0.0535427 0.0438089 0.115984 0.0282293 0.0518569 0.0616328 0.0683607 0.0745534 
0.0771648 0.078276 0.0803486 0.0786292 0.0783174 0.0800742 0.0798665 0.0786251 0.0781476 
0.0790741 0.0805362 0.0788467 0.0788301 0.078932 0.0808588 0.0810439 0.0782957 0.0744576 
0.0715787 0.067982 0.0612658 0.0502389 0.0270582 0.116582 0.0709357 0.0417588 0.0565802 
0.0654042 0.0716688 0.0770003 0.0792517 0.0794622 0.0803775 0.0797037 0.0777924 0.0793769 
0.0799967 0.0791767 0.0781475 0.078715 0.079879 0.0789528 0.0785455 0.079405 0.0807223 
0.0819301 0.0799854 0.0765246 0.0736832 0.0704726 0.0648648 0.054644 0.0404698 0.0709842 
0.0635597 0.0525534 0.0616357 0.0692872 0.0749062 0.0797172 0.0820503 0.0828741 0.0833392 
0.0833641 0.0818282 0.082239 0.0832212 0.0832873 0.0825412 0.0828627 0.0839651 0.0833188 
0.082666 0.0834208 0.0844342 0.0846972 0.0832725 0.0797157 0.0763332 0.0727091 0.0677486 
0.0598474 0.0513606 0.0630472 0.0685014 0.0618593 0.0672082 0.0738885 0.0788767 0.082931 
0.0852424 0.0871788 0.0882587 0.087613 0.0869178 0.0867309 0.0870866 0.0872146 0.0873892 
0.0881699 0.0898658 0.0897107 0.0888036 0.0890272 0.0893712 0.0885392 0.0868076 0.0835357 
0.0800184 0.0760593 0.0708475 0.0656756 0.0606175 0.0677582 0.0740134 0.0716538 0.0740912 
0.0791862 0.0838596 0.0869757 0.0889759 0.0911562 0.0940085 0.0922057 0.091246 0.0915869 
0.0916575 0.0909159 0.091501 0.0927299 0.0952135 0.095726 0.0953925 0.0952831 0.0943571 
0.0930064 0.0905443 0.0878388 0.0846879 0.080817 0.0743063 0.0709867 0.0684224 0.0731615 
0.079804 0.0806322 0.0826197 0.0854751 0.0895194 0.0923245 0.0938807 0.0954151 0.0979966 
0.0983201 0.0960862 0.0966714 0.097434 0.0962873 0.0961332 0.0973928 0.0998444 0.101157 
0.101673 0.10235 0.10062 0.0983468 0.0954112 0.092824 0.0897618 0.0863632 0.080538 
0.0763165 0.0754735 0.0787522 0.0866897 0.0877975 0.0908791 0.0927587 0.0962059 0.0989809 
0.10046 0.10136 0.101362 0.104587 0.103073 0.102989 0.10426 0.103653 0.10254 
0.10328 0.104899 0.106729 0.107297 0.108709 0.107666 0.104905 0.101921 0.0991238 
0.0957983 0.0925917 0.0900527 0.0849565 0.0842554 0.085179 0.0952556 0.0953854 0.0979057 
0.100346 0.103162 0.105533 0.107354 0.10811 0.107543 0.109063 0.110912 0.109994 
0.110703 0.111284 0.110265 0.109713 0.110065 0.110937 0.110906 0.111238 0.111421 
0.109808 0.108219 0.105897 0.103251 0.100033 0.0984908 0.0963782 0.0940535 0.0934654 
0.102811 0.102564 0.104189 0.106322 0.108027 0.109666 0.111355 0.112555 0.112599 
0.112716 0.115003 0.114364 0.114136 0.115385 0.115068 0.11399 0.112806 0.111842 
0.111015 0.110049 0.11 0.11015 0.110325 0.109797 0.10853 0.106258 0.104481 
0.103628 0.10135 0.100814 0.106773 0.106563 0.107317 0.108476 0.109225 0.110159 
0.111279 0.11235 0.113006 0.112856 0.113908 0.113841 0.113287 0.114023 0.114029 
0.113122 0.111488 0.109687 0.108451 0.107144 0.106581 0.107178 0.108031 0.108637 
0.10847 0.107607 0.106223 0.105455 0.104081 0.104026 0.107821 0.107533 0.107499 
0.107791 0.108166 0.108739 0.109438 0.11006 0.11052 0.110695 0.110731 0.110813 
0.110581 0.110478 0.110389 0.109696 0.108507 0.107205 0.106046 0.104926 0.104273 
0.104363 0.10485 0.105398 0.105576 0.105334 0.10485 0.104483 0.104244 0.103949 
0.108817 0.108532 0.108191 0.108394 0.108885 0.109544 0.110226 0.110758 0.111088 
0.11136 0.111356 0.111385 0.111198 0.110901 0.11067 0.110097 0.109463 0.108814 
0.108091 0.107133 0.10633 0.105838 0.105548 0.105552 0.105466 0.105196 0.104795 
0.104731 0.105004 0.104632 0.111893 0.11168 0.112029 0.112871 0.113958 0.115101 
0.116194 0.117168 0.117852 0.118364 0.118731 0.118958 0.118841 0.118546 0.118307 
0.117809 0.117305 0.116924 0.116493 0.115704 0.114728 0.113813 0.112845 0.112049 
0.111355 0.110599 0.109654 0.108936 0.108682 0.108206 0.114987 0.115256 0.116871 
0.118398 0.120054 0.121636 0.12314 0.12455 0.125837 0.126704 0.12742 0.127935 
0.128088 0.12788 0.127617 0.127287 0.12664 0.126154 0.125581 0.12495 0.123976 
0.122915 0.121767 0.120348 0.119114 0.117799 0.116464 0.114877 0.113579 0.11283 
0.115551 0.117153 0.118929 0.12069 0.122339 0.123929 0.125437 0.12684 0.128121 
0.129203 0.129961 0.13048 0.130771 0.130787 0.13056 0.130216 0.129788 0.129183 
0.128496 0.127766 0.126981 0.126011 0.124875 0.123614 0.122199 0.120767 0.119322 
0.1178 0.116203 0.115113 0.116342 0.117785 0.119307 0.120837 0.122304 0.123703 
0.125013 0.126208 0.127269 0.128159 0.128826 0.129288 0.129554 0.129616 0.129492 
0.129235 0.128871 0.128377 0.127786 0.127114 0.126359 0.125475 0.124467 0.123353 
0.122129 0.120846 0.119517 0.11814 0.116752 0.115609 0.117019 0.118364 0.11976 
0.121144 0.122473 0.123726 0.124886 0.125933 0.12685 0.127614 0.128206 0.128626 
0.128878 0.128963 0.128898 0.128704 0.128397 0.127981 0.127467 0.126861 0.12616 
0.125353 0.124441 0.12343 0.122328 0.121155 0.11992 0.118635 0.117329 0.11607 
0.117499 0.11883 0.120159 0.121448 0.122669 0.123807 0.124849 0.125781 0.12659 
0.127264 0.127794 0.128177 0.128416 0.128516 0.128485 0.128336 0.12808 0.127722 
0.127269 0.126724 0.126086 0.125352 0.124522 0.123598 0.122586 0.121495 0.120333 
0.119108 0.117834 0.116531 0.117856 0.119183 0.120465 0.121682 0.122818 0.123864 
0.124809 0.125647 0.12637 0.126972 0.127447 0.127796 0.128021 0.128126 0.128117 
0.128002 0.127788 0.127479 0.12708 0.126592 0.126014 0.125346 0.124586 0.123736 
0.122798 0.121775 0.120672 0.119491 0.118239 0.116927 0.118127 0.11945 0.1207 
0.121864 0.122935 0.123907 0.124777 0.12554 0.126194 0.126737 0.127167 0.127487 
0.127697 0.127803 0.127808 0.127718 0.127538 0.12727 0.126917 0.126479 0.125956 
0.125346 0.124647 0.123859 0.122981 0.122013 0.120956 0.11981 0.118577 0.117263 
0.118332 0.119653 0.120878 0.122003 0.123024 0.123939 0.12475 0.125455 0.126055 
0.126551 0.126944 0.127238 0.127435 0.127538 0.127553 0.127482 0.127329 0.127095 
0.126781 0.126387 0.125912 0.125352 0.124705 0.123969 0.12314 0.122217 0.121197 
0.120078 0.11886 0.117547 0.118485 0.119804 0.121012 0.122107 0.12309 0.123962 
0.124727 0.125386 0.125943 0.126402 0.126765 0.127037 0.127222 0.127323 0.127344 
0.127287 0.127156 0.12695 0.126669 0.126313 0.125877 0.12536 0.124757 0.124064 
0.123276 0.122389 0.121399 0.120303 0.119098 0.117786 0.1186 0.119917 0.121111 
0.122184 0.123138 0.123977 0.124706 0.125329 0.125853 0.126282 0.126621 0.126875 
0.127049 0.127147 0.127172 0.127127 0.127013 0.12683 0.126577 0.126252 0.12585 
0.125369 0.124803 0.124145 0.123391 0.122535 0.12157 0.120492 0.119298 0.117986 
0.118686 0.120001 0.121185 0.122241 0.123172 0.123985 0.124686 0.125282 0.125779 
0.126184 0.126503 0.126743 0.126908 0.127003 0.127031 0.126994 0.126894 0.12673 
0.126501 0.126202 0.125829 0.125378 0.124843 0.124215 0.123489 0.122658 0.121714 
0.120651 0.119466 0.118155 0.118752 0.120065 0.121241 0.122283 0.123197 0.12399 
0.124669 0.125242 0.125718 0.126103 0.126406 0.126634 0.126791 0.126883 0.126914 
0.126884 0.126796 0.126648 0.126437 0.12616 0.125812 0.125387 0.124877 0.124275 
0.123573 0.122762 0.121836 0.120786 0.119608 0.118298 0.118804 0.120116 0.121285 
0.122316 0.123215 0.123992 0.124653 0.125208 0.125666 0.126036 0.126326 0.126543 
0.126694 0.126783 0.126815 0.126791 0.126713 0.126577 0.126383 0.126124 0.125797 
0.125394 0.124906 0.124326 0.123644 0.122851 0.12194 0.120902 0.119731 0.118422 
0.118848 0.120158 0.121321 0.122343 0.12323 0.123992 0.124638 0.125178 0.125621 
0.125978 0.126256 0.126465 0.12661 0.126697 0.12673 0.126711 0.12664 0.126515 
0.126335 0.126093 0.125783 0.125399 0.12493 0.124369 0.123705 0.122928 0.12203 
0.121002 0.119837 0.118529 0.118888 0.120196 0.121354 0.122367 0.123244 0.123994 
0.124626 0.125152 0.125583 0.125927 0.126195 0.126396 0.126536 0.12662 0.126654 
0.126639 0.126574 0.126459 0.126291 0.126063 0.125769 0.125401 0.12495 0.124406 
0.123758 0.122996 0.12211 0.121091 0.119931 0.118625 0.118927 0.120233 0.121386 
0.122391 0.123258 0.123996 0.124616 0.12513 0.125548 0.125881 0.12614 0.126333 
0.126468 0.12655 0.126584 0.126571 0.126513 0.126406 0.126248 0.126033 0.125754 
0.125402 0.124966 0.124438 0.123805 0.123057 0.122182 0.121171 0.120017 0.118712 
0.118967 0.120272 0.121419 0.122417 0.123274 0.124001 0.124609 0.12511 0.125516 
0.125839 0.126088 0.126273 0.126403 0.126482 0.126516 0.126506 0.126453 0.126354 
0.126206 0.126003 0.125737 0.125399 0.124979 0.124466 0.123847 0.123112 0.122248 
0.121247 0.120098 0.118795 0.119012 0.120314 0.121456 0.122446 0.123293 0.124008 
0.124604 0.125093 0.125486 0.125798 0.126037 0.126215 0.126339 0.126416 0.126449 
0.126441 0.126392 0.126301 0.126162 0.12597 0.125717 0.125394 0.124989 0.12449 
0.123886 0.123164 0.122312 0.121319 0.120175 0.118874 0.119062 0.120361 0.121498 
0.122479 0.123316 0.124019 0.124601 0.125077 0.125458 0.125757 0.125987 0.126157 
0.126275 0.126348 0.12638 0.126374 0.126329 0.126245 0.126115 0.125934 0.125694 
0.125385 0.124995 0.124512 0.123923 0.123214 0.122374 0.12139 0.120252 0.118954 
0.119119 0.120416 0.121546 0.122518 0.123343 0.124033 0.124601 0.125062 0.12543 
0.125717 0.125935 0.126096 0.126208 0.126277 0.126308 0.126303 0.126263 0.126184 
0.126064 0.125894 0.125668 0.125373 0.124999 0.124532 0.123958 0.123264 0.122436 
0.121462 0.120331 0.119035 0.119185 0.120478 0.121601 0.122563 0.123375 0.12405 
0.124603 0.125049 0.125401 0.125674 0.125881 0.126032 0.126137 0.126201 0.126231 
0.126227 0.12619 0.126119 0.126007 0.12585 0.125637 0.125358 0.125 0.12455 
0.123993 0.123315 0.1225 0.121537 0.120413 0.11912 0.11926 0.12055 0.121665 
0.122615 0.123413 0.124072 0.124607 0.125035 0.125371 0.125629 0.125823 0.125964 
0.12606 0.12612 0.126147 0.126144 0.126112 0.126047 0.125945 0.1258 0.125601 
0.125338 0.124998 0.124567 0.124028 0.123367 0.122568 0.121616 0.1205 0.119211 
0.119347 0.120632 0.121738 0.122675 0.123456 0.124097 0.124613 0.125022 0.125339 
0.125581 0.125761 0.12589 0.125978 0.126032 0.126056 0.126054 0.126026 0.125968 
0.125876 0.125743 0.12556 0.125315 0.124994 0.124583 0.124065 0.123422 0.12264 
0.121702 0.120595 0.11931 0.119446 0.120727 0.121822 0.122744 0.123507 0.124126 
0.12462 0.125007 0.125305 0.125528 0.125692 0.125809 0.125887 0.125935 0.125957 
0.125956 0.125931 0.12588 0.125798 0.125679 0.125512 0.125287 0.124987 0.124598 
0.124102 0.123482 0.122718 0.121796 0.1207 0.119419 0.119561 0.120836 0.121919 
0.122823 0.123564 0.124159 0.124628 0.124991 0.125266 0.125469 0.125616 0.125719 
0.125788 0.125829 0.125848 0.125847 0.125826 0.125782 0.125712 0.125607 0.125458 
0.125253 0.124977 0.124612 0.124142 0.123546 0.122804 0.1219 0.120816 0.119541 
0.119693 0.120961 0.12203 0.122913 0.123629 0.124196 0.124637 0.124972 0.125222 
0.125403 0.125532 0.12562 0.125678 0.125712 0.125728 0.125727 0.12571 0.125674 
0.125615 0.125525 0.125395 0.125213 0.124962 0.124626 0.124184 0.123616 0.1229 
0.122016 0.120947 0.119679 0.119846 0.121106 0.122157 0.123016 0.123702 0.124237 
0.124645 0.124949 0.125171 0.125328 0.125437 0.12551 0.125556 0.125583 0.125595 
0.125595 0.125581 0.125553 0.125506 0.125432 0.125323 0.125165 0.124942 0.124637 
0.124228 0.123693 0.123007 0.122148 0.121096 0.119837 0.120025 0.121274 0.122305 
0.123133 0.123783 0.12428 0.124651 0.124921 0.125111 0.125243 0.12533 0.125387 
0.125421 0.125441 0.125449 0.125449 0.12544 0.12542 0.125384 0.125327 0.125239 
0.125107 0.124916 0.124646 0.124275 0.123777 0.123127 0.122298 0.121268 0.120018 
0.120235 0.121472 0.122475 0.123266 0.123873 0.124326 0.124653 0.124884 0.12504 
0.125144 0.125209 0.125249 0.125272 0.125284 0.125289 0.125289 0.125283 0.125271 
0.125247 0.125207 0.125141 0.125038 0.12488 0.12465 0.124322 0.123869 0.123262 
0.12247 0.121467 0.120231 0.120485 0.121704 0.122673 0.123418 0.123972 0.12437 
0.124648 0.124834 0.124955 0.125029 0.125072 0.125095 0.125107 0.125112 0.125114 
0.125114 0.125112 0.125106 0.125094 0.125071 0.125027 0.124953 0.124832 0.124646 
0.124368 0.123969 0.123415 0.12267 0.121701 0.120482 0.120786 0.121982 0.122904 
0.123588 0.124076 0.12441 0.12463 0.124768 0.12485 0.124895 0.124916 0.124924 
0.124925 0.124924 0.124923 0.124923 0.124924 0.124925 0.124923 0.124915 0.124894 
0.124849 0.124767 0.124629 0.124409 0.124074 0.123586 0.122902 0.12198 0.120785 
0.121155 0.122317 0.123173 0.123776 0.12418 0.124437 0.124593 0.124679 0.124722 
0.124739 0.12474 0.124735 0.124729 0.124723 0.124719 0.124719 0.124722 0.124728 
0.124735 0.12474 0.124738 0.124721 0.124679 0.124592 0.124436 0.124179 0.123775 
0.123172 0.122316 0.121154 0.121624 0.122729 0.123486 0.123974 0.124271 0.124438 
0.124523 0.124558 0.124566 0.124558 0.124545 0.124531 0.124519 0.12451 0.124505 
0.124505 0.12451 0.124519 0.124531 0.124545 0.124558 0.124565 0.124558 0.124523 
0.124438 0.12427 0.123974 0.123486 0.122729 0.121623 0.122257 0.12325 0.123837 
0.124157 0.124316 0.124382 0.124398 0.124389 0.12437 0.124348 0.124328 0.124311 
0.124298 0.12429 0.124285 0.124285 0.12429 0.124298 0.124311 0.124328 0.124348 
0.12437 0.124389 0.124398 0.124382 0.124315 0.124157 0.123836 0.12325 0.122257 
0.12304 0.123762 0.12409 0.12422 0.124258 0.124256 0.124238 0.124215 0.124194 
0.124176 0.124161 0.124151 0.124143 0.124138 0.124136 0.124136 0.124138 0.124143 
0.124151 0.124161 0.124176 0.124194 0.124215 0.124238 0.124256 0.124258 0.12422 
0.124089 0.123762 0.12304 346.369 626.665 752.411 850.11 913.176 952.69 
979.891 997.5 1006.8 1010.93 1011.25 1009.41 1006.22 1000.52 991.868 
983.037 977.884 978.198 980.311 981.778 983.232 986.299 986.661 976.9 
952.542 911.755 848.131 752.925 631.114 349.984 284.007 579.839 720.638 
819.348 883.93 923.162 947.592 961.68 968.188 970.037 968.357 965.35 
962.028 957.588 951.841 946.632 944.512 946.345 949.499 952.306 954.812 
957.926 958.188 949.466 926.737 886.472 821.594 724.407 585.738 288.597 
265.725 534.516 685.022 788.077 854.424 893.585 915.659 926.136 929.124 
928.02 923.879 919.116 914.929 911.105 907.864 906.193 907.035 910.49 
914.779 919.191 923.154 926.864 927.491 920.161 899.498 860.3 794.281 
691.927 541.828 271.457 262.086 501.659 655.289 760.46 827.902 867.326 
887.889 895.417 894.99 890.972 884.657 878.261 872.864 869.125 868.036 
869.77 873.28 877.926 882.923 888.789 894.199 898.347 898.855 892.397 
873.669 835.87 769.671 664.542 509.923 268.432 260.241 488.272 636.302 
738.631 805.703 845.37 864.909 870.122 866.681 860.026 852.237 844.771 
837.981 833.79 834.546 839.635 845.469 850.494 855.51 862.677 869.675 
873.934 873.466 867.22 850.503 814.768 750.015 647.125 497.075 266.665 
257.143 489.262 625.691 721.397 787.213 827.435 846.345 849.966 844.234 
835.204 827.013 819.413 811.093 805.824 808.128 816.636 824.474 828.667 
832.846 841.162 850.212 854.129 851.427 844.429 829.794 796.592 734.132 
637.134 498.006 263.114 256.763 493.296 618.243 707.318 772.353 813.945 
832.5 835.277 828.33 816.816 809.423 802.86 792.977 785.943 789.359 
801.277 810.922 812.836 815.472 824.718 836.694 839.893 833.648 824.712 
812.056 781.412 720.413 628.943 501.028 261.785 284.863 502.675 615.437 
701.357 766.78 810.217 827.676 829.285 821.559 806.327 800.176 795.582 
784.035 774.435 778.542 794.143 805.951 804.301 805.124 815.402 831.953 
834.78 824.374 812.902 802.884 775.518 714.408 624.275 508.646 289.082 
0.0463119 0.0467091 0.0470594 0.0473633 0.0476215 0.0478347 0.0480038 0.0481297 0.0482133 
0.0482558 0.0482586 0.0482229 0.0481505 0.048043 0.0479022 0.04773 0.0475286 0.0473 
0.0470463 0.0467698 0.0464727 0.046157 0.0458248 0.045478 0.0451183 0.0447471 0.0443658 
0.0439753 0.0435763 0.0431694 0.0463921 0.0467886 0.0471378 0.04744 0.047696 0.0479064 
0.0480719 0.0481934 0.0482719 0.0483087 0.0483049 0.0482621 0.0481818 0.0480658 0.047916 
0.0477344 0.0475231 0.0472845 0.0470207 0.0467342 0.0464273 0.0461023 0.0457613 0.0454064 
0.0450395 0.0446622 0.0442759 0.0438816 0.0434801 0.0430717 0.0464434 0.0468399 0.0471887 
0.0474903 0.0477452 0.047954 0.0481176 0.0482368 0.0483125 0.0483458 0.0483381 0.0482908 
0.0482055 0.048084 0.0479281 0.0477401 0.0475221 0.0472765 0.0470056 0.0467119 0.046398 
0.0460661 0.0457186 0.0453578 0.0449855 0.0446037 0.0442137 0.0438166 0.0434134 0.0430043 
0.0465077 0.0469043 0.0472527 0.0475535 0.0478071 0.0480141 0.0481752 0.0482913 0.0483634 
0.0483924 0.0483797 0.0483267 0.048235 0.0481065 0.0479431 0.047747 0.0475205 0.0472661 
0.0469862 0.0466836 0.0463607 0.0460203 0.0456647 0.0452965 0.0449176 0.0445301 0.0441355 
0.0437351 0.0433298 0.0429201 0.0465702 0.0469669 0.047315 0.0476151 0.0478676 0.048073 
0.048232 0.0483454 0.0484141 0.0484391 0.0484217 0.0483633 0.0482655 0.0481302 0.0479594 
0.0477553 0.0475203 0.0472571 0.0469682 0.0466564 0.0463246 0.0459754 0.0456116 0.0452357 
0.04485 0.0444566 0.0440573 0.0436535 0.043246 0.0428356 0.0466347 0.0470315 0.0473795 
0.047679 0.0479305 0.0481344 0.0482914 0.0484021 0.0484675 0.0484885 0.0484663 0.0484023 
0.0482983 0.0481559 0.0479774 0.0477649 0.047521 0.0472484 0.04695 0.0466285 0.0462871 
0.0459286 0.0455559 0.0451718 0.0447788 0.0443792 0.0439748 0.0435673 0.0431575 0.0427463 
0.0466993 0.0470964 0.0474443 0.0477433 0.0479939 0.0481965 0.0483517 0.04846 0.0485222 
0.0485394 0.0485126 0.0484432 0.0483328 0.0481834 0.047997 0.047776 0.047523 0.0472408 
0.0469324 0.0466009 0.0462494 0.0458812 0.0454992 0.0451065 0.0447058 0.0442996 0.0438899 
0.0434783 0.0430661 0.042654 0.0467642 0.0471616 0.0475095 0.0478082 0.0480582 0.0482597 
0.0484132 0.0485193 0.0485786 0.048592 0.0485607 0.048486 0.0483694 0.0482128 0.0480184 
0.0477887 0.0475263 0.0472342 0.0469154 0.0465734 0.0462115 0.045833 0.0454413 0.0450395 
0.0446307 0.0442174 0.043802 0.0433863 0.0429715 0.0425585 0.0468289 0.0472266 0.0475746 
0.0478733 0.0481228 0.0483234 0.0484756 0.0485797 0.0486364 0.0486464 0.0486107 0.0485307 
0.0484079 0.0482442 0.0480418 0.0478031 0.0475311 0.0472287 0.0468993 0.0465464 0.0461735 
0.0457843 0.0453823 0.044971 0.0445536 0.0441329 0.0437115 0.0432913 0.0428738 0.0424598 
0.0468932 0.0472913 0.0476396 0.0479383 0.0481876 0.0483877 0.0485388 0.0486413 0.0486956 
0.0487024 0.0486626 0.0485775 0.0484486 0.0482778 0.0480672 0.0478195 0.0475375 0.0472246 
0.0468841 0.0465199 0.0461356 0.0457351 0.0453224 0.0449011 0.0444746 0.0440461 0.0436183 
0.0431934 0.042773 0.042358 0.0469568 0.0473554 0.0477041 0.0480031 0.0482525 0.0484524 
0.0486028 0.0487039 0.0487562 0.0487601 0.0487165 0.0486265 0.0484915 0.0483136 0.0480948 
0.0478379 0.0475458 0.047222 0.0468701 0.046494 0.0460978 0.0456856 0.0452616 0.0448297 
0.0443937 0.043957 0.0435225 0.0430926 0.0426691 0.0422529 0.0470195 0.0474186 0.047768 
0.0480675 0.0483173 0.0485173 0.0486673 0.0487676 0.0488181 0.0488195 0.0487723 0.0486776 
0.0485368 0.0483518 0.0481247 0.0478584 0.047556 0.047221 0.0468572 0.0464689 0.0460603 
0.0456358 0.0452 0.044757 0.044311 0.0438656 0.043424 0.0429888 0.0425619 0.0421446 
0.047081 0.0474808 0.0478309 0.0481313 0.0483818 0.0485823 0.0487325 0.0488322 0.0488815 
0.0488807 0.0488302 0.048731 0.0485845 0.0483925 0.0481572 0.0478814 0.0475683 0.0472218 
0.0468458 0.0464447 0.0460232 0.0455859 0.0451376 0.044683 0.0442264 0.0437719 0.0433227 
0.0428819 0.0424515 0.0420329 0.0471411 0.0475417 0.0478928 0.0481943 0.0484459 0.0486473 
0.048798 0.0488978 0.0489463 0.0489436 0.0488903 0.0487869 0.0486348 0.0484358 0.0481922 
0.0479068 0.0475829 0.0472245 0.0468358 0.0464215 0.0459865 0.0455358 0.0450746 0.0446078 
0.04414 0.0436758 0.0432187 0.042772 0.0423379 0.0419178 0.0471995 0.0476009 0.0479532 
0.0482562 0.0485094 0.0487122 0.048864 0.0489642 0.0490124 0.0490085 0.0489526 0.0488453 
0.0486879 0.048482 0.04823 0.0479348 0.0475999 0.0472293 0.0468275 0.0463995 0.0459504 
0.0454857 0.0450109 0.0445312 0.0440518 0.0435774 0.0431119 0.0426589 0.0422208 0.0417993 
0.0472559 0.0476583 0.0480121 0.0483169 0.0485721 0.0487768 0.0489303 0.0490316 0.04908 