# vtk DataFile Version 5.1
vtk output
ASCII
DATASET UNSTRUCTURED_GRID
POINTS 9610 double
0.1016 1.5 0.13098490238 0.1016 1.45 0.12904334068 0.1016 1.4 0.13187651336 
0.1016 1.35 0.12813037634 0.1016 1.3 0.12862718105 0.1016 1.25 0.1385114044 
0.1016 1.2 0.14134685695 0.1016 1.15 0.13386248052 0.1016 1.1 0.12584146857 
0.1016 1.05 0.1156399399 0.1016 1 0.1045832634 0.1016 0.95 0.10941039771 
0.1016 0.9 0.11066174507 0.1016 0.85 0.10626742989 0.1016 0.8 0.11094460636 
0.1016 0.75 0.12919001281 0.1016 0.7 0.14879082143 0.1016 0.65 0.15487360954 
0.1016 0.6 0.1479280889 0.1016 0.55 0.148271963 0.1016 0.5 0.15470503271 
0.1016 0.45 0.16150058806 0.1016 0.4 0.15196421742 0.1016 0.35 0.13916304708 
0.1016 0.3 0.13678921759 0.1016 0.25 0.14458087087 0.1016 0.2 0.14479809999 
0.1016 0.15 0.13326923549 0.1016 0.1 0.12809693813 0.1016 0.05 0.12411984801 
0.1016 0 0.12181563675 5.08 1.5 0.28700000048 5.08 1.45 0.28700000048 
5.08 1.4 0.28700000048 5.08 1.35 0.28700000048 5.08 1.3 0.28700000048 
5.08 1.25 0.28700000048 5.08 1.2 0.28700000048 5.08 1.15 0.28700000048 
5.08 1.1 0.28700000048 5.08 1.05 0.28700000048 5.08 1 0.28700000048 
5.08 0.95 0.28700000048 5.08 0.9 0.28700000048 5.08 0.85 0.28700000048 
5.08 0.8 0.28700000048 5.08 0.75 0.28700000048 5.08 0.7 0.28700000048 
5.08 0.65 0.28700000048 5.08 0.6 0.28700000048 5.08 0.55 0.28700000048 
5.08 0.5 0.28700000048 5.08 0.45 0.28700000048 5.08 0.4 0.28700000048 
5.08 0.35 0.28700000048 5.08 0.3 0.28700000048 5.08 0.25 0.28700000048 
5.08 0.2 0.28700000048 5.08 0.15 0.28700000048 5.08 0.1 0.28700000048 
5.08 0.05 0.28700000048 5.08 0 0.28700000048 0.151384 1.5 0.14074411988 
0.151384 1.45 0.14069108665 0.151384 1.4 0.1544368118 0.151384 1.35 0.14165307581 
0.151384 1.3 0.13775797188 0.151384 1.25 0.15754827857 0.151384 1.2 0.15958768129 
0.151384 1.15 0.14473886788 0.151384 1.1 0.13673268259 0.151384 1.05 0.13058258593 
0.151384 1 0.10490593314 0.151384 0.95 0.12069683522 0.151384 0.9 0.12364161015 
0.151384 0.85 0.11566002667 0.151384 0.8 0.11674194783 0.151384 0.75 0.13676582277 
0.151384 0.7 0.16071967781 0.151384 0.65 0.16866022348 0.151384 0.6 0.14796037972 
0.151384 0.55 0.15477955341 0.151384 0.5 0.16083323956 0.151384 0.45 0.18056127429 
0.151384 0.4 0.16370430589 0.151384 0.35 0.14675289392 0.151384 0.3 0.14086666703 
0.151384 0.25 0.15673054755 0.151384 0.2 0.16065242887 0.151384 0.15 0.13885679841 
0.151384 0.1 0.14067848027 0.151384 0.05 0.13668775558 0.151384 0 0.13072785735 
0.201168 1.5 0.15819047391 0.201168 1.45 0.16981138289 0.201168 1.4 0.1838324368 
0.201168 1.35 0.1678943187 0.201168 1.3 0.16286498308 0.201168 1.25 0.18384899199 
0.201168 1.2 0.17824742198 0.201168 1.15 0.16605396569 0.201168 1.1 0.15515097976 
0.201168 1.05 0.15774175525 0.201168 1 0.14041532576 0.201168 0.95 0.13143028319 
0.201168 0.9 0.14984020591 0.201168 0.85 0.15246957541 0.201168 0.8 0.1515095979 
0.201168 0.75 0.15612746775 0.201168 0.7 0.17627468705 0.201168 0.65 0.18800888956 
0.201168 0.6 0.16611249745 0.201168 0.55 0.17687571049 0.201168 0.5 0.18396522105 
0.201168 0.45 0.19433827698 0.201168 0.4 0.18798545003 0.201168 0.35 0.17473083735 
0.201168 0.3 0.15916481614 0.201168 0.25 0.17034995556 0.201168 0.2 0.17147065699 
0.201168 0.15 0.16099752486 0.201168 0.1 0.16484448314 0.201168 0.05 0.1513453871 
0.201168 0 0.16544950008 0.250952 1.5 0.18435785174 0.250952 1.45 0.19351120293 
0.250952 1.4 0.19608923793 0.250952 1.35 0.19253478944 0.250952 1.3 0.19888809323 
0.250952 1.25 0.20568905771 0.250952 1.2 0.19688914716 0.250952 1.15 0.18769916892 
0.250952 1.1 0.18891656399 0.250952 1.05 0.18522630632 0.250952 1 0.16941827536 
0.250952 0.95 0.16307355464 0.250952 0.9 0.17541544139 0.250952 0.85 0.16921032965 
0.250952 0.8 0.17192786932 0.250952 0.75 0.17868806422 0.250952 0.7 0.20244324207 
0.250952 0.65 0.21809674799 0.250952 0.6 0.20097254217 0.250952 0.55 0.20614700019 
0.250952 0.5 0.21138383448 0.250952 0.45 0.22037528455 0.250952 0.4 0.20512619615 
0.250952 0.35 0.1995216161 0.250952 0.3 0.18446156383 0.250952 0.25 0.19617629051 
0.250952 0.2 0.19259688258 0.250952 0.15 0.18680296838 0.250952 0.1 0.19236606359 
0.250952 0.05 0.17557147145 0.250952 0 0.19881784916 0.300736 1.5 0.20803849399 
0.300736 1.45 0.22450494766 0.300736 1.4 0.24111500382 0.300736 1.35 0.21438613534 
0.300736 1.3 0.22131481767 0.300736 1.25 0.22628968954 0.300736 1.2 0.21725788713 
0.300736 1.15 0.20920580626 0.300736 1.1 0.20691625774 0.300736 1.05 0.22400972247 
0.300736 1 0.18486399949 0.300736 0.95 0.18706932664 0.300736 0.9 0.19810760021 
0.300736 0.85 0.19651654363 0.300736 0.8 0.19310407341 0.300736 0.75 0.2003094703 
0.300736 0.7 0.21430878341 0.300736 0.65 0.23479162157 0.300736 0.6 0.22170259058 
0.300736 0.55 0.23194031417 0.300736 0.5 0.23785816133 0.300736 0.45 0.23204995692 
0.300736 0.4 0.22343459725 0.300736 0.35 0.22023206949 0.300736 0.3 0.21283400059 
0.300736 0.25 0.22301922739 0.300736 0.2 0.21971012652 0.300736 0.15 0.17962399125 
0.300736 0.1 0.2110966444 0.300736 0.05 0.19656068087 0.300736 0 0.24524112046 
0.35052 1.5 0.23964858055 0.35052 1.45 0.24523301423 0.35052 1.4 0.24971304834 
0.35052 1.35 0.23865287006 0.35052 1.3 0.24538913369 0.35052 1.25 0.24782094359 
0.35052 1.2 0.24153222144 0.35052 1.15 0.233415097 0.35052 1.1 0.23135259748 
0.35052 1.05 0.21715019643 0.35052 1 0.22459840775 0.35052 0.95 0.21855171025 
0.35052 0.9 0.21806654334 0.35052 0.85 0.22691498697 0.35052 0.8 0.22012341022 
0.35052 0.75 0.21798722446 0.35052 0.7 0.232863307 0.35052 0.65 0.24847079813 
0.35052 0.6 0.24300558865 0.35052 0.55 0.25229287148 0.35052 0.5 0.26376393437 
0.35052 0.45 0.25297173858 0.35052 0.4 0.24934431911 0.35052 0.35 0.24087257683 
0.35052 0.3 0.23842160404 0.35052 0.25 0.2375600636 0.35052 0.2 0.23254838586 
0.35052 0.15 0.23718424141 0.35052 0.1 0.23579727113 0.35052 0.05 0.22965782881 
0.35052 0 0.25924360752 0.400304 1.5 0.26702955365 0.400304 1.45 0.26817452908 
0.400304 1.4 0.26565343142 0.400304 1.35 0.26500684023 0.400304 1.3 0.26505717635 
0.400304 1.25 0.26354458928 0.400304 1.2 0.25844630599 0.400304 1.15 0.25671294332 
0.400304 1.1 0.25340560079 0.400304 1.05 0.23356860876 0.400304 1 0.25225549936 
0.400304 0.95 0.24546273053 0.400304 0.9 0.23446214199 0.400304 0.85 0.24969096482 
0.400304 0.8 0.24719122052 0.400304 0.75 0.24667654932 0.400304 0.7 0.25291892886 
0.400304 0.65 0.25470194221 0.400304 0.6 0.25518780947 0.400304 0.55 0.25630384684 
0.400304 0.5 0.2586440146 0.400304 0.45 0.25918364525 0.400304 0.4 0.26043963432 
0.400304 0.35 0.26102674007 0.400304 0.3 0.26245349646 0.400304 0.25 0.26278477907 
0.400304 0.2 0.25635531545 0.400304 0.15 0.26862892509 0.400304 0.1 0.26161062717 
0.400304 0.05 0.265086025 0.400304 0 0.26442378759 0.450088 1.5 0.28265070915 
0.450088 1.45 0.28088587523 0.450088 1.4 0.27671536803 0.450088 1.35 0.27414673567 
0.450088 1.3 0.27094569802 0.450088 1.25 0.2672098279 0.450088 1.2 0.26364666224 
0.450088 1.15 0.26238209009 0.450088 1.1 0.25781831145 0.450088 1.05 0.24908962846 
0.450088 1 0.25460880995 0.450088 0.95 0.25088435411 0.450088 0.9 0.24486613274 
0.450088 0.85 0.25194895267 0.450088 0.8 0.25449594855 0.450088 0.75 0.25501379371 
0.450088 0.7 0.25526738167 0.450088 0.65 0.25308889151 0.450088 0.6 0.25173547864 
0.450088 0.55 0.249731794 0.450088 0.5 0.24910634756 0.450088 0.45 0.25234863162 
0.450088 0.4 0.25744634867 0.450088 0.35 0.26308688521 0.450088 0.3 0.26787254214 
0.450088 0.25 0.26960581541 0.450088 0.2 0.26810011268 0.450088 0.15 0.27262535691 
0.450088 0.1 0.27277028561 0.450088 0.05 0.27467289567 0.450088 0 0.27231183648 
0.499872 1.5 0.28937992454 0.499872 1.45 0.28271993995 0.499872 1.4 0.27569061518 
0.499872 1.35 0.27069506049 0.499872 1.3 0.2667106688 0.499872 1.25 0.26305139065 
0.499872 1.2 0.25997006893 0.499872 1.15 0.25736629963 0.499872 1.1 0.25318554044 
0.499872 1.05 0.24881272018 0.499872 1 0.24795123935 0.499872 0.95 0.24576666951 
0.499872 0.9 0.24349635839 0.499872 0.85 0.24539999664 0.499872 0.8 0.24769371748 
0.499872 0.75 0.2483304888 0.499872 0.7 0.24755699933 0.499872 0.65 0.24606649578 
0.499872 0.6 0.24466592073 0.499872 0.55 0.24306814373 0.499872 0.5 0.24243229628 
0.499872 0.45 0.24462074041 0.499872 0.4 0.24914360046 0.499872 0.35 0.25459751487 
0.499872 0.3 0.25968202949 0.499872 0.25 0.26266974211 0.499872 0.2 0.26418399811 
0.499872 0.15 0.26696276665 0.499872 0.1 0.27035832405 0.499872 0.05 0.27347487211 
0.499872 0 0.27521446347 0.549656 1.5 0.29273241758 0.549656 1.45 0.27979254723 
0.549656 1.4 0.27130940557 0.549656 1.35 0.26628467441 0.549656 1.3 0.26313856244 
0.549656 1.25 0.26045027375 0.549656 1.2 0.25786238909 0.549656 1.15 0.25525033474 
0.549656 1.1 0.25178965926 0.549656 1.05 0.24799740314 0.549656 1 0.24623936415 
0.549656 0.95 0.24491244555 0.549656 0.9 0.24339947104 0.549656 0.85 0.24334028363 
0.549656 0.8 0.24473537505 0.549656 0.75 0.24538643658 0.549656 0.7 0.24460078776 
0.549656 0.65 0.24482603371 0.549656 0.6 0.2452493012 0.549656 0.55 0.24486640096 
0.549656 0.5 0.24376308918 0.549656 0.45 0.24450233579 0.549656 0.4 0.24700298905 
0.549656 0.35 0.25010564923 0.549656 0.3 0.2543900609 0.549656 0.25 0.25757065415 
0.549656 0.2 0.25942894816 0.549656 0.15 0.26160904765 0.549656 0.1 0.26674219966 
0.549656 0.05 0.27257248759 0.549656 0 0.2764262259 0.59944 1.5 0.29500153661 
0.59944 1.45 0.27773916721 0.59944 1.4 0.27557533979 0.59944 1.35 0.27220237255 
0.59944 1.3 0.27159395814 0.59944 1.25 0.27030301094 0.59944 1.2 0.26895669103 
0.59944 1.15 0.26760774851 0.59944 1.1 0.26604533195 0.59944 1.05 0.2627620697 
0.59944 1 0.26236996055 0.59944 0.95 0.26216238737 0.59944 0.9 0.2610040009 
0.59944 0.85 0.26005521417 0.59944 0.8 0.26114472747 0.59944 0.75 0.26208913326 
0.59944 0.7 0.26031038165 0.59944 0.65 0.26213416457 0.59944 0.6 0.2632920444 
0.59944 0.55 0.26411387324 0.59944 0.5 0.26217928529 0.59944 0.45 0.26220142841 
0.59944 0.4 0.26336017251 0.59944 0.35 0.26302781701 0.59944 0.3 0.26631760597 
[...]
CELL_DATA 9270
FIELD FieldData 7
B_Stress_n_p_m2 1 9270 float
0.120469 0.116273 0.118287 0.118821 0.120541 0.121438 0.119308 0.116333 0.114213 
0.109712 0.108089 0.10885 0.107638 0.106179 0.107432 0.111684 0.115251 0.113818 
0.114177 0.115878 0.119665 0.120476 0.118538 0.117199 0.119567 0.121969 0.121059 
0.118558 0.115323 0.120496 0.0643113 0.0618412 0.0740118 0.0727543 0.0722284 0.0719045 
0.0709812 0.0694741 0.0687742 0.0680275 0.0658895 0.0667163 0.0668715 0.0662572 0.0654199 
0.065898 0.0671692 0.0668319 0.066395 0.0672717 0.0681285 0.0698192 0.0699572 0.0690264 
0.069182 0.0706752 0.0718448 0.07252 0.0607998 0.0642984 0.0641125 0.0838175 0.0896045 
0.0899185 0.0889195 0.0878629 0.0861674 0.0853532 0.0850506 0.0825877 0.0812646 0.0805846 
0.0805943 0.0802137 0.0807125 0.0816771 0.0839363 0.0842536 0.0837774 0.0845657 0.0851153 
0.0855959 0.0858388 0.0854396 0.0854082 0.0864006 0.0859358 0.0878453 0.0818167 0.0636853 
0.0653262 0.0905118 0.0967318 0.0969344 0.0967682 0.0949335 0.0927931 0.091705 0.0919193 
0.09052 0.0877344 0.087545 0.0878095 0.0862012 0.0862612 0.0876889 0.0904117 0.0920089 
0.0926675 0.093941 0.0933312 0.0933632 0.0924732 0.0926618 0.0926724 0.0936968 0.0924082 
0.0915672 0.0862168 0.0640775 0.0707493 0.0982977 0.107618 0.1072 0.106851 0.105515 
0.103571 0.101877 0.0993141 0.101264 0.0985384 0.0973941 0.0982934 0.0974891 0.0962696 
0.0971107 0.0985681 0.100852 0.101743 0.103798 0.104576 0.103788 0.103414 0.103359 
0.103377 0.103846 0.10598 0.101606 0.0955151 0.0686751 0.077515 0.105765 0.114543 
0.116017 0.115213 0.113829 0.112544 0.110814 0.10876 0.107238 0.108641 0.106702 
0.106333 0.107093 0.106123 0.105305 0.105309 0.105954 0.106353 0.106963 0.108898 
0.109782 0.111343 0.112243 0.113283 0.113542 0.114695 0.114743 0.104971 0.0757385 
0.081599 0.110396 0.118557 0.120029 0.118395 0.116651 0.11521 0.113976 0.112732 
0.110683 0.111211 0.110187 0.108759 0.109524 0.109251 0.108378 0.107276 0.106109 
0.105964 0.105673 0.106521 0.108773 0.111383 0.114083 0.116209 0.117811 0.118473 
0.118286 0.10887 0.0798447 0.0821457 0.110372 0.117924 0.118552 0.116859 0.115028 
0.113509 0.112159 0.110882 0.109724 0.108704 0.10804 0.107152 0.106775 0.106685 
0.106005 0.105055 0.104134 0.103705 0.103404 0.103905 0.105555 0.107833 0.110497 
0.112924 0.114948 0.116361 0.115747 0.107909 0.0793864 0.0822496 0.109868 0.117106 
0.117682 0.116433 0.114997 0.113712 0.112452 0.1112 0.110286 0.10919 0.108502 
0.107769 0.107124 0.106865 0.10631 0.105911 0.10567 0.105578 0.10539 0.105633 
0.106495 0.107762 0.109629 0.111538 0.113291 0.114555 0.114107 0.106948 0.0790717 
0.0846008 0.112104 0.120315 0.121638 0.121296 0.120613 0.119949 0.119297 0.118579 
0.11791 0.117266 0.116791 0.116147 0.115482 0.115155 0.114734 0.114419 0.114492 
0.114683 0.114717 0.11471 0.115007 0.115467 0.116239 0.117344 0.118369 0.118858 
0.117499 0.109562 0.0815499 0.0866736 0.115215 0.124903 0.127105 0.127533 0.127512 
0.127444 0.127391 0.127415 0.127204 0.126977 0.126806 0.126463 0.12591 0.125507 
0.125248 0.124821 0.124741 0.124763 0.124936 0.124938 0.125007 0.125187 0.125198 
0.125535 0.125813 0.125724 0.123366 0.114043 0.0850947 0.0868276 0.116656 0.126296 
0.128834 0.129375 0.129532 0.12963 0.129726 0.129837 0.12996 0.129862 0.129726 
0.129542 0.129256 0.128892 0.128574 0.1284 0.128164 0.128043 0.128019 0.128146 
0.128211 0.128246 0.128331 0.1283 0.128312 0.127944 0.125694 0.11615 0.0867026 
0.0876185 0.116898 0.126149 0.128455 0.128949 0.12907 0.12913 0.129178 0.129217 
0.129228 0.129149 0.129031 0.128863 0.128637 0.12839 0.128166 0.127991 0.127839 
0.127755 0.12773 0.127762 0.127794 0.127831 0.12788 0.127911 0.127918 0.127554 
0.125375 0.116224 0.0870935 0.0881047 0.117244 0.126247 0.128429 0.128875 0.128973 
0.129016 0.129044 0.129059 0.12905 0.128986 0.128888 0.128754 0.128586 0.128402 
0.128229 0.128088 0.127966 0.127889 0.127853 0.127857 0.127872 0.127895 0.127931 
0.127957 0.127949 0.127593 0.125493 0.116555 0.0875553 0.0885158 0.117507 0.126306 
0.128376 0.12877 0.128838 0.128858 0.128866 0.128861 0.128837 0.128779 0.128696 
0.128586 0.128456 0.128316 0.128182 0.128067 0.12797 0.127903 0.127865 0.127855 
0.127859 0.127875 0.127902 0.12793 0.127922 0.127588 0.125561 0.116798 0.0879281 
0.088871 0.117731 0.126362 0.128342 0.12869 0.128733 0.128733 0.128725 0.128707 
0.128675 0.128622 0.12855 0.12846 0.128356 0.128247 0.128141 0.128048 0.127969 
0.127912 0.127875 0.12786 0.127858 0.12787 0.127893 0.127922 0.127918 0.127605 
0.125644 0.117028 0.0882816 0.0891946 0.117922 0.126404 0.128308 0.128618 0.128638 
0.128622 0.128601 0.128574 0.128537 0.128487 0.128424 0.128348 0.128265 0.128177 
0.128092 0.128016 0.127952 0.127903 0.12787 0.127853 0.12785 0.12786 0.127883 
0.127913 0.127914 0.127623 0.125721 0.117238 0.0886175 0.0894982 0.118091 0.126436 
0.128273 0.128552 0.128554 0.128524 0.128493 0.128459 0.12842 0.128372 0.128315 
0.128251 0.128182 0.12811 0.128041 0.127979 0.127926 0.127885 0.127856 0.127841 
0.127839 0.127849 0.127872 0.127905 0.127912 0.127639 0.125793 0.117437 0.088944 
0.0897893 0.118243 0.12646 0.128237 0.12849 0.128478 0.128437 0.128398 0.128359 
0.128317 0.128271 0.12822 0.128164 0.128105 0.128046 0.127989 0.127938 0.127894 
0.12786 0.127836 0.127824 0.127824 0.127835 0.12786 0.127895 0.127908 0.127653 
0.12586 0.117626 0.0892642 0.0900728 0.118385 0.126477 0.128199 0.12843 0.128406 
0.128357 0.128312 0.128269 0.128227 0.128182 0.128135 0.128085 0.128035 0.127985 
0.127937 0.127895 0.127859 0.12783 0.127812 0.127803 0.127805 0.127819 0.127845 
0.127884 0.127902 0.127663 0.12592 0.117807 0.0895801 0.0903521 0.118519 0.126489 
0.128159 0.128371 0.128339 0.128284 0.128234 0.128188 0.128145 0.128101 0.128057 
0.128013 0.127969 0.127926 0.127886 0.12785 0.127821 0.127798 0.127783 0.127778 
0.127783 0.127799 0.127828 0.12787 0.127893 0.127669 0.125975 0.117982 0.0898932 
0.0906292 0.118647 0.126497 0.128119 0.128314 0.128275 0.128215 0.128162 0.128114 
0.12807 0.128028 0.127986 0.127946 0.127907 0.127869 0.127835 0.127805 0.127781 
0.127763 0.127753 0.127751 0.127759 0.127778 0.127809 0.127853 0.127881 0.127671 
0.126026 0.118151 0.0902045 0.090906 0.118772 0.126503 0.128078 0.128258 0.128213 
0.12815 0.128094 0.128045 0.128001 0.127959 0.12792 0.127883 0.127847 0.127815 
0.127785 0.12776 0.12774 0.127727 0.12772 0.127721 0.127732 0.127753 0.127787 
0.127834 0.127866 0.12767 0.126072 0.118316 0.0905147 0.0911835 0.118895 0.126507 
0.128036 0.128203 0.128153 0.128088 0.12803 0.12798 0.127936 0.127895 0.127858 
0.127823 0.127791 0.127762 0.127736 0.127715 0.127699 0.127689 0.127686 0.12769 
0.127703 0.127727 0.127763 0.127812 0.127848 0.127665 0.126113 0.118477 0.0908243 
0.0914625 0.119017 0.12651 0.127994 0.128149 0.128096 0.128028 0.127969 0.127919 
0.127874 0.127834 0.127798 0.127766 0.127736 0.12771 0.127688 0.12767 0.127658 
0.127651 0.12765 0.127657 0.127673 0.127699 0.127737 0.127788 0.127828 0.127657 
0.126151 0.118635 0.0911338 0.0917437 0.119137 0.126512 0.127952 0.128096 0.128039 
0.12797 0.127911 0.12786 0.127816 0.127776 0.127742 0.127711 0.127684 0.12766 
0.127641 0.127626 0.127616 0.127611 0.127613 0.127623 0.127641 0.127669 0.127709 
0.127762 0.127805 0.127647 0.126186 0.118789 0.0914436 0.0920275 0.119257 0.126513 
0.12791 0.128043 0.127984 0.127914 0.127854 0.127803 0.127759 0.127721 0.127687 
0.127658 0.127632 0.127611 0.127594 0.127581 0.127574 0.127572 0.127576 0.127588 
0.127608 0.127638 0.127679 0.127734 0.12778 0.127633 0.126217 0.118941 0.0917541 
0.0923142 0.119377 0.126514 0.127869 0.127991 0.12793 0.127859 0.127799 0.127748 
0.127704 0.127666 0.127634 0.127606 0.127582 0.127562 0.127547 0.127537 0.127531 
0.127531 0.127538 0.127551 0.127573 0.127605 0.127648 0.127705 0.127753 0.127618 
0.126245 0.119089 0.0920655 0.092604 0.119497 0.126514 0.127827 0.127939 0.127876 
0.127805 0.127745 0.127694 0.127651 0.127614 0.127582 0.127555 0.127533 0.127515 
0.127501 0.127492 0.127489 0.127491 0.127499 0.127514 0.127538 0.127571 0.127616 
0.127673 0.127725 0.1276 0.126271 0.119236 0.0923781 0.0928971 0.119617 0.126515 
0.127786 0.127889 0.127824 0.127752 0.127692 0.127641 0.127598 0.127562 0.127531 
0.127505 0.127484 0.127467 0.127455 0.127448 0.127446 0.12745 0.12746 0.127476 
0.127501 0.127536 0.127582 0.127641 0.127695 0.127581 0.126294 0.11938 0.0926921 
0.0931936 0.119737 0.126514 0.127745 0.127838 0.127772 0.1277 0.12764 0.12759 
0.127547 0.127511 0.127481 0.127456 0.127436 0.127421 0.12741 0.127404 0.127404 
0.127409 0.12742 0.127438 0.127464 0.127499 0.127547 0.127607 0.127663 0.12756 
0.126315 0.119523 0.0930078 0.0934936 0.119857 0.126514 0.127704 0.127789 0.127721 
0.127649 0.127589 0.127539 0.127497 0.127462 0.127432 0.127408 0.127389 0.127374 
0.127365 0.12736 0.127361 0.127367 0.127379 0.127399 0.127426 0.127462 0.127511 
0.127572 0.127631 0.127537 0.126334 0.119664 0.0933253 0.0937973 0.119978 0.126514 
0.127664 0.127739 0.12767 0.127598 0.127538 0.127489 0.127447 0.127412 0.127384 
0.12736 0.127342 0.127328 0.12732 0.127316 0.127318 0.127325 0.127338 0.127359 
0.127387 0.127425 0.127474 0.127536 0.127597 0.127512 0.126351 0.119803 0.0936449 
0.0941045 0.120099 0.126513 0.127623 0.127691 0.12762 0.127548 0.127489 0.127439 
0.127398 0.127364 0.127335 0.127313 0.127295 0.127282 0.127275 0.127272 0.127275 
0.127283 0.127297 0.127318 0.127347 0.127386 0.127436 0.127499 0.127562 0.127486 
0.126366 0.11994 0.0939666 0.0944155 0.12022 0.126512 0.127583 0.127642 0.12757 
0.127499 0.127439 0.12739 0.127349 0.127315 0.127288 0.127266 0.127249 0.127237 
0.12723 0.127228 0.127231 0.12724 0.127256 0.127278 0.127307 0.127347 0.127397 
0.127461 0.127526 0.127459 0.126379 0.120077 0.0942908 0.0947302 0.12034 0.12651 
0.127543 0.127594 0.127521 0.127449 0.12739 0.127341 0.127301 0.127267 0.12724 
0.127219 0.127202 0.127191 0.127185 0.127184 0.127188 0.127198 0.127214 0.127236 
0.127267 0.127307 0.127358 0.127422 0.127489 0.127431 0.12639 0.120211 0.0946174 
0.0950486 0.120461 0.126508 0.127503 0.127546 0.127472 0.1274 0.127341 0.127293 
0.127253 0.12722 0.127193 0.127172 0.127156 0.127145 0.12714 0.127139 0.127144 
0.127155 0.127171 0.127195 0.127226 0.127266 0.127318 0.127383 0.127451 0.127402 
0.1264 0.120345 0.0949466 0.0953707 0.120582 0.126506 0.127463 0.127498 0.127423 
0.127352 0.127293 0.127245 0.127205 0.127172 0.127146 0.127125 0.12711 0.1271 
0.127095 0.127095 0.127101 0.127112 0.127129 0.127153 0.127184 0.127225 0.127277 
0.127343 0.127413 0.127372 0.126408 0.120477 0.0952787 0.0956967 0.120703 0.126503 
0.127422 0.127451 0.127375 0.127304 0.127245 0.127197 0.127157 0.127125 0.127099 
0.127079 0.127064 0.127054 0.12705 0.127051 0.127057 0.127068 0.127086 0.12711 
0.127143 0.127184 0.127236 0.127302 0.127373 0.12734 0.126415 0.120608 0.0956135 
0.0960265 0.120824 0.1265 0.127382 0.127403 0.127327 0.127255 0.127197 0.127149 
0.12711 0.127078 0.127052 0.127033 0.127018 0.127009 0.127005 0.127006 0.127012 
0.127024 0.127043 0.127067 0.1271 0.127142 0.127195 0.127261 0.127334 0.127308 
0.126421 0.120739 0.0959514 0.0963602 0.120945 0.126496 0.127342 0.127356 0.127279 
0.127208 0.127149 0.127102 0.127063 0.127031 0.127006 0.126986 0.126972 0.126963 
0.12696 0.126961 0.126968 0.126981 0.126999 0.127024 0.127058 0.1271 0.127153 
0.12722 0.127293 0.127275 0.126425 0.120868 0.0962923 0.0966977 0.121065 0.126492 
0.127302 0.127309 0.127231 0.12716 0.127102 0.127054 0.127016 0.126984 0.126959 
0.12694 0.126926 0.126918 0.126914 0.126916 0.126924 0.126936 0.126955 0.126981 
0.127015 0.127057 0.127111 0.127178 0.127253 0.127241 0.126428 0.120995 0.0966365 
0.0970391 0.121185 0.126487 0.127261 0.127262 0.127183 0.127112 0.127054 0.127007 
0.126969 0.126937 0.126913 0.126894 0.12688 0.126872 0.126869 0.126871 0.126879 
0.126892 0.126911 0.126937 0.126971 0.127014 0.127068 0.127135 0.127211 0.127207 
0.126429 0.121122 0.0969839 0.0973845 0.121304 0.126482 0.127221 0.127216 0.127136 
0.127065 0.127007 0.12696 0.126922 0.126891 0.126866 0.126847 0.126834 0.126826 
0.126824 0.126826 0.126834 0.126848 0.126867 0.126893 0.126928 0.12697 0.127025 
0.127092 0.127169 0.127172 0.126429 0.121248 0.0973346 0.0977338 0.121424 0.126476 
0.12718 0.127169 0.127088 0.127017 0.12696 0.126913 0.126875 0.126844 0.12682 
0.126801 0.126788 0.126781 0.126778 0.126781 0.126789 0.126803 0.126823 0.126849 
0.126884 0.126927 0.126981 0.127049 0.127127 0.127136 0.126428 0.121373 0.0976888 
0.0980872 0.121542 0.126469 0.127139 0.127122 0.127041 0.12697 0.126912 0.126866 
0.126828 0.126797 0.126773 0.126755 0.126742 0.126735 0.126733 0.126736 0.126744 
0.126758 0.126778 0.126805 0.126839 0.126883 0.126937 0.127006 0.127084 0.127099 
0.126426 0.121496 0.0980466 0.0984446 0.12166 0.126461 0.127098 0.127075 0.126994 
0.126923 0.126865 0.126819 0.126781 0.126751 0.126726 0.126709 0.126696 0.126689 
0.126687 0.12669 0.126699 0.126713 0.126733 0.12676 0.126795 0.126839 0.126893 
0.126962 0.127041 0.127062 0.126423 0.121619 0.0984079 0.0988061 0.121777 0.126453 
0.127057 0.127029 0.126946 0.126876 0.126818 0.126772 0.126734 0.126704 0.12668 
0.126662 0.12665 0.126643 0.126641 0.126644 0.126653 0.126668 0.126688 0.126715 
0.12675 0.126794 0.126849 0.126917 0.126998 0.127025 0.126418 0.12174 0.098773 
0.0991717 0.121894 0.126444 0.127016 0.126982 0.126899 0.126828 0.126771 0.126725 
0.126687 0.126657 0.126633 0.126616 0.126603 0.126597 0.126595 0.126599 0.126608 
0.126622 0.126643 0.12667 0.126705 0.126749 0.126804 0.126873 0.126954 0.126986 
0.126412 0.121861 0.0991419 0.0995415 0.12201 0.126434 0.126974 0.126935 0.126852 
0.126781 0.126724 0.126678 0.12664 0.12661 0.126587 0.126569 0.126557 0.12655 
0.126549 0.126553 0.126562 0.126577 0.126598 0.126625 0.12666 0.126704 0.126759 
0.126828 0.12691 0.126948 0.126406 0.12198 0.0995146 0.0999155 0.122125 0.126423 
0.126932 0.126888 0.126804 0.126734 0.126677 0.126631 0.126593 0.126563 0.12654 
0.126523 0.126511 0.126504 0.126503 0.126507 0.126516 0.126531 0.126552 0.12658 
0.126615 0.126659 0.126714 0.126783 0.126866 0.126908 0.126398 0.122098 0.0998912 
0.100294 0.122239 0.126411 0.12689 0.126842 0.126757 0.126687 0.12663 0.126584 
0.126546 0.126517 0.126493 0.126476 0.126464 0.126458 0.126456 0.126461 0.12647 
0.126485 0.126506 0.126534 0.126569 0.126614 0.126669 0.126738 0.126821 0.126869 
0.126388 0.122215 0.100272 0.100676 0.122352 0.126399 0.126848 0.126795 0.12671 
0.126639 0.126582 0.126537 0.126499 0.12647 0.126446 0.126429 0.126417 0.126411 
0.12641 0.126414 0.126424 0.126439 0.12646 0.126488 0.126524 0.126568 0.126624 
0.126693 0.126777 0.126829 0.126378 0.12233 0.100657 0.101063 0.122464 0.126385 
0.126805 0.126748 0.126662 0.126592 0.126535 0.126489 0.126452 0.126423 0.126399 
0.126382 0.126371 0.126365 0.126364 0.126368 0.126378 0.126393 0.126414 0.126442 
0.126478 0.126522 0.126578 0.126647 0.126731 0.126788 0.126367 0.122445 0.101046 
0.101455 0.122575 0.126371 0.126762 0.126701 0.126615 0.126545 0.126488 0.126442 
0.126405 0.126375 0.126352 0.126335 0.126324 0.126318 0.126317 0.126321 0.126331 
0.126346 0.126368 0.126396 0.126432 0.126476 0.126532 0.126601 0.126686 0.126747 
0.126355 0.122558 0.101439 0.101851 0.122685 0.126356 0.126719 0.126654 0.126567 
0.126497 0.12644 0.126395 0.126358 0.126328 0.126305 0.126288 0.126277 0.126271 
0.12627 0.126275 0.126285 0.1263 0.126322 0.12635 0.126386 0.12643 0.126486 
0.126555 0.126641 0.126705 0.126341 0.122669 0.101836 0.102251 0.122794 0.12634 
0.126676 0.126607 0.12652 0.12645 0.126393 0.126348 0.12631 0.126281 0.126258 
0.126241 0.12623 0.126224 0.126223 0.126228 0.126238 0.126253 0.126275 0.126303 
0.126339 0.126384 0.12644 0.126509 0.126595 0.126663 0.126327 0.122779 0.102238 
0.102656 0.122901 0.126323 0.126632 0.126559 0.126472 0.126402 0.126346 0.1263 
0.126263 0.126234 0.126211 0.126194 0.126183 0.126177 0.126176 0.126181 0.126191 
0.126207 0.126228 0.126256 0.126293 0.126337 0.126393 0.126462 0.126549 0.126621 
0.126311 0.122888 0.102644 0.103066 0.123007 0.126305 0.126588 0.126512 0.126425 
0.126355 0.126298 0.126253 0.126216 0.126186 0.126163 0.126147 0.126136 0.12613 
0.126129 0.126134 0.126144 0.12616 0.126182 0.12621 0.126246 0.12629 0.126346 
0.126416 0.126502 0.126578 0.126294 0.122995 0.103055 0.10348 0.123112 0.126286 
0.126544 0.126465 0.126377 0.126307 0.12625 0.126205 0.126168 0.126139 0.126116 
0.1261 0.126088 0.126083 0.126082 0.126087 0.126097 0.126113 0.126135 0.126163 
0.126199 0.126244 0.1263 0.126369 0.126456 0.126535 0.126276 0.123101 0.103471 
0.103899 0.123215 0.126266 0.1265 0.126417 0.126329 0.12626 0.126203 0.126158 
0.12612 0.126091 0.126069 0.126052 0.126041 0.126035 0.126035 0.12604 0.12605 
0.126065 0.126088 0.126116 0.126152 0.126197 0.126253 0.126322 0.126409 0.126491 
0.126257 0.123205 0.103891 0.104323 0.123316 0.126245 0.126455 0.12637 0.126282 
0.126212 0.126155 0.12611 0.126073 0.126044 0.126021 0.126005 0.125993 0.125988 
0.125987 0.125992 0.126002 0.126018 0.12604 0.126069 0.126105 0.126149 0.126206 
0.126275 0.126363 0.126447 0.126237 0.123308 0.104316 0.104753 0.123416 0.126223 
0.12641 0.126322 0.126234 0.126164 0.126107 0.126062 0.126025 0.125996 0.125973 
0.125957 0.125946 0.12594 0.12594 0.125945 0.125955 0.125971 0.125993 0.126021 
0.126058 0.126102 0.126158 0.126228 0.126316 0.126403 0.126216 0.123408 0.104746 
0.105187 0.123514 0.1262 0.126365 0.126274 0.126186 0.126116 0.126059 0.126014 
0.125977 0.125948 0.125926 0.125909 0.125898 0.125893 0.125892 0.125897 0.125908 
0.125923 0.125945 0.125974 0.12601 0.126055 0.126111 0.12618 0.126268 0.126359 
0.126194 0.123507 0.10518 0.105626 0.12361 0.126177 0.126319 0.126226 0.126137 
0.126068 0.126011 0.125966 0.125929 0.1259 0.125878 0.125861 0.12585 0.125845 
0.125845 0.125849 0.12586 0.125876 0.125898 0.125926 0.125963 0.126007 0.126064 
0.126133 0.126221 0.126314 0.126171 0.123604 0.10562 0.10607 0.123704 0.126152 
0.126273 0.126178 0.126089 0.12602 0.125963 0.125918 0.125881 0.125852 0.12583 
0.125813 0.125802 0.125797 0.125797 0.125802 0.125812 0.125828 0.12585 0.125878 
0.125915 0.12596 0.126016 0.126085 0.126174 0.126268 0.126147 0.123699 0.106065 
0.10652 0.123796 0.126126 0.126227 0.12613 0.126041 0.125972 0.125915 0.12587 
0.125833 0.125804 0.125782 0.125765 0.125755 0.125749 0.125749 0.125754 0.125764 
0.12578 0.125802 0.125831 0.125867 0.125912 0.125968 0.126037 0.126126 0.126223 
0.126121 0.123792 0.106515 0.106975 0.123887 0.126099 0.126181 0.126082 0.125993 
0.125923 0.125867 0.125822 0.125785 0.125756 0.125734 0.125717 0.125706 0.125701 
0.125701 0.125706 0.125716 0.125732 0.125754 0.125783 0.125819 0.125864 0.12592 
0.125989 0.126078 0.126177 0.126095 0.123882 0.106971 0.107435 0.123975 0.126071 
0.126134 0.126034 0.125944 0.125875 0.125818 0.125774 0.125737 0.125708 0.125685 
0.125669 0.125658 0.125653 0.125653 0.125658 0.125668 0.125684 0.125706 0.125735 
0.125771 0.125816 0.125872 0.125941 0.12603 0.126131 0.126067 0.123971 0.107431 
0.107901 0.124061 0.126042 0.126087 0.125985 0.125896 0.125827 0.12577 0.125725 
0.125688 0.12566 0.125637 0.125621 0.12561 0.125605 0.125605 0.12561 0.12562 
0.125636 0.125658 0.125687 0.125723 0.125768 0.125824 0.125893 0.125982 0.126084 
0.126039 0.124057 0.107897 0.108372 0.124144 0.126012 0.12604 0.125936 0.125847 
0.125778 0.125721 0.125677 0.12564 0.125611 0.125589 0.125573 0.125562 0.125557 
0.125556 0.125561 0.125572 0.125588 0.12561 0.125638 0.125675 0.125719 0.125776 
0.125844 0.125934 0.126037 0.126009 0.124141 0.108369 0.108849 0.124225 0.125981 
0.125993 0.125888 0.125798 0.125729 0.125673 0.125628 0.125592 0.125563 0.125541 
0.125524 0.125514 0.125508 0.125508 0.125513 0.125524 0.12554 0.125562 0.12559 
0.125627 0.125671 0.125727 0.125796 0.125885 0.12599 0.125978 0.124222 0.108846 
0.109331 0.124303 0.125949 0.125945 0.125839 0.125749 0.125681 0.125624 0.12558 
0.125543 0.125515 0.125492 0.125476 0.125465 0.12546 0.12546 0.125465 0.125475 
0.125491 0.125513 0.125542 0.125578 0.125622 0.125679 0.125747 0.125837 0.125943 