# vtk DataFile Version 5.1
vtk output
ASCII
DATASET UNSTRUCTURED_GRID
POINTS 4929 double
0.1016 1.5 0.22900000215 0.1016 1.45 0.20299999416 0.1016 1.4 0.19099999964 
0.1016 1.35 0.17299999297 0.1016 1.3 0.14800000191 0.1016 1.25 0.11999999732 
0.1016 1.2 0.10400000215 0.1016 1.15 0.093999996781 0.1016 1.1 0.078000001609 
0.1016 1.05 0.065999999642 0.1016 1 0.030999999493 0.1016 0.95 3.6517617466e-19 
0.1016 0.9 -1.9439354441e-19 0.1016 0.85 2.7747045729e-18 0.1016 0.8 -6.2414168658e-19 
0.1016 0.75 -4.8768079102e-18 0.1016 0.7 0.026555787772 0.1016 0.65 0.052741039544 
0.1016 0.6 0.076094537973 0.1016 0.55 0.097360961139 0.1016 0.5 0.12115270644 
0.1016 0.45 0.13974973559 0.1016 0.4 0.16143712401 0.1016 0.35 0.18807560205 
0.1016 0.3 0.21729597449 0.1016 0.25 0.24471183121 0.1016 0.2 0.26786640286 
0.1016 0.15 0.28401228786 0.1016 0.1 0.28726634383 0.1016 0.05 0.28563213348 
0.1016 0 0.28404605389 5.08 1.5 0.28700000048 5.08 1.45 0.28700000048 
5.08 1.4 0.28700000048 5.08 1.35 0.28700000048 5.08 1.3 0.28700000048 
5.08 1.25 0.28700000048 5.08 1.2 0.28700000048 5.08 1.15 0.28700000048 
5.08 1.1 0.28700000048 5.08 1.05 0.28700000048 5.08 1 0.28700000048 
5.08 0.95 0.28700000048 5.08 0.9 0.28700000048 5.08 0.85 0.28700000048 
5.08 0.8 0.28700000048 5.08 0.75 0.28700000048 5.08 0.7 0.28700000048 
5.08 0.65 0.28700000048 5.08 0.6 0.28700000048 5.08 0.55 0.28700000048 
5.08 0.5 0.28700000048 5.08 0.45 0.28700000048 5.08 0.4 0.28700000048 
5.08 0.35 0.28700000048 5.08 0.3 0.28700000048 5.08 0.25 0.28700000048 
5.08 0.2 0.28700000048 5.08 0.15 0.28700000048 5.08 0.1 0.28700000048 
5.08 0.05 0.28700000048 5.08 0 0.28700000048 0.12737462728 1.5 0.24325218797 
0.12737462728 1.45 0.21104358137 0.12737462728 1.4 0.19238869846 0.12737462728 1.35 0.17760328948 
0.12737462728 1.3 0.15496727824 0.12737462728 1.25 0.12569969893 0.12737462728 1.2 0.10908164829 
0.12737462728 1.15 0.095522604883 0.12737462728 1.1 0.081466704607 0.12737462728 1.05 0.072714030743 
0.12737462728 1 0.046061512083 0.12737462728 0.95 0.017909724265 0.12737462728 0.9 0.0042766048573 
0.12737462728 0.85 0.0045113186352 0.12737462728 0.8 0.0056367744692 0.12737462728 0.75 0.00971495267 
0.12737462728 0.7 0.028019111603 0.12737462728 0.65 0.040616840124 0.12737462728 0.6 0.064691357315 
0.12737462728 0.55 0.084325030446 0.12737462728 0.5 0.11217490584 0.12737462728 0.45 0.12861070037 
0.12737462728 0.4 0.15165251493 0.12737462728 0.35 0.18002678454 0.12737462728 0.3 0.21187371016 
0.12737462728 0.25 0.24163198471 0.12737462728 0.2 0.26714733243 0.12737462728 0.15 0.28726950288 
0.12737462728 0.1 0.2892742753 0.12737462728 0.05 0.28767204285 0.12737462728 0 0.28635084629 
0.15441581276 1.5 0.25648573041 0.15441581276 1.45 0.21856100857 0.15441581276 1.4 0.19437117875 
0.15441581276 1.35 0.18238553405 0.15441581276 1.3 0.16248032451 0.15441581276 1.25 0.13287214935 
0.15441581276 1.2 0.11541104317 0.15441581276 1.15 0.099444836378 0.15441581276 1.1 0.084170691669 
0.15441581276 1.05 0.078326553106 0.15441581276 1 0.060692436993 0.15441581276 0.95 0.039002165198 
0.15441581276 0.9 0.013144792058 0.15441581276 0.85 0.010374231264 0.15441581276 0.8 0.0091152498499 
0.15441581276 0.75 0.01408557035 0.15441581276 0.7 0.030615659431 0.15441581276 0.65 0.033146381378 
0.15441581276 0.6 0.058719053864 0.15441581276 0.55 0.074963368475 0.15441581276 0.5 0.1064786762 
0.15441581276 0.45 0.12094581872 0.15441581276 0.4 0.14591152966 0.15441581276 0.35 0.17494337261 
0.15441581276 0.3 0.20777963102 0.15441581276 0.25 0.23876665533 0.15441581276 0.2 0.26598548889 
0.15441581276 0.15 0.2899261713 0.15441581276 0.1 0.29001265764 0.15441581276 0.05 0.28905645013 
0.15441581276 0 0.28807336092 0.18278579477 1.5 0.26307821274 0.18278579477 1.45 0.22642950714 
0.18278579477 1.4 0.1997218281 0.18278579477 1.35 0.18786722422 0.18278579477 1.3 0.16921976209 
0.18278579477 1.25 0.14515067637 0.18278579477 1.2 0.12112555653 0.18278579477 1.15 0.10586035252 
0.18278579477 1.1 0.086513802409 0.18278579477 1.05 0.08287730813 0.18278579477 1 0.06976044178 
0.18278579477 0.95 0.052467390895 0.18278579477 0.9 0.029285794124 0.18278579477 0.85 0.016341643408 
0.18278579477 0.8 0.011541181244 0.18278579477 0.75 0.015848029405 0.18278579477 0.7 0.025930022821 
0.18278579477 0.65 0.035856448114 0.18278579477 0.6 0.055762261152 0.18278579477 0.55 0.075217880309 
0.18278579477 0.5 0.099953897297 0.18278579477 0.45 0.12084390223 0.18278579477 0.4 0.14530034363 
0.18278579477 0.35 0.17462287843 0.18278579477 0.3 0.2049831152 0.18278579477 0.25 0.23585183918 
0.18278579477 0.2 0.26585289836 0.18278579477 0.15 0.2888596952 0.18278579477 0.1 0.28993198276 
0.18278579477 0.05 0.28976795077 0.18278579477 0 0.28913551569 0.21254987001 1.5 0.26931813359 
0.21254987001 1.45 0.2352642864 0.21254987001 1.4 0.20614717901 0.21254987001 1.35 0.19317680597 
0.21254987001 1.3 0.17661081254 0.21254987001 1.25 0.15634429455 0.21254987001 1.2 0.12759692967 
0.21254987001 1.15 0.1120808199 0.21254987001 1.1 0.090407036245 0.21254987001 1.05 0.086722679436 
0.21254987001 1 0.076169647276 0.21254987001 0.95 0.062584914267 0.21254987001 0.9 0.045327365398 
0.21254987001 0.85 0.028657635674 0.21254987001 0.8 0.021944832057 0.21254987001 0.75 0.023641474545 
0.21254987001 0.7 0.029262015596 0.21254987001 0.65 0.041912470013 0.21254987001 0.6 0.059523720294 
0.21254987001 0.55 0.079864770174 0.21254987001 0.5 0.099590860307 0.21254987001 0.45 0.12441115826 
0.21254987001 0.4 0.14844107628 0.21254987001 0.35 0.17687094212 0.21254987001 0.3 0.20408986509 
0.21254987001 0.25 0.23630769551 0.21254987001 0.2 0.26652264595 0.21254987001 0.15 0.28760686517 
0.21254987001 0.1 0.28862559795 0.21254987001 0.05 0.28965547681 0.21254987001 0 0.29105952382 
0.24377654385 1.5 0.27670475841 0.24377654385 1.45 0.24692180753 0.24377654385 1.4 0.2147128284 
0.24377654385 1.35 0.19806678593 0.24377654385 1.3 0.18521976471 0.24377654385 1.25 0.16492836177 
0.24377654385 1.2 0.13739959896 0.24377654385 1.15 0.11755931377 0.24377654385 1.1 0.099594458938 
0.24377654385 1.05 0.089777708054 0.24377654385 1 0.082944884896 0.24377654385 0.95 0.070593953133 
0.24377654385 0.9 0.059474226087 0.24377654385 0.85 0.048903804272 0.24377654385 0.8 0.044607840478 
0.24377654385 0.75 0.042000193149 0.24377654385 0.7 0.046987779438 0.24377654385 0.65 0.050456181169 
0.24377654385 0.6 0.069917045534 0.24377654385 0.55 0.087806522846 0.24377654385 0.5 0.10750702024 
0.24377654385 0.45 0.13111552596 0.24377654385 0.4 0.15455074608 0.24377654385 0.35 0.18173232675 
0.24377654385 0.3 0.20648828149 0.24377654385 0.25 0.24240489304 0.24377654385 0.2 0.2689614892 
0.24377654385 0.15 0.28697261214 0.24377654385 0.1 0.2873955965 0.24377654385 0.05 0.28842830658 
0.24377654385 0 0.29414603114 0.27653768798 1.5 0.28005877137 0.27653768798 1.45 0.26011475921 
0.27653768798 1.4 0.23158526421 0.27653768798 1.35 0.20769739151 0.27653768798 1.3 0.19245226681 
0.27653768798 1.25 0.1788803488 0.27653768798 1.2 0.15325163305 0.27653768798 1.15 0.13070741296 
0.27653768798 1.1 0.11269905418 0.27653768798 1.05 0.096032902598 0.27653768798 1 0.086908183992 
0.27653768798 0.95 0.078935444355 0.27653768798 0.9 0.073532365263 0.27653768798 0.85 0.070125535131 
0.27653768798 0.8 0.069787807763 0.27653768798 0.75 0.064158089459 0.27653768798 0.7 0.068030297756 
0.27653768798 0.65 0.068511001766 0.27653768798 0.6 0.083670206368 0.27653768798 0.55 0.10034229606 
0.27653768798 0.5 0.12272065133 0.27653768798 0.45 0.14361990988 0.27653768798 0.4 0.16551217437 
0.27653768798 0.35 0.19206507504 0.27653768798 0.3 0.21884259582 0.27653768798 0.25 0.24977074564 
0.27653768798 0.2 0.27411347628 0.27653768798 0.15 0.2866640985 0.27653768798 0.1 0.28717821836 
0.27653768798 0.05 0.28826677799 0.27653768798 0 0.29316610098 0.31090870586 1.5 0.2786629796 
0.31090870586 1.45 0.27084198594 0.31090870586 1.4 0.25322517753 0.31090870586 1.35 0.22321467102 
0.31090870586 1.3 0.20170013607 0.31090870586 1.25 0.19265766442 0.31090870586 1.2 0.16992503405 
0.31090870586 1.15 0.149120152 0.31090870586 1.1 0.13008320332 0.31090870586 1.05 0.108135961 
0.31090870586 1 0.093201287091 0.31090870586 0.95 0.087324924767 0.31090870586 0.9 0.08390147239 
0.31090870586 0.85 0.08412180841 0.31090870586 0.8 0.088710524142 0.31090870586 0.75 0.083009794354 
0.31090870586 0.7 0.087728209794 0.31090870586 0.65 0.092074781656 0.31090870586 0.6 0.10305671394 
0.31090870586 0.55 0.11944558471 0.31090870586 0.5 0.14346434176 0.31090870586 0.45 0.16141034663 
0.31090870586 0.4 0.1808360815 0.31090870586 0.35 0.20654344559 0.31090870586 0.3 0.23452733457 
0.31090870586 0.25 0.25769463181 0.31090870586 0.2 0.27940934896 0.31090870586 0.15 0.28567609191 
0.31090870586 0.1 0.28665179014 0.31090870586 0.05 0.28752306104 0.31090870586 0 0.28968384862 
0.34696870625 1.5 0.27654325962 0.34696870625 1.45 0.27383038402 0.34696870625 1.4 0.26974126697 
0.34696870625 1.35 0.24170699716 0.34696870625 1.3 0.21865959466 0.34696870625 1.25 0.19689035416 
0.34696870625 1.2 0.18062274158 0.34696870625 1.15 0.16691325605 0.34696870625 1.1 0.14852122962 
0.34696870625 1.05 0.12791614234 0.34696870625 1 0.10731401294 0.34696870625 0.95 0.095794267952 
0.34696870625 0.9 0.088895045221 0.34696870625 0.85 0.089206360281 0.34696870625 0.8 0.09667892009 
0.34696870625 0.75 0.098116584122 0.34696870625 0.7 0.1020585224 0.34696870625 0.65 0.114223212 
0.34696870625 0.6 0.12585785985 0.34696870625 0.55 0.14438787103 0.34696870625 0.5 0.16205976903 
0.34696870625 0.45 0.18064364791 0.34696870625 0.4 0.19719150662 0.34696870625 0.35 0.2214576453 
0.34696870625 0.3 0.24308027327 0.34696870625 0.25 0.26763701439 0.34696870625 0.2 0.28155896068 
0.34696870625 0.15 0.28356176615 0.34696870625 0.1 0.2845274508 0.34696870625 0.05 0.28468537331 
0.34696870625 0 0.28823295236 0.3848006853 1.5 0.2758923471 0.3848006853 1.45 0.27486085892 
0.3848006853 1.4 0.27277165651 0.3848006853 1.35 0.26031553745 0.3848006853 1.3 0.23705476522 
[...]
CELL_DATA 4740
FIELD FieldData 7
B_Stress_n_p_m2 1 4740 float
0.334427 0.33427 0.338053 0.339712 0.337667 0.338267 0.340896 0.344061 0.349537 
0.35137 0.342958 0.326687 0.307632 0.277447 0.173579 0.0804561 0.0540204 0.0445422 
0.0371067 0.0328275 0.0297915 0.0277825 0.0267916 0.0266091 0.0268654 0.0272651 0.0276442 
0.0260422 0.0253563 0.0255699 0.339265 0.333679 0.334261 0.336135 0.334426 0.332648 
0.334341 0.335138 0.340596 0.344763 0.341809 0.328539 0.30921 0.28524 0.223653 
0.15975 0.117164 0.0875354 0.0717871 0.0617095 0.0544731 0.0490654 0.0455669 0.0430345 
0.0410098 0.0389516 0.0366463 0.0315773 0.0190629 0.0492503 0.342538 0.333428 0.331305 
0.332923 0.331957 0.327403 0.327163 0.325959 0.329654 0.333824 0.333057 0.323708 
0.30335 0.280072 0.233919 0.175399 0.132943 0.104423 0.0870254 0.0745934 0.0659532 
0.0592414 0.0548928 0.051385 0.048528 0.0457349 0.0420902 0.0360375 0.0273041 0.0354614 
0.3465 0.334055 0.329053 0.330258 0.328419 0.323116 0.318554 0.316919 0.317499 
0.320759 0.319201 0.311364 0.294046 0.270342 0.231805 0.184249 0.146509 0.119904 
0.100964 0.0871976 0.0771168 0.0696933 0.064361 0.0600486 0.0567381 0.0535023 0.049188 
0.0427719 0.0360407 0.0378312 0.357723 0.340049 0.328789 0.327969 0.32644 0.320302 
0.311931 0.308912 0.306293 0.30701 0.304343 0.297098 0.283599 0.262002 0.229037 
0.190155 0.156289 0.131204 0.11197 0.0978802 0.0870209 0.0792158 0.0732489 0.0687191 
0.0653151 0.0620875 0.0572236 0.0507337 0.0448549 0.0447867 0.373541 0.355141 0.335802 
0.32813 0.32751 0.32104 0.311278 0.304147 0.298529 0.29416 0.290718 0.283712 
0.272817 0.254774 0.226455 0.193211 0.16349 0.139434 0.121546 0.107847 0.0970223 
0.0888908 0.0828774 0.0786509 0.0752182 0.0720797 0.0663553 0.0596876 0.053992 0.0523164 
0.383375 0.373769 0.352245 0.334754 0.32776 0.323086 0.314224 0.304202 0.29501 
0.285447 0.278577 0.270979 0.261029 0.245883 0.222413 0.194371 0.169448 0.147994 
0.131822 0.118892 0.108531 0.100133 0.0943434 0.0903883 0.0873463 0.0831924 0.076515 
0.0692466 0.0634041 0.0608169 0.383504 0.384621 0.372166 0.348482 0.330649 0.323471 
0.316238 0.306832 0.295468 0.281436 0.26979 0.259628 0.248846 0.234996 0.216335 
0.194231 0.17452 0.157251 0.142937 0.130782 0.121175 0.112989 0.107632 0.104048 
0.101141 0.0952414 0.0873707 0.0792147 0.0731773 0.0703814 0.38029 0.38458 0.385933 
0.367008 0.34464 0.328688 0.319403 0.311259 0.298924 0.282291 0.266707 0.253559 
0.241075 0.226954 0.211028 0.194648 0.178644 0.16564 0.15334 0.142583 0.133889 
0.127352 0.123288 0.120477 0.115952 0.108497 0.0988793 0.0900653 0.0838589 0.0809469 
0.376834 0.382069 0.388583 0.385433 0.365972 0.344809 0.328667 0.317266 0.305149 
0.289339 0.27117 0.256386 0.242456 0.228258 0.213308 0.199281 0.18588 0.175177 
0.165232 0.156212 0.149109 0.144892 0.14212 0.138767 0.131632 0.121753 0.110744 
0.101889 0.0955344 0.0925495 0.373502 0.379327 0.385566 0.392715 0.386604 0.366794 
0.344716 0.32633 0.311743 0.299023 0.283277 0.26711 0.2526 0.239801 0.225901 
0.213101 0.201584 0.191189 0.183231 0.176264 0.170758 0.167945 0.163121 0.156431 
0.146016 0.133756 0.122369 0.1139 0.107696 0.104384 0.372171 0.377625 0.383025 
0.389218 0.395371 0.387463 0.369504 0.345548 0.324361 0.309016 0.297647 0.281037 
0.266022 0.253389 0.241935 0.231798 0.222774 0.213297 0.206108 0.199974 0.195495 
0.19177 0.182976 0.171236 0.157979 0.144749 0.134065 0.125913 0.120158 0.116836 
0.374372 0.379313 0.383117 0.387289 0.391917 0.396732 0.392312 0.375908 0.353206 
0.330078 0.314876 0.298667 0.280712 0.264805 0.254089 0.244977 0.237953 0.231975 
0.225131 0.219757 0.21551 0.20819 0.197919 0.182564 0.168227 0.155976 0.146106 
0.138293 0.132786 0.130134 0.376045 0.379839 0.383854 0.386151 0.389242 0.392514 
0.394573 0.394215 0.383092 0.364122 0.343607 0.325276 0.304589 0.286481 0.270522 
0.259074 0.251289 0.245073 0.241079 0.237447 0.231448 0.220666 0.207486 0.192599 
0.179267 0.167791 0.158352 0.150959 0.14551 0.142517 0.373167 0.376898 0.380576 
0.38309 0.385068 0.387461 0.388701 0.389127 0.389659 0.384494 0.37261 0.3562 
0.339433 0.322138 0.305311 0.291326 0.279292 0.270158 0.26409 0.25695 0.247332 
0.234103 0.217782 0.203574 0.190968 0.180251 0.171272 0.164104 0.1587 0.155535 
0.371293 0.375264 0.378521 0.381563 0.383619 0.385592 0.38733 0.387474 0.387165 
0.386445 0.382889 0.377486 0.368423 0.358591 0.346709 0.333502 0.319984 0.3065 
0.29303 0.28035 0.264602 0.24706 0.231133 0.217306 0.205266 0.194884 0.186078 
0.179045 0.173522 0.170403 0.37271 0.376688 0.380741 0.384059 0.386623 0.388516 
0.38975 0.390328 0.390045 0.389162 0.386299 0.383404 0.379351 0.373737 0.366311 
0.356573 0.344296 0.330378 0.31462 0.296727 0.278755 0.262057 0.247007 0.233824 
0.222168 0.211805 0.203117 0.195848 0.190388 0.187172 0.370362 0.374482 0.378456 
0.381881 0.384542 0.38624 0.387123 0.387304 0.386665 0.385227 0.383141 0.379576 
0.375179 0.369285 0.361891 0.352847 0.34219 0.329969 0.316193 0.301216 0.286076 
0.271683 0.258399 0.246267 0.235359 0.225757 0.217455 0.210532 0.205106 0.201983 
0.363748 0.367971 0.371663 0.374668 0.376887 0.378272 0.378865 0.378693 0.377726 
0.37595 0.373352 0.369671 0.365006 0.359176 0.352136 0.343861 0.334406 0.323853 
0.312339 0.300165 0.287821 0.275803 0.264442 0.253902 0.244298 0.235722 0.228224 
0.221864 0.216778 0.213537 0.357311 0.361703 0.365238 0.36798 0.369927 0.37108 
0.371458 0.371075 0.369924 0.367994 0.365254 0.361636 0.357127 0.351672 0.345248 
0.337866 0.32958 0.320488 0.310736 0.300552 0.290241 0.280108 0.270394 0.261265 
0.252837 0.2452 0.238427 0.232573 0.227754 0.224327 0.351199 0.355586 0.35902 
0.36161 0.363395 0.364398 0.364643 0.364148 0.362922 0.360966 0.35827 0.354816 
0.350596 0.3456 0.339834 0.333325 0.326133 0.318345 0.310087 0.301526 0.292862 
0.284299 0.276007 0.268121 0.260747 0.253967 0.24785 0.242448 0.237858 0.234353 
0.345325 0.349654 0.353013 0.35551 0.357203 0.358126 0.358313 0.357792 0.356582 
0.354698 0.352151 0.348945 0.345092 0.340602 0.335498 0.32982 0.323621 0.316981 
0.309997 0.30279 0.295497 0.288252 0.28118 0.274383 0.267944 0.261933 0.256407 
0.251411 0.247029 0.243479 0.339752 0.344018 0.347321 0.349767 0.351418 0.35232 
0.352513 0.352032 0.35091 0.349172 0.346843 0.343944 0.340498 0.33653 0.332072 
0.327165 0.32186 0.31622 0.310322 0.304253 0.298106 0.291973 0.28594 0.280081 
0.274458 0.269123 0.264121 0.259485 0.255287 0.251702 0.334537 0.338744 0.342009 
0.344433 0.346082 0.347007 0.347253 0.346865 0.34588 0.344337 0.342268 0.339706 
0.336681 0.333227 0.329379 0.325176 0.320664 0.315895 0.310925 0.305817 0.300635 
0.295439 0.290289 0.285232 0.280312 0.275564 0.271019 0.266699 0.262662 0.259043 
0.329724 0.333877 0.337119 0.339543 0.341218 0.342197 0.342531 0.342268 0.341455 
0.340134 0.338345 0.336128 0.333519 0.330554 0.327268 0.3237 0.319888 0.315873 
0.311697 0.307404 0.303036 0.298632 0.294228 0.289854 0.285534 0.28129 0.277138 
0.273091 0.269191 0.26554 0.325342 0.329448 0.332677 0.335117 0.336836 0.33789 
0.338331 0.338214 0.337588 0.336501 0.334997 0.333118 0.330904 0.328393 0.325618 
0.322615 0.319416 0.316053 0.312556 0.308954 0.305273 0.301537 0.297763 0.293967 
0.290157 0.286342 0.282525 0.27871 0.274926 0.271247 0.321408 0.325471 0.328696 
0.331161 0.332935 0.334074 0.334633 0.334669 0.334234 0.333378 0.33215 0.330592 
0.328745 0.326646 0.324329 0.321824 0.319157 0.316355 0.313436 0.31042 0.30732 
0.304146 0.300904 0.297595 0.294216 0.290763 0.287231 0.283614 0.279927 0.276222 
0.317925 0.321951 0.325174 0.32767 0.329502 0.330729 0.331408 0.331594 0.331344 
0.330709 0.329738 0.328475 0.326961 0.325232 0.323318 0.321247 0.319041 0.316718 
0.314291 0.311771 0.309161 0.30646 0.303665 0.300766 0.29775 0.294604 0.291312 
0.287861 0.284256 0.280527 0.314885 0.318877 0.322103 0.324628 0.326519 0.327831 
0.328622 0.32895 0.328871 0.328439 0.327701 0.326704 0.325485 0.32408 0.322518 
0.320822 0.31901 0.317096 0.315087 0.312984 0.310787 0.308485 0.306066 0.303511 
0.300802 0.297914 0.294825 0.291514 0.287976 0.284229 0.312271 0.316234 0.319461 
0.322015 0.323958 0.325346 0.326239 0.326694 0.326769 0.326516 0.325985 0.32522 
0.32426 0.323136 0.321876 0.320501 0.319025 0.317457 0.315799 0.314049 0.312198 
0.310231 0.308128 0.305865 0.303413 0.300743 0.297825 0.294633 0.291154 0.287391 
0.310059 0.313995 0.317223 0.3198 0.321788 0.323242 0.324222 0.324787 0.324993 
0.324896 0.324542 0.323977 0.323237 0.322353 0.32135 0.320246 0.319053 0.317777 
0.316415 0.314961 0.313401 0.311716 0.309879 0.30786 0.305627 0.303142 0.300371 
0.297281 0.293851 0.290076 0.30822 0.312133 0.315359 0.317953 0.319975 0.321481 
0.322532 0.323186 0.323503 0.323534 0.32333 0.322932 0.322377 0.321694 0.320907 
0.32003 0.319074 0.318041 0.316927 0.315721 0.314406 0.312957 0.311345 0.309535 
0.307487 0.305161 0.302516 0.299513 0.296128 0.292344 0.306723 0.310613 0.313834 
0.316438 0.318483 0.320027 0.321131 0.321855 0.322258 0.322393 0.322309 0.322048 
0.321645 0.321129 0.320519 0.319831 0.319072 0.318242 0.317334 0.316336 0.315226 
0.313977 0.312556 0.310924 0.309036 0.306847 0.304311 0.301387 0.298041 0.294252 
0.305533 0.309403 0.312615 0.315221 0.317277 0.318844 0.319984 0.320757 0.321224 
0.321438 0.321448 0.321296 0.321015 0.320633 0.320169 0.319635 0.319038 0.318375 
0.317639 0.316814 0.315877 0.314799 0.313541 0.312062 0.310313 0.308245 0.305808 
0.302954 0.299645 0.295854 0.304617 0.308468 0.311667 0.314266 0.316322 0.317896 
0.319053 0.319857 0.320366 0.320637 0.320717 0.320648 0.320463 0.320187 0.319839 
0.31943 0.318965 0.31844 0.317847 0.317167 0.316377 0.315443 0.314327 0.312982 
0.311358 0.309399 0.307051 0.304262 0.300989 0.2972 0.303944 0.307776 0.310957 
0.31354 0.315582 0.31715 0.318308 0.319123 0.319655 0.319962 0.32009 0.320082 
0.319969 0.319775 0.319519 0.31921 0.318851 0.31844 0.317964 0.317406 0.316741 
0.315933 0.314941 0.313717 0.312205 0.310346 0.308082 0.305356 0.302119 0.298335 
0.303485 0.307296 0.310455 0.313012 0.315029 0.316574 0.317717 0.318526 0.319063 
0.319387 0.319545 0.319577 0.319516 0.319384 0.319199 0.318968 0.318696 0.318376 
0.317999 0.317544 0.316986 0.316288 0.315408 0.314294 0.312887 0.311124 0.308941 
0.306277 0.303078 0.299302 0.303212 0.307003 0.310132 0.312653 0.314633 0.316141 
0.317253 0.318039 0.318565 0.318889 0.31906 0.319117 0.31909 0.319003 0.318871 
0.318702 0.318498 0.318254 0.317957 0.317591 0.317126 0.316527 0.31575 0.314738 
0.313432 0.311764 0.309663 0.307063 0.303904 0.30014 0.303105 0.306873 0.309966 
0.31244 0.314368 0.315825 0.316891 0.317639 0.318139 0.318449 0.318618 0.318685 
0.31868 0.318624 0.318531 0.318409 0.318259 0.318075 0.317848 0.317557 0.317175 
0.316666 0.315984 0.315073 0.313867 0.312294 0.310279 0.307747 0.304633 0.300884 
0.303145 0.306888 0.309936 0.312351 0.314213 0.315603 0.316607 0.317304 0.317764 
0.318047 0.318203 0.318269 0.318274 0.318238 0.318173 0.318086 0.317978 0.317845 
0.317675 0.31745 0.317143 0.316718 0.316129 0.315316 0.314213 0.31274 0.310816 
0.308359 0.305296 0.301568 0.303321 0.307033 0.310026 0.312369 0.314148 0.315455 
0.316381 0.317013 0.317421 0.317668 0.317802 0.317858 0.317864 0.317838 0.317793 
0.317732 0.317658 0.317566 0.317444 0.317277 0.317039 0.316693 0.316195 0.315483 
0.314486 0.313122 0.3113 0.308928 0.305925 0.302222 0.303626 0.307302 0.310227 
0.312479 0.314156 0.315361 0.316195 0.316748 0.317095 0.317296 0.3174 0.317441 
0.317442 0.317421 0.317387 0.317346 0.317298 0.317239 0.317159 0.317043 0.316868 
0.316599 0.316191 0.315583 0.314702 0.313457 0.31175 0.309479 0.306547 0.302877 
0.304061 0.307692 0.310531 0.312669 0.314221 0.315305 0.31603 0.316491 0.316768 
0.316918 0.316988 0.317009 0.317001 0.31698 0.316954 0.316927 0.316899 0.316867 
0.316822 0.316752 0.316635 0.316439 0.316123 0.315624 0.314868 0.313758 0.312186 
0.310035 0.307191 0.303564 0.304635 0.308209 0.310935 0.31293 0.314329 0.315267 
0.315866 0.316226 0.316426 0.316522 0.316555 0.316554 0.316536 0.316513 0.316492 
0.316474 0.316461 0.31645 0.316435 0.316404 0.31634 0.316215 0.31599 0.315606 
0.314987 0.314032 0.31262 0.310617 0.307887 0.304317 0.305369 0.308863 0.311441 
0.313251 0.314461 0.315227 0.315684 0.315934 0.316054 0.316095 0.316094 0.316072 
0.316045 0.316019 0.315999 0.315989 0.315987 0.315992 0.315999 0.316001 0.315984 
0.315925 0.315789 0.315525 0.315055 0.314279 0.313061 0.311246 0.308667 0.305175 
0.3063 0.309679 0.312049 0.313616 0.314591 0.315158 0.31546 0.315597 0.31564 
0.315632 0.315601 0.315563 0.315527 0.3155 0.315482 0.315476 0.315482 0.315497 
0.315521 0.315548 0.315568 0.315567 0.315515 0.315369 0.31506 0.314487 0.313507 
0.311938 0.309566 0.306189 0.307506 0.310698 0.312759 0.313994 0.31468 0.315022 
0.315163 0.315194 0.315169 0.315122 0.31507 0.315023 0.314984 0.314957 0.314941 
0.314938 0.314948 0.314969 0.315002 0.315044 0.31509 0.315132 0.315152 0.315117 
0.314972 0.314627 0.313939 0.312703 0.310641 0.30745 0.309141 0.311966 0.313522 
0.314298 0.314637 0.314745 0.314741 0.314689 0.314623 0.314559 0.314503 0.314458 
0.314425 0.314403 0.314392 0.314391 0.3144 0.314419 0.31445 0.314493 0.314546 
0.314609 0.314673 0.314723 0.314726 0.314616 0.314277 0.3135 0.311944 0.309119 
0.311169 0.313182 0.314016 0.31431 0.314372 0.314342 0.314282 0.31422 0.314165 
0.31412 0.314085 0.314059 0.314041 0.31403 0.314024 0.314024 0.314029 0.31404 
0.314057 0.314083 0.314117 0.314161 0.314216 0.314278 0.314337 0.314367 0.314305 
0.314011 0.313176 0.311164 0.358302 0.368707 0.37193 0.372919 0.379476 0.387522 
0.3947 0.393542 0.375087 0.355292 0.329626 0.288128 0.220791 0.134018 0.0464781 
175.84 140.021 121.45 111.591 107.242 105.965 105.093 103.187 100.57 
97.6212 94.1688 89.2445 80.921 69.3106 41.0379 0.352335 0.361797 0.365937 
0.366029 0.372403 0.380633 0.390116 0.390994 0.376935 0.359013 0.33507 0.296209 
0.230213 0.145806 0.0508281 182.14 147.048 125.401 112.857 106.696 104.184 
102.975 101.803 100.243 98.2447 95.4445 90.7607 82.6147 70.2309 39.3201 
0.348024 0.355665 0.360857 0.359875 0.366399 0.373628 0.383325 0.388225 0.383078 
0.369646 0.343881 0.304855 0.241841 0.161982 0.078109 198.951 158.35 130.529 
114.734 106.783 103.086 101.414 100.628 99.9526 98.9337 96.9471 92.6855 
84.4527 70.9894 41.4515 0.342405 0.350665 0.355302 0.355375 0.360124 0.367849 
0.376691 0.38368 0.384777 0.377004 0.352902 0.312889 0.254116 0.174881 0.102591 
227.565 170.077 135.156 117.044 107.68 102.847 100.495 99.6662 99.5153 
99.3115 98.1667 94.5237 86.4554 72.2598 44.0312 0.335804 0.345098 0.350461 
0.351987 0.353941 0.362194 0.370931 0.377881 0.378509 0.371972 0.353809 0.318788 
0.265261 0.184932 0.0992861 245.141 173.929 138.41 120.116 109.85 103.943 
100.743 99.5585 99.6104 100.022 99.7142 96.9392 89.647 75.8487 46.3594 
0.330686 0.340291 0.346381 0.349072 0.349568 0.355463 0.364509 0.371021 0.370284 
0.36152 0.346442 0.321925 0.27584 0.201874 0.0689823 238.606 173.559 143.292 
125.272 113.966 106.779 102.489 100.677 100.644 101.423 101.839 100.068 
94.0122 81.6354 48.7744 0.328763 0.337563 0.343495 0.346387 0.34588 0.349392 
0.356108 0.362663 0.363907 0.355134 0.340216 0.322969 0.287423 0.232487 0.0717959 
242.414 181.839 153.387 133.254 120.046 111.145 105.494 102.82 102.44 
103.281 104.134 103.255 98.1962 87.214 52.673 0.33021 0.33591 0.341162 
0.343275 0.341882 0.343802 0.348084 0.353051 0.357479 0.353352 0.340088 0.324167 
0.299235 0.261756 0.137324 284.074 200.715 165.031 140.336 124.928 114.338 
107.467 104.054 103.38 104.232 105.39 105.362 100.394 90.7224 62.4237 
0.125608 0.126311 0.126444 0.126017 0.125048 0.123553 0.121554 0.119073 0.116139 
0.112782 0.109035 0.104936 0.100524 0.0958422 0.0909348 0.0858494 0.0806358 0.0753466 
0.0700369 0.0647647 0.0595912 0.0545809 0.0498022 0.045327 0.041231 0.0375922 0.0344892 
0.0319979 0.0301907 0.0291259 0.128833 0.129507 0.129589 0.129089 0.128018 0.126396 
0.124244 0.121586 0.118453 0.114878 0.110896 0.106546 0.101873 0.096919 0.091733 
0.0863648 0.0808666 0.0752933 0.0697021 0.0641531 0.0587094 0.0534376 0.0484082 0.0436957 
0.039379 0.0355406 0.032265 0.0296349 0.0277275 0.026606 0.131004 0.131672 0.131728 
0.13118 0.130042 0.128334 0.126077 0.123299 0.120031 0.116306 0.112164 0.107645 
0.102794 0.0976568 0.0922836 0.0867258 0.0810375 0.0752748 0.0694963 0.0637633 0.0581398 
0.0526936 0.0474963 0.042624 0.0381577 0.0341831 0.0307889 0.0280636 0.0260905 0.0249396 
0.133756 0.13442 0.134444 0.133837 0.132615 0.130797 0.128408 0.125475 0.122033 
0.118118 0.11377 0.109033 0.103954 0.0985821 0.0929696 0.0871703 0.0812405 0.0752386 
0.0692249 0.0632625 0.0574169 0.0517572 0.0463563 0.0412922 0.036648 0.0325126 0.0289794 
0.0261435 0.0240957 0.0229148 0.136569 0.137228 0.137219 0.13655 0.135239 0.133307 
0.130779 0.127687 0.124064 0.119952 0.115392 0.110432 0.10512 0.0995089 0.0936535 
0.0876105 0.0814385 0.075198 0.0689516 0.0627637 0.0567015 0.050835 0.0452385 0.0399908 
0.035177 0.0308883 0.0272223 0.0242796 0.022159 0.0209485 0.139592 0.140246 0.1402 
0.139465 0.138058 0.136001 0.133323 0.130056 0.126239 0.121912 0.117123 0.111921 
0.106358 0.10049 0.0943748 0.0880717 0.0816424 0.0751501 0.0686594 0.0622368 0.0559508 
0.0498727 0.0440774 0.0386449 0.033661 0.0292191 0.02542 0.0223699 0.0201756 0.018935 
0.142781 0.143429 0.143344 0.142537 0.141026 0.138836 0.135997 0.132544 0.128519 
0.123965 0.118933 0.113474 0.107646 0.101508 0.0951197 0.088545 0.0818486 0.0750962 
0.0683551 0.0616937 0.0551821 0.0488927 0.0429012 0.0372876 0.0321385 0.0275481 0.0236198 
0.0204647 0.0181972 0.0169263 0.146155 0.146798 0.14667 0.145786 0.144164 0.141831 
0.13882 0.135168 0.13092 0.126124 0.120832 0.115102 0.108993 0.102568 0.0958927 
0.0890332 0.0820578 0.0750355 0.0680364 0.061131 0.0543913 0.0478906 0.041705 0.0359146 
0.0306057 0.0258728 0.0218204 0.0185636 0.0162243 0.014923 0.149722 0.150357 0.150185 
0.149217 0.147476 0.14499 0.141794 0.13793 0.133445 0.12839 0.122823 0.116804 
0.110398 0.103671 0.0966938 0.0895359 0.0822696 0.0749677 0.067703 0.0605489 0.0535789 
0.0468678 0.0404918 0.0345308 0.02907 0.0242028 0.0200342 0.0166813 0.0142728 0.0129416 
0.153496 0.154123 0.153901 0.152844 0.150975 0.148325 0.144932 0.140841 0.136103 
0.130773 0.124913 0.118588 0.111867 0.104821 0.0975254 0.0900544 0.0824844 0.0748921 
0.0673537 0.0599455 0.0527432 0.0458228 0.0392609 0.0331365 0.0275334 0.0225431 0.0182686 
0.014828 0.0123549 0.010995 0.157491 0.158109 0.157834 0.156681 0.154674 0.151849 
0.148245 0.143912 0.138903 0.13328 0.127109 0.120459 0.113404 0.106022 0.0983905 
0.0905907 0.0827032 0.0748088 0.0669878 0.0593197 0.0518827 0.0447542 0.0380114 0.0317324 
0.0259989 0.0208991 0.0165329 0.0130163 0.0104857 0.00909924 0.161724 0.162332 0.162 
0.160743 0.158589 0.155576 0.151747 0.147155 0.141858 0.135923 0.12942 0.122425 
0.115017 0.107279 0.0992938 0.0911484 0.0829283 0.0747192 0.0666058 0.0586711 0.0509963 
0.0436608 0.0367424 0.0303185 0.0244682 0.0192758 0.0148359 0.0112595 0.00868222 0.00727304 
0.166212 0.16681 0.166416 0.165048 0.162736 0.159522 0.155452 0.150584 0.144981 
0.138714 0.131859 0.124497 0.116715 0.1086 0.100242 0.0917329 0.0831643 0.0746269 
0.0662101 0.0580012 0.0500848 0.0425427 0.0354537 0.028895 0.0229432 0.0176778 0.0131866 
0.00957237 0.00696448 0.00553891 0.170973 0.171558 0.171097 0.16961 0.16713 0.163701 
0.159375 0.154212 0.148283 0.141664 0.134436 0.126687 0.118508 0.109995 0.101244 
0.0923531 0.0834191 0.0745389 0.065807 0.0573154 0.0491526 0.0414033 0.0341482 0.0274645 
0.021427 0.0161104 0.0115946 0.00797108 0.0053563 0.0039253 0.17602 0.176591 0.176058 
0.174444 0.171784 0.168127 0.163528 0.158054 0.151779 0.144786 0.137163 0.129005 
0.120409 0.111477 0.102313 0.093021 0.0837048 0.0744671 0.0654081 0.0566249 0.0482102 
0.0402523 0.0328345 0.0260349 0.0199273 0.0145827 0.0100732 0.00647718 0.00389097 0.00247492 
0.181363 0.181917 0.181308 0.179558 0.176708 0.172808 0.167921 0.162118 0.155478 
0.148092 0.140054 0.131464 0.12243 0.113059 0.103463 0.0937517 0.0840373 0.0744282 
0.0650306 0.0559467 0.0472742 0.0391051 0.0315256 0.0246157 0.0184493 0.0130955 0.00862026 