# vtk DataFile Version 5.1
vtk output
ASCII
DATASET UNSTRUCTURED_GRID
POINTS 4929 double
0.1016 1.5 0.1439999938 0.1016 1.45 0.16599999368 0.1016 1.4 0.15700000525 
0.1016 1.35 0.13199999928 0.1016 1.3 0.10700000077 0.1016 1.25 0.090000003576 
0.1016 1.2 0.075999997556 0.1016 1.15 0.059999998659 0.1016 1.1 0.0270000007 
0.1016 1.05 0 0.1016 1 -1.4520933349e-19 0.1016 0.95 -1.9172115972e-20 
0.1016 0.9 -1.9935036607e-21 0.1016 0.85 1.2043517074e-19 0.1016 0.8 2.5499320644e-20 
0.1016 0.75 -2.7692611041e-19 0.1016 0.7 0.0017266095383 0.1016 0.65 0.006275348831 
0.1016 0.6 0.015275382437 0.1016 0.55 0.034349132329 0.1016 0.5 0.057032302022 
0.1016 0.45 0.069950312376 0.1016 0.4 0.088548511267 0.1016 0.35 0.1118433848 
0.1016 0.3 0.13683372736 0.1016 0.25 0.16178821027 0.1016 0.2 0.18516084552 
0.1016 0.15 0.20709982514 0.1016 0.1 0.23110230267 0.1016 0.05 0.2536047399 
0.1016 0 0.2658187151 5.08 1.5 0.28700000048 5.08 1.45 0.28700000048 
5.08 1.4 0.28700000048 5.08 1.35 0.28700000048 5.08 1.3 0.28700000048 
5.08 1.25 0.28700000048 5.08 1.2 0.28700000048 5.08 1.15 0.28700000048 
5.08 1.1 0.28700000048 5.08 1.05 0.28700000048 5.08 1 0.28700000048 
5.08 0.95 0.28700000048 5.08 0.9 0.28700000048 5.08 0.85 0.28700000048 
5.08 0.8 0.28700000048 5.08 0.75 0.28700000048 5.08 0.7 0.28700000048 
5.08 0.65 0.28700000048 5.08 0.6 0.28700000048 5.08 0.55 0.28700000048 
5.08 0.5 0.28700000048 5.08 0.45 0.28700000048 5.08 0.4 0.28700000048 
5.08 0.35 0.28700000048 5.08 0.3 0.28700000048 5.08 0.25 0.28700000048 
5.08 0.2 0.28700000048 5.08 0.15 0.28700000048 5.08 0.1 0.28700000048 
5.08 0.05 0.28700000048 5.08 0 0.28700000048 0.12737462728 1.5 0.1507910341 
0.12737462728 1.45 0.16967715323 0.12737462728 1.4 0.16453096271 0.12737462728 1.35 0.13924466074 
0.12737462728 1.3 0.11179300398 0.12737462728 1.25 0.091728575528 0.12737462728 1.2 0.07720143348 
0.12737462728 1.15 0.065351217985 0.12737462728 1.1 0.038767263293 0.12737462728 1.05 0.010095033795 
0.12737462728 1 -0.00081655819668 0.12737462728 0.95 1.9428311134e-05 0.12737462728 0.9 0.00026101342519 
0.12737462728 0.85 2.4148555894e-05 0.12737462728 0.8 -5.3817097069e-05 0.12737462728 0.75 -8.6767904577e-05 
0.12737462728 0.7 0.00045566365588 0.12737462728 0.65 0.0019542288501 0.12737462728 0.6 0.0058519374579 
0.12737462728 0.55 0.022836450487 0.12737462728 0.5 0.047981780022 0.12737462728 0.45 0.05461114645 
0.12737462728 0.4 0.074895486236 0.12737462728 0.35 0.099331989884 0.12737462728 0.3 0.1257699281 
0.12737462728 0.25 0.15223304927 0.12737462728 0.2 0.17733550072 0.12737462728 0.15 0.20057636499 
0.12737462728 0.1 0.2280883044 0.12737462728 0.05 0.25636717677 0.12737462728 0 0.26787433028 
0.15441581276 1.5 0.15733589232 0.15441581276 1.45 0.17319840193 0.15441581276 1.4 0.17124161124 
0.15441581276 1.35 0.14639207721 0.15441581276 1.3 0.11615762115 0.15441581276 1.25 0.093051612377 
0.15441581276 1.2 0.077079929411 0.15441581276 1.15 0.069109812379 0.15441581276 1.1 0.050421155989 
0.15441581276 1.05 0.022821208462 0.15441581276 1 0.00045756829786 0.15441581276 0.95 -0.00010577934881 
0.15441581276 0.9 -9.59588142e-05 0.15441581276 0.85 4.3476943574e-06 0.15441581276 0.8 2.1786554498e-05 
0.15441581276 0.75 1.5466785044e-05 0.15441581276 0.7 8.6864583864e-06 0.15441581276 0.65 -2.3533866624e-05 
0.15441581276 0.6 -2.2623378754e-05 0.15441581276 0.55 0.013745664619 0.15441581276 0.5 0.041122786701 
0.15441581276 0.45 0.042821854353 0.15441581276 0.4 0.066781260073 0.15441581276 0.35 0.091932758689 
0.15441581276 0.3 0.11878988147 0.15441581276 0.25 0.14578913152 0.15441581276 0.2 0.17170213163 
0.15441581276 0.15 0.19585584104 0.15441581276 0.1 0.22603450716 0.15441581276 0.05 0.26000609994 
0.15441581276 0 0.2715613246 0.18278579477 1.5 0.16216810048 0.18278579477 1.45 0.17618699372 
0.18278579477 1.4 0.17462447286 0.18278579477 1.35 0.15193346143 0.18278579477 1.3 0.11838144064 
0.18278579477 1.25 0.093915238976 0.18278579477 1.2 0.078202039003 0.18278579477 1.15 0.070504657924 
0.18278579477 1.1 0.055835396051 0.18278579477 1.05 0.034242231399 0.18278579477 1 0.0073818857782 
0.18278579477 0.95 -0.0008749399567 0.18278579477 0.9 -0.00097177823773 0.18278579477 0.85 4.4029249693e-05 
0.18278579477 0.8 0.00022063318465 0.18278579477 0.75 0.00015663265367 0.18278579477 0.7 8.7968066509e-05 
0.18278579477 0.65 -0.00023832826992 0.18278579477 0.6 -3.2816587918e-05 0.18278579477 0.55 0.010639169253 
0.18278579477 0.5 0.029583189636 0.18278579477 0.45 0.040999602526 0.18278579477 0.4 0.064392209053 
0.18278579477 0.35 0.091515310109 0.18278579477 0.3 0.11628320813 0.18278579477 0.25 0.14327572286 
0.18278579477 0.2 0.16800197959 0.18278579477 0.15 0.19434389472 0.18278579477 0.1 0.22674204409 
0.18278579477 0.05 0.26006180048 0.18278579477 0 0.27923649549 0.21254987001 1.5 0.16912205517 
0.21254987001 1.45 0.18129588664 0.21254987001 1.4 0.178769961 0.21254987001 1.35 0.1584790051 
0.21254987001 1.3 0.12210386246 0.21254987001 1.25 0.096018590033 0.21254987001 1.2 0.079549334943 
0.21254987001 1.15 0.07110401243 0.21254987001 1.1 0.059331297874 0.21254987001 1.05 0.044514365494 
0.21254987001 1 0.018628451973 0.21254987001 0.95 0.0044738231227 0.21254987001 0.9 0.0029053241014 
0.21254987001 0.85 -0.00051403063117 0.21254987001 0.8 -0.00042016146472 0.21254987001 0.75 -0.00028493948048 
0.21254987001 0.7 -0.00030128951767 0.21254987001 0.65 -0.00029744394124 0.21254987001 0.6 0.0007500302163 
0.21254987001 0.55 0.01020119898 0.21254987001 0.5 0.024718550965 0.21254987001 0.45 0.042976696044 
0.21254987001 0.4 0.065460979939 0.21254987001 0.35 0.093071356416 0.21254987001 0.3 0.11635792255 
0.21254987001 0.25 0.14298541844 0.21254987001 0.2 0.16774837673 0.21254987001 0.15 0.19648656249 
0.21254987001 0.1 0.22891868651 0.21254987001 0.05 0.26043587923 0.21254987001 0 0.28405177593 
0.24377654385 1.5 0.17957128584 0.24377654385 1.45 0.18927793205 0.24377654385 1.4 0.18431285024 
0.24377654385 1.35 0.1670756489 0.24377654385 1.3 0.12947045267 0.24377654385 1.25 0.10029627383 
0.24377654385 1.2 0.081990659237 0.24377654385 1.15 0.071711234748 0.24377654385 1.1 0.063040696084 
0.24377654385 1.05 0.051919311285 0.24377654385 1 0.033998444676 0.24377654385 0.95 0.017943430692 
0.24377654385 0.9 0.01512681134 0.24377654385 0.85 -0.00056205806322 0.24377654385 0.8 -0.00045941839926 
0.24377654385 0.75 -0.00031156223849 0.24377654385 0.7 -0.00032943990664 0.24377654385 0.65 -0.00032523501432 
0.24377654385 0.6 0.00072667479981 0.24377654385 0.55 0.012610005215 0.24377654385 0.5 0.029565701261 
0.24377654385 0.45 0.047847967595 0.24377654385 0.4 0.067894056439 0.24377654385 0.35 0.094273023307 
0.24377654385 0.3 0.1187813729 0.24377654385 0.25 0.14477655292 0.24377654385 0.2 0.1720008105 
0.24377654385 0.15 0.20260047913 0.24377654385 0.1 0.23258954287 0.24377654385 0.05 0.26226913929 
0.24377654385 0 0.28345912695 0.27653768798 1.5 0.188074857 0.27653768798 1.45 0.19574593008 
0.27653768798 1.4 0.18759168684 0.27653768798 1.35 0.1733853817 0.27653768798 1.3 0.13755051792 
0.27653768798 1.25 0.10660494864 0.27653768798 1.2 0.087311215699 0.27653768798 1.15 0.073080271482 
0.27653768798 1.1 0.063810668886 0.27653768798 1.05 0.05601323396 0.27653768798 1 0.045168120414 
0.27653768798 0.95 0.036753099412 0.27653768798 0.9 0.02828829363 0.27653768798 0.85 0.010207134299 
0.27653768798 0.8 0.0043171597645 0.27653768798 0.75 0.0042425328866 0.27653768798 0.7 0.0045950547792 
0.27653768798 0.65 0.0041565545835 0.27653768798 0.6 0.0064575956203 0.27653768798 0.55 0.020515056327 
0.27653768798 0.5 0.037986312062 0.27653768798 0.45 0.057455275208 0.27653768798 0.4 0.074991934001 
0.27653768798 0.35 0.099533259869 0.27653768798 0.3 0.12630687654 0.27653768798 0.25 0.15310066938 
0.27653768798 0.2 0.1815841198 0.27653768798 0.15 0.21028663218 0.27653768798 0.1 0.23792006075 
0.27653768798 0.05 0.26573973894 0.27653768798 0 0.28307566047 0.31090870586 1.5 0.19804394245 
0.31090870586 1.45 0.20213462412 0.31090870586 1.4 0.1905618161 0.31090870586 1.35 0.17888469994 
0.31090870586 1.3 0.14739389718 0.31090870586 1.25 0.11641236395 0.31090870586 1.2 0.09533251822 
0.31090870586 1.15 0.075759127736 0.31090870586 1.1 0.063224345446 0.31090870586 1.05 0.056988723576 
0.31090870586 1 0.051103413105 0.31090870586 0.95 0.051879577339 0.31090870586 0.9 0.041414249688 
0.31090870586 0.85 0.030816141516 0.31090870586 0.8 0.020619554445 0.31090870586 0.75 0.018849920481 
0.31090870586 0.7 0.018324706703 0.31090870586 0.65 0.017104160041 0.31090870586 0.6 0.022040020674 
0.31090870586 0.55 0.034704942256 0.31090870586 0.5 0.051454473287 0.31090870586 0.45 0.073134765029 
0.31090870586 0.4 0.089433543384 0.31090870586 0.35 0.11203686893 0.31090870586 0.3 0.13954639435 
0.31090870586 0.25 0.16627463698 0.31090870586 0.2 0.19387084246 0.31090870586 0.15 0.21833248436 
0.31090870586 0.1 0.24425514042 0.31090870586 0.05 0.27091109753 0.31090870586 0 0.28252595663 
0.34696870625 1.5 0.21778613329 0.34696870625 1.45 0.20986518264 0.34696870625 1.4 0.19978919625 
0.34696870625 1.35 0.18453152478 0.34696870625 1.3 0.16158616543 0.34696870625 1.25 0.13127245009 
0.34696870625 1.2 0.10446519405 0.34696870625 1.15 0.081354089081 0.34696870625 1.1 0.065297544003 
0.34696870625 1.05 0.056984066963 0.34696870625 1 0.056180365384 0.34696870625 0.95 0.054883539677 
0.34696870625 0.9 0.053634364158 0.34696870625 0.85 0.051537387073 0.34696870625 0.8 0.047614239156 
0.34696870625 0.75 0.042886041105 0.34696870625 0.7 0.039503205568 0.34696870625 0.65 0.03621102497 
0.34696870625 0.6 0.046814832836 0.34696870625 0.55 0.051666393876 0.34696870625 0.5 0.073346741498 
0.34696870625 0.45 0.092254266143 0.34696870625 0.4 0.10999679565 0.34696870625 0.35 0.13045576215 
0.34696870625 0.3 0.1551220119 0.34696870625 0.25 0.17975746095 0.34696870625 0.2 0.20520636439 
0.34696870625 0.15 0.22680495679 0.34696870625 0.1 0.25203549862 0.34696870625 0.05 0.27656883001 
[...]
CELL_DATA 4740
FIELD FieldData 7
B_Stress_n_p_m2 1 4740 float
0.430235 0.443771 0.448067 0.449827 0.4535 0.460253 0.469484 0.474323 0.469272 
0.462253 0.459726 0.447 0.420303 0.381365 0.237253 0.101875 0.0669779 0.0545643 
0.0428759 0.0352722 0.0295765 0.0256791 0.0233254 0.0219928 0.021272 0.0209159 0.0207037 
0.0200168 0.0210055 0.0208286 0.423357 0.436387 0.442322 0.441787 0.442681 0.446623 
0.454718 0.462278 0.461258 0.451856 0.444348 0.435044 0.416242 0.387159 0.303633 
0.208074 0.148019 0.1059 0.0843329 0.0697582 0.0580406 0.0493899 0.0435093 0.0388492 
0.0350421 0.0316139 0.0286325 0.0248257 0.0152579 0.0447925 0.414767 0.426893 0.43353 
0.430885 0.429497 0.431901 0.438083 0.445513 0.447777 0.439025 0.426676 0.417609 
0.401477 0.375116 0.313181 0.228001 0.166045 0.125337 0.09994 0.0823219 0.0689225 
0.0587708 0.0519745 0.0461951 0.0412868 0.0368802 0.0331253 0.0291006 0.0231974 0.0316093 
0.407425 0.419007 0.424827 0.420431 0.415922 0.416773 0.42143 0.427381 0.429869 
0.423941 0.410603 0.398828 0.3805 0.35369 0.302626 0.23483 0.180706 0.141571 
0.114514 0.0951952 0.0803942 0.0694442 0.0614535 0.0546161 0.0486663 0.0436173 0.0394552 
0.0356458 0.0318133 0.0345871 0.402321 0.413072 0.417854 0.412308 0.404475 0.403009 
0.405192 0.409182 0.410851 0.40754 0.396567 0.381504 0.359435 0.330077 0.287032 
0.233913 0.187535 0.151107 0.124772 0.105324 0.0901017 0.0787102 0.0698303 0.0624281 
0.0560485 0.0509804 0.0469919 0.043812 0.0412831 0.0426263 0.395947 0.406536 0.410148 
0.405038 0.395303 0.391172 0.390082 0.390687 0.391155 0.388674 0.381942 0.365061 
0.34168 0.309637 0.27233 0.229046 0.18913 0.156564 0.132039 0.113561 0.0988899 
0.0872057 0.0779494 0.0705316 0.0644088 0.0596754 0.0561156 0.0536751 0.0520367 0.0524442 
0.388806 0.401087 0.402847 0.399329 0.388958 0.381406 0.376889 0.373277 0.370946 
0.368638 0.363112 0.349104 0.326543 0.296934 0.262919 0.225876 0.191006 0.162232 
0.139513 0.122483 0.108465 0.0970074 0.0877361 0.0805387 0.0748588 0.0704828 0.0672572 
0.0653983 0.0644689 0.0643726 0.387755 0.399344 0.399338 0.396418 0.386778 0.375488 
0.366316 0.358144 0.352316 0.348453 0.342024 0.331522 0.312795 0.289451 0.259506 
0.22654 0.195474 0.169747 0.149122 0.133494 0.120079 0.109139 0.100062 0.0931297 
0.0877428 0.0836271 0.0807866 0.0794865 0.0789485 0.0788128 0.399213 0.400945 0.399369 
0.394581 0.386875 0.373915 0.359153 0.346161 0.336658 0.329192 0.32203 0.311371 
0.297385 0.279457 0.256482 0.228356 0.201306 0.178449 0.160823 0.145937 0.13372 
0.122999 0.114492 0.107966 0.103047 0.0995591 0.0974586 0.0967507 0.0959087 0.0959356 
0.424802 0.41183 0.402122 0.395971 0.38747 0.374194 0.356588 0.339272 0.326025 
0.314907 0.304489 0.292818 0.279739 0.264272 0.246841 0.226748 0.205727 0.187128 
0.171971 0.158862 0.148088 0.138065 0.13037 0.124501 0.120843 0.118807 0.117909 
0.117273 0.115302 0.114427 0.459085 0.434152 0.41372 0.402014 0.391607 0.377485 
0.359377 0.339837 0.324386 0.309335 0.295634 0.280656 0.266127 0.251248 0.235716 
0.221782 0.207566 0.194511 0.182624 0.17217 0.163562 0.155487 0.149306 0.144951 
0.142665 0.142277 0.142257 0.139888 0.136019 0.133468 0.487432 0.464507 0.436118 
0.414573 0.400825 0.38628 0.368627 0.349899 0.332852 0.314889 0.299374 0.281899 
0.264878 0.250253 0.234901 0.222273 0.212422 0.204184 0.196173 0.1895 0.184001 
0.179406 0.175325 0.173073 0.171855 0.171047 0.168796 0.163243 0.156748 0.152745 
0.499401 0.493927 0.470021 0.440505 0.418279 0.402045 0.384688 0.367561 0.348074 
0.330584 0.31375 0.298312 0.279784 0.264341 0.250114 0.236806 0.228715 0.223425 
0.219199 0.216637 0.21447 0.213494 0.210943 0.209344 0.207418 0.20209 0.194 
0.18551 0.176474 0.17201 0.500077 0.504904 0.504333 0.480917 0.452189 0.427475 
0.408616 0.389123 0.369274 0.351396 0.33579 0.322931 0.307329 0.290719 0.277518 
0.264918 0.256603 0.252947 0.252627 0.251903 0.250532 0.249654 0.248012 0.245171 
0.238662 0.228638 0.216534 0.20487 0.196297 0.191753 0.498388 0.503592 0.511628 
0.514425 0.49661 0.468671 0.442598 0.419959 0.398627 0.378496 0.364575 0.353299 
0.340133 0.326849 0.312787 0.302016 0.292883 0.285935 0.282845 0.281268 0.278303 
0.271908 0.269066 0.263522 0.257216 0.246994 0.234824 0.224552 0.216696 0.212179 
0.498968 0.503995 0.51018 0.518049 0.524132 0.514589 0.492423 0.466552 0.441954 
0.421595 0.404672 0.392145 0.381503 0.372093 0.36073 0.349649 0.337552 0.324858 
0.312704 0.302611 0.295745 0.286787 0.279582 0.274221 0.26868 0.26187 0.252821 
0.244033 0.23684 0.232225 0.499885 0.505855 0.511597 0.517658 0.524781 0.531647 
0.532252 0.520248 0.50096 0.479511 0.466176 0.449829 0.438141 0.429843 0.421478 
0.409554 0.393782 0.377013 0.358404 0.338305 0.323613 0.315513 0.306874 0.299046 
0.29045 0.281143 0.272766 0.263645 0.256343 0.2515 0.500768 0.507571 0.513637 
0.519337 0.52511 0.531466 0.537872 0.543916 0.542665 0.535349 0.522255 0.515176 
0.501888 0.489217 0.478662 0.465807 0.451672 0.432804 0.4147 0.39682 0.375006 
0.35952 0.348669 0.335601 0.321313 0.308391 0.29536 0.285325 0.277928 0.273109 
0.505675 0.511644 0.518224 0.524389 0.530051 0.53558 0.540436 0.54535 0.550661 
0.553878 0.551326 0.544701 0.536889 0.525987 0.51204 0.497615 0.482804 0.468951 
0.454197 0.438176 0.422265 0.40408 0.384813 0.368633 0.350561 0.33454 0.32138 
0.311285 0.303525 0.299016 0.51101 0.516745 0.522856 0.528786 0.534145 0.538768 
0.54271 0.545725 0.547897 0.549008 0.548491 0.544306 0.537468 0.52832 0.517193 
0.504815 0.49182 0.478606 0.464882 0.450918 0.436916 0.421906 0.405511 0.387978 
0.372268 0.358216 0.346309 0.336444 0.328826 0.324362 0.509739 0.515244 0.52084 
0.525972 0.530394 0.534031 0.536835 0.538677 0.539425 0.538853 0.536663 0.532424 
0.526317 0.518538 0.50933 0.499038 0.488002 0.476431 0.46437 0.451931 0.439192 
0.426071 0.412616 0.399059 0.386237 0.374463 0.364058 0.355146 0.348014 0.34353 
0.503316 0.509077 0.514325 0.518875 0.522618 0.525517 0.527528 0.528583 0.528587 
0.527403 0.52488 0.520911 0.515548 0.508906 0.501148 0.492484 0.483119 0.473206 
0.462842 0.45212 0.441118 0.429894 0.418575 0.407385 0.396648 0.386633 0.377561 
0.369572 0.362903 0.358089 0.497009 0.502978 0.508013 0.512174 0.515457 0.517852 
0.519347 0.51991 0.5195 0.518062 0.515539 0.511906 0.507201 0.501502 0.494923 
0.487599 0.479663 0.471234 0.462408 0.453274 0.443914 0.43441 0.424876 0.415467 
0.406373 0.397769 0.389804 0.382588 0.376293 0.371233 0.490938 0.496885 0.501768 
0.505684 0.508672 0.510755 0.511946 0.51225 0.511664 0.510183 0.507804 0.504541 
0.500435 0.49555 0.489968 0.483781 0.477085 0.469969 0.462515 0.4548 0.446897 
0.438884 0.430849 0.422894 0.415134 0.407677 0.40062 0.39404 0.388064 0.382923 
0.485072 0.490952 0.495725 0.499489 0.502308 0.504222 0.505269 0.505479 0.504879 
0.503493 0.50135 0.498483 0.49494 0.490775 0.486055 0.480849 0.475227 0.469258 
0.463006 0.456532 0.449894 0.443152 0.436366 0.429603 0.422927 0.416404 0.410089 
0.404031 0.398322 0.393138 0.479536 0.485348 0.490044 0.493723 0.496458 0.498306 
0.499318 0.499545 0.499032 0.497823 0.495965 0.493502 0.490485 0.486966 0.483 
0.478643 0.47395 0.468972 0.463757 0.45835 0.452792 0.447123 0.441378 0.435595 
0.429807 0.424045 0.418337 0.412707 0.407218 0.401997 0.47442 0.480171 0.484817 
0.488457 0.491168 0.493017 0.494067 0.494379 0.494013 0.493025 0.49147 0.489402 
0.486872 0.483931 0.480627 0.477006 0.473112 0.468984 0.464654 0.460155 0.455509 
0.450738 0.445859 0.440885 0.435825 0.430686 0.425475 0.420193 0.414883 0.409629 
0.469788 0.475485 0.480101 0.48373 0.486455 0.488347 0.489476 0.489912 0.489722 
0.488972 0.48772 0.486025 0.48394 0.481512 0.478786 0.475801 0.472592 0.469186 
0.465608 0.461872 0.457992 0.453971 0.44981 0.445503 0.441041 0.436414 0.431608 
0.426613 0.421446 0.416163 0.465672 0.471321 0.475919 0.479557 0.482316 0.484273 
0.485501 0.486077 0.486072 0.485556 0.484593 0.483241 0.481554 0.479577 0.477353 
0.474914 0.472287 0.469494 0.466547 0.463453 0.460211 0.456813 0.453246 0.44949 
0.445522 0.441315 0.436843 0.432082 0.427032 0.421723 0.462082 0.467689 0.472277 
0.475931 0.478733 0.480762 0.482094 0.482809 0.482983 0.482686 0.481986 0.480941 
0.479604 0.47802 0.476226 0.474251 0.472118 0.469839 0.467422 0.464862 0.462151 
0.459271 0.456197 0.452897 0.449337 0.445477 0.441281 0.436712 0.431758 0.426428 
0.45901 0.464579 0.46916 0.472831 0.475676 0.477773 0.479203 0.480046 0.480381 
0.48028 0.479812 0.479035 0.478 0.476752 0.475324 0.473741 0.472022 0.470174 
0.468197 0.466083 0.463813 0.461363 0.458697 0.455776 0.452554 0.448983 0.445016 
0.440609 0.435735 0.43039 0.456431 0.461967 0.466539 0.470225 0.473106 0.475261 
0.476774 0.477728 0.478201 0.478268 0.477997 0.477448 0.476669 0.475703 0.474581 
0.473327 0.471952 0.470462 0.468852 0.467107 0.465204 0.463111 0.460786 0.458181 
0.455242 0.451915 0.448141 0.44387 0.439066 0.433709 0.454314 0.459818 0.46438 
0.468074 0.470979 0.473178 0.474756 0.475797 0.476382 0.476587 0.476479 0.476117 
0.47555 0.474818 0.47395 0.472966 0.471877 0.470683 0.469376 0.467938 0.46634 
0.464544 0.462505 0.460166 0.457468 0.454347 0.45074 0.446587 0.441843 0.43648 
0.452618 0.458094 0.462641 0.466333 0.46925 0.471475 0.473097 0.474201 0.47487 
0.475181 0.475202 0.47499 0.474595 0.474052 0.473391 0.472628 0.471773 0.470823 
0.469767 0.468583 0.467239 0.465694 0.463896 0.461784 0.459293 0.456352 0.45289 
0.448842 0.444154 0.438789 0.451303 0.456751 0.461279 0.464958 0.46787 0.470103 
0.471746 0.472889 0.473615 0.474003 0.47412 0.474024 0.473762 0.473371 0.472875 
0.472292 0.471627 0.470876 0.470027 0.469054 0.467924 0.466591 0.465 0.463086 
0.460776 0.457994 0.454664 0.450711 0.446077 0.440714 0.450327 0.455747 0.460249 
0.463904 0.466796 0.469017 0.470659 0.471815 0.472572 0.473008 0.473192 0.473181 
0.473021 0.472746 0.472381 0.471941 0.471429 0.470841 0.470162 0.469366 0.468417 
0.467266 0.465856 0.464116 0.461969 0.459334 0.456125 0.452263 0.447682 0.442327 
0.44965 0.455041 0.45951 0.463128 0.465984 0.468172 0.469791 0.470937 0.4717 
0.472159 0.472384 0.47243 0.472343 0.472156 0.471892 0.471564 0.471176 0.47072 
0.470182 0.469535 0.46874 0.467748 0.466498 0.464917 0.462922 0.460424 0.457332 
0.453561 0.449033 0.44369 0.449236 0.454598 0.459024 0.462592 0.465393 0.467528 
0.469103 0.470217 0.470962 0.471422 0.471664 0.471744 0.471707 0.471584 0.471396 
0.471155 0.470865 0.470517 0.470096 0.469574 0.468914 0.468064 0.46696 0.465526 
0.463675 0.461312 0.458338 0.454658 0.450189 0.444863 0.449056 0.454385 0.458759 
0.46226 0.464988 0.46705 0.468559 0.469619 0.470327 0.470766 0.471006 0.471101 
0.471094 0.471014 0.470882 0.470709 0.470495 0.470235 0.469911 0.469498 0.468956 
0.468234 0.467268 0.465976 0.464268 0.462041 0.459189 0.455606 0.451201 0.445898 
0.449083 0.454375 0.458686 0.462104 0.464737 0.466705 0.468125 0.469112 0.469764 
0.470166 0.470387 0.470481 0.470487 0.470435 0.470343 0.47022 0.470067 0.469878 
0.469637 0.469317 0.468882 0.46828 0.467445 0.466294 0.464731 0.462647 0.459924 
0.456449 0.452116 0.446843 0.449301 0.454551 0.458783 0.462097 0.464613 0.466462 
0.467774 0.468668 0.469247 0.469596 0.469786 0.469866 0.469874 0.469838 0.469773 
0.469687 0.469582 0.469451 0.469279 0.469042 0.468704 0.468215 0.467508 0.466501 
0.46509 0.463159 0.460581 0.457227 0.452979 0.447743 0.449701 0.454899 0.459035 
0.46222 0.464592 0.466297 0.467478 0.46826 0.468751 0.469037 0.469184 0.469241 
0.469243 0.469213 0.469165 0.469107 0.469039 0.468955 0.468842 0.468678 0.46843 
0.468049 0.467471 0.466612 0.465364 0.463602 0.461188 0.457975 0.45383 0.448641 
0.450284 0.455418 0.459431 0.462455 0.464651 0.466184 0.467209 0.467863 0.468254 
0.468467 0.468566 0.468595 0.468584 0.468554 0.468517 0.468479 0.468439 0.468394 
0.468331 0.468231 0.468066 0.467789 0.467341 0.466636 0.465565 0.463995 0.461772 
0.458729 0.454709 0.449582 0.451063 0.456114 0.459969 0.46279 0.464768 0.466095 
0.466942 0.467452 0.467734 0.467869 0.467917 0.467915 0.46789 0.467857 0.467826 
0.467801 0.467783 0.467768 0.467746 0.467703 0.467612 0.467436 0.467118 0.466575 
0.465699 0.464348 0.462352 0.459519 0.45566 0.450613 0.452066 0.457004 0.460648 
0.463207 0.464917 0.466001 0.466647 0.467001 0.46717 0.467228 0.467226 0.467195 
0.467155 0.467119 0.467091 0.467076 0.467074 0.467081 0.467092 0.467095 0.467071 
0.466988 0.466797 0.466423 0.465759 0.464661 0.462939 0.460373 0.456727 0.451791 
0.453346 0.45812 0.461471 0.463685 0.465064 0.465866 0.466292 0.466486 0.466546 
0.466534 0.466489 0.466434 0.466384 0.466344 0.466319 0.466311 0.466319 0.466341 
0.466376 0.466414 0.466444 0.466442 0.46637 0.466164 0.465728 0.464917 0.463532 
0.461314 0.457962 0.453189 0.455014 0.459524 0.462436 0.464181 0.465149 0.465632 
0.46583 0.465872 0.465837 0.465769 0.465694 0.465626 0.465571 0.465532 0.46551 
0.465506 0.465519 0.46555 0.465596 0.465657 0.465724 0.465784 0.465813 0.465766 
0.465562 0.465075 0.464104 0.462357 0.459444 0.454936 0.45728 0.46127 0.463469 
0.464565 0.465043 0.465194 0.465187 0.465112 0.465018 0.464926 0.464846 0.464782 
0.464735 0.464703 0.464687 0.464685 0.464698 0.464727 0.464771 0.464832 0.464908 
0.464998 0.46509 0.465162 0.465167 0.465014 0.464536 0.463439 0.46124 0.45725 
0.460112 0.462955 0.464134 0.464549 0.464636 0.464592 0.464507 0.464418 0.464339 
0.464275 0.464225 0.464188 0.464162 0.464146 0.464137 0.464137 0.464144 0.46416 
0.464185 0.464221 0.46427 0.464334 0.464412 0.464501 0.464586 0.464629 0.464542 
0.464127 0.462948 0.460105 0.504325 0.515828 0.522844 0.526669 0.533025 0.541123 
0.540216 0.533879 0.520184 0.497524 0.455853 0.389363 0.29253 0.168453 0.0616434 
336.841 265.55 212.475 179.306 161.945 155.101 153.707 153.566 153.142 
152.906 151.44 145.947 134.853 118.545 72.3761 0.494871 0.505008 0.511103 
0.517384 0.526426 0.533963 0.537217 0.532416 0.522029 0.501113 0.464329 0.403025 
0.308709 0.182546 0.0659057 345.6 267.171 211.548 177.132 158.451 150.09 
147.262 146.818 147.254 147.639 146.68 142.391 132.354 115.329 65.9946 
0.485413 0.494239 0.499602 0.506991 0.518533 0.524623 0.530194 0.525782 0.519206 
0.502561 0.471653 0.416725 0.326767 0.200676 0.0694292 359.028 272.649 214.185 
177.839 157.267 146.883 142.215 140.82 141.262 141.957 141.571 138.28 
128.892 111.087 65.8792 0.475351 0.483569 0.488211 0.496462 0.507968 0.515025 
0.519134 0.517814 0.512106 0.501905 0.477291 0.429813 0.346367 0.224081 0.0853311 
382.569 283.684 222.297 183.411 160.168 146.998 139.819 136.695 136.244 
136.702 136.622 134.081 125.541 107.622 66.6096 0.463658 0.472467 0.477263 
0.485495 0.495873 0.50493 0.507368 0.50918 0.504327 0.499109 0.480603 0.440983 
0.365717 0.252238 0.0976064 419.389 301.253 236.357 194.123 167.418 150.788 
140.562 135.198 133.309 133.105 133.043 131.168 124.117 107.793 67.0348 
0.452549 0.46165 0.466724 0.474714 0.48413 0.493868 0.498351 0.498471 0.495979 
0.493478 0.48077 0.448771 0.383871 0.289875 0.0821016 453.133 323.528 257.141 
210.417 179.247 158.361 144.555 136.573 132.883 131.637 131.23 129.808 
124.617 111.298 67.4934 0.443525 0.453618 0.457793 0.46464 0.473339 0.483146 
0.490722 0.488585 0.485409 0.484554 0.477362 0.45262 0.401185 0.335799 0.108567 
491.968 355.093 285.417 231.65 194.82 168.842 151.051 140.241 134.536 
131.931 130.761 129.304 125.432 115.038 69.6298 0.436627 0.448285 0.452067 
0.456402 0.463264 0.472409 0.481531 0.481494 0.475883 0.473356 0.470428 0.452428 
0.414702 0.36811 0.199326 580.532 396.995 314.21 250.78 208.008 176.982 
155.655 142.564 135.306 131.626 129.818 128.232 124.629 117.309 79.3758 
0.160266 0.161257 0.161682 0.161549 0.160873 0.159668 0.157951 0.155743 0.153066 
0.149949 0.146422 0.142519 0.138277 0.133739 0.128949 0.123955 0.118812 0.113573 
0.1083 0.103055 0.097903 0.0929134 0.088156 0.0837017 0.0796208 0.0759809 0.0728449 
0.070269 0.0683031 0.0669826 0.162888 0.163856 0.164242 0.164054 0.163301 0.161998 
0.160162 0.157814 0.154979 0.151685 0.147963 0.14385 0.139384 0.134608 0.12957 
0.12432 0.118912 0.113406 0.107863 0.10235 0.0969339 0.0916882 0.0866862 0.0820032 
0.0777138 0.0738907 0.0706019 0.0679079 0.0658594 0.0644927 0.164625 0.16559 0.165959 
0.165737 0.164938 0.163573 0.161662 0.159226 0.156289 0.152881 0.149032 0.144781 
0.140167 0.135234 0.13003 0.124607 0.119022 0.113333 0.107605 0.101906 0.0963056 
0.0908796 0.0857043 0.0808578 0.0764187 0.0724635 0.0690642 0.0662855 0.0641813 0.0627912 
0.166794 0.167757 0.168105 0.167845 0.166987 0.165546 0.16354 0.160992 0.157926 
0.154372 0.150363 0.145938 0.141137 0.136005 0.130593 0.124954 0.119146 0.11323 
0.107273 0.101345 0.0955197 0.0898742 0.0844888 0.0794456 0.0748271 0.0707146 0.0671848 
0.0643073 0.0621404 0.060727 0.168971 0.169932 0.17026 0.16996 0.169044 0.167526 
0.165426 0.162765 0.159569 0.15587 0.151702 0.147102 0.142114 0.136784 0.131164 
0.125309 0.119279 0.113137 0.106953 0.100797 0.0947478 0.0888844 0.0832905 0.0780519 
0.0732552 0.0689861 0.0653263 0.06235 0.06012 0.0586834 0.171262 0.172223 0.172529 
0.172188 0.171211 0.169613 0.167413 0.164633 0.161302 0.15745 0.153112 0.148329 
0.143144 0.137606 0.131767 0.125686 0.119423 0.113045 0.106622 0.10023 0.0939476 
0.0878582 0.0820483 0.0766076 0.0716267 0.0671959 0.0634019 0.0603237 0.0580289 0.0565685 
0.173626 0.174586 0.17487 0.174487 0.173447 0.171766 0.169463 0.166562 0.163091 
0.159081 0.154569 0.149597 0.144209 0.138456 0.132393 0.126078 0.119577 0.112957 
0.106291 0.0996577 0.0931382 0.086819 0.08079 0.0751443 0.0699766 0.0653818 0.0614514 
0.0582695 0.0559087 0.0544241 0.176067 0.177026 0.177288 0.176862 0.175757 0.173991 
0.171583 0.168557 0.164941 0.160769 0.156078 0.15091 0.145312 0.139338 0.133043 
0.126489 0.119742 0.112874 0.105959 0.0990789 0.0923177 0.0857647 0.0795131 0.0736594 
0.0683026 0.0635416 0.0594729 0.0561858 0.0537578 0.0522487 0.178579 0.179537 0.179778 
0.179307 0.178137 0.176284 0.173768 0.170614 0.16685 0.16251 0.157634 0.152265 
0.146452 0.140249 0.133716 0.126916 0.119918 0.112795 0.105627 0.0984953 0.0914886 
0.0846987 0.0782221 0.0721586 0.066611 0.0616826 0.0574745 0.0540813 0.0515855 0.0500515 
0.181161 0.182119 0.182337 0.181822 0.180586 0.178644 0.176018 0.172732 0.168816 
0.164305 0.159239 0.153663 0.147628 0.141191 0.134413 0.12736 0.120104 0.112721 
0.105294 0.0979065 0.0906508 0.0836215 0.076918 0.0706437 0.0649046 0.0598084 0.0554608 
0.0519611 0.0493973 0.0478382 0.183811 0.184769 0.184965 0.184405 0.183101 0.18107 
0.178332 0.174912 0.17084 0.166153 0.160892 0.155104 0.148841 0.142163 0.135133 
0.12782 0.1203 0.112651 0.104959 0.0973123 0.0898044 0.0825337 0.0756023 0.0691168 
0.0631867 0.0579233 0.0534367 0.0498312 0.0471995 0.0456157 0.186528 0.187486 0.187659 
0.187054 0.185683 0.183561 0.180709 0.177153 0.172923 0.168056 0.162595 0.156588 
0.150091 0.143164 0.135875 0.128295 0.120504 0.112584 0.104622 0.0967115 0.0889489 
0.0814352 0.0742758 0.0675799 0.0614602 0.0560314 0.0514076 0.0476977 0.0449991 0.0433909 
0.189307 0.190266 0.190418 0.189768 0.188329 0.186116 0.18315 0.179455 0.175063 
0.170012 0.164346 0.158115 0.151377 0.144194 0.136638 0.128785 0.120716 0.112517 
0.104281 0.0961029 0.0880832 0.0803258 0.072939 0.0660346 0.059728 0.054137 0.0493791 
0.0455672 0.0428035 0.0411716 0.192146 0.193106 0.193236 0.192543 0.191037 0.188733 
0.185651 0.181817 0.177261 0.172023 0.166147 0.159685 0.152699 0.145253 0.137423 
0.129288 0.120933 0.11245 0.103934 0.0954851 0.0872064 0.0792053 0.0715926 0.0644827 
0.0579933 0.0522446 0.0473571 0.0434471 0.040621 0.0389667 0.195038 0.196 0.196111 
0.195375 0.193803 0.191409 0.188212 0.184237 0.179516 0.174086 0.167996 0.161298 
0.154056 0.14634 0.138227 0.129802 0.121155 0.11238 0.10358 0.0948562 0.0863171 
0.078073 0.0702371 0.0629261 0.0562596 0.0503595 0.0453485 0.0413456 0.0384607 0.0367859 
0.197977 0.198942 0.199033 0.198257 0.196621 0.194139 0.190828 0.186713 0.181825 
0.176202 0.169892 0.162953 0.155448 0.147453 0.139049 0.130326 0.121378 0.112306 
0.103216 0.0942145 0.0854142 0.0769285 0.0688733 0.0613671 0.0545306 0.0484871 0.0433605 
0.0392717 0.036333 0.0346399 0.200952 0.20192 0.201995 0.201181 0.199485 0.196918 