# vtk DataFile Version 5.1
vtk output
ASCII
DATASET UNSTRUCTURED_GRID
POINTS 10043 double
-10.1 1.4499999993 0 -10.049999999 1.4499999993 0 -10.049999999 1.5 0 
-9.9999999985 1.4499999993 0 -9.9999999985 1.5 0 -9.9499999978 1.4499999993 0 
-9.9499999978 1.5 0 -9.899999997 1.4499999993 0 -9.899999997 1.5 0 
-9.8499999963 1.4499999993 0 -9.8499999963 1.5 0 -9.7999999955 1.4499999993 0 
-9.7999999955 1.5 0 -9.7499999948 1.4499999993 0 -9.7499999948 1.5 0 
-9.699999994 1.4499999993 0 -9.699999994 1.5 0 -9.6499999933 1.4499999993 0 
-9.6499999933 1.5 0 -9.5999999925 1.4499999993 0 -9.5999999925 1.5 0 
-9.5499999918 1.4499999993 0 -9.5499999918 1.5 0 -9.4999999911 1.4499999993 0 
-9.4999999911 1.5 0 -9.4499999903 1.4499999993 0 -9.4499999903 1.5 0 
-9.3999999896 1.4499999993 0 -9.3999999896 1.5 0 -9.3499999888 1.4499999993 0 
-9.3499999888 1.5 0 -9.2999999881 1.4499999993 0 -9.2999999881 1.5 0 
-9.2499999873 1.4499999993 0 -9.2499999873 1.5 0 -9.1999999866 1.4499999993 0 
-9.1999999866 1.5 0 -9.1499999858 1.4499999993 0 -9.1499999858 1.5 0 
-9.0999999851 1.4499999993 0 -9.0999999851 1.5 0 -9.0499999844 1.4499999993 0 
-9.0499999844 1.5 0 -8.9999999836 1.4499999993 0 -8.9999999836 1.5 0 
-8.9499999829 1.4499999993 0 -8.9499999829 1.5 0 -8.8999999821 1.4499999993 0 
-8.8999999821 1.5 0 -8.8499999814 1.4499999993 0 -8.8499999814 1.5 0 
-8.7999999806 1.4499999993 0 -8.7999999806 1.5 0 -8.7499999799 1.4499999993 0 
-8.7499999799 1.5 0 -8.6999999791 1.4499999993 0 -8.6999999791 1.5 0 
-8.6499999784 1.4499999993 0 -8.6499999784 1.5 0 -8.5999999776 1.4499999993 0 
-8.5999999776 1.5 0 -8.5499999769 1.4499999993 0 -8.5499999769 1.5 0 
-8.4999999762 1.4499999993 0 -8.4999999762 1.5 0 -8.4499999754 1.4499999993 0 
-8.4499999754 1.5 0 -8.3999999747 1.4499999993 0 -8.3999999747 1.5 0 
-8.3499999739 1.4499999993 0 -8.3499999739 1.5 0 -8.2999999732 1.4499999993 0 
-8.2999999732 1.5 0 -8.2499999724 1.4499999993 0 -8.2499999724 1.5 0 
-8.1999999717 1.4499999993 0 -8.1999999717 1.5 0 -8.1499999709 1.4499999993 0 
-8.1499999709 1.5 0 -8.0999999702 1.4499999993 0 -8.0999999702 1.5 0 
-8.0499999695 1.4499999993 0 -8.0499999695 1.5 0 -7.9999999687 1.4499999993 0 
-7.9999999687 1.5 0 -7.949999968 1.4499999993 0 -7.949999968 1.5 0 
-7.8999999672 1.4499999993 0 -7.8999999672 1.5 0 -7.8499999665 1.4499999993 0 
-7.8499999665 1.5 0 -7.7999999657 1.4499999993 0 -7.7999999657 1.5 0 
-7.749999965 1.4499999993 0 -7.749999965 1.5 0 -7.6999999642 1.4499999993 0 
-7.6999999642 1.5 0 -7.6499999635 1.4499999993 0 -7.6499999635 1.5 0 
-7.5999999627 1.4499999993 0 -7.5999999627 1.5 0 -7.549999962 1.4499999993 0 
-7.549999962 1.5 0 -7.4999999613 1.4499999993 0 -7.4999999613 1.5 0 
-7.4499999605 1.4499999993 0 -7.4499999605 1.5 0 -7.3999999598 1.4499999993 0 
-7.3999999598 1.5 0 -7.349999959 1.4499999993 0 -7.349999959 1.5 0 
-7.2999999583 1.4499999993 0 -7.2999999583 1.5 0 -7.2499999575 1.4499999993 0 
-7.2499999575 1.5 0 -7.1999999568 1.4499999993 0 -7.1999999568 1.5 0 
-7.149999956 1.4499999993 0 -7.149999956 1.5 0 -7.0999999553 1.4499999993 0 
-7.0999999553 1.5 0 -7.0499999546 1.4499999993 0 -7.0499999546 1.5 0 
-6.9999999538 1.4499999993 0 -6.9999999538 1.5 0 -6.9499999531 1.4499999993 0 
-6.9499999531 1.5 0 -6.8999999523 1.4499999993 0 -6.8999999523 1.5 0 
-6.8499999516 1.4499999993 0 -6.8499999516 1.5 0 -6.7999999508 1.4499999993 0 
-6.7999999508 1.5 0 -6.7499999501 1.4499999993 0 -6.7499999501 1.5 0 
-6.6999999493 1.4499999993 0 -6.6999999493 1.5 0 -6.6499999486 1.4499999993 0 
-6.6499999486 1.5 0 -6.5999999478 1.4499999993 0 -6.5999999478 1.5 0 
-6.5499999471 1.4499999993 0 -6.5499999471 1.5 0 -6.4999999464 1.4499999993 0 
-6.4999999464 1.5 0 -6.4499999456 1.4499999993 0 -6.4499999456 1.5 0 
-6.3999999449 1.4499999993 0 -6.3999999449 1.5 0 -6.3499999441 1.4499999993 0 
-6.3499999441 1.5 0 -6.2999999434 1.4499999993 0 -6.2999999434 1.5 0 
-6.2499999426 1.4499999993 0 -6.2499999426 1.5 0 -6.1999999419 1.4499999993 0 
-6.1999999419 1.5 0 -6.1499999411 1.4499999993 0 -6.1499999411 1.5 0 
-6.0999999404 1.4499999993 0 -6.0999999404 1.5 0 -6.0499999397 1.4499999993 0 
-6.0499999397 1.5 0 -5.9999999389 1.4499999993 0 -5.9999999389 1.5 0 
-5.9499999382 1.4499999993 0 -5.9499999382 1.5 0 -5.8999999374 1.4499999993 0 
-5.8999999374 1.5 0 -5.8499999367 1.4499999993 0 -5.8499999367 1.5 0 
-5.7999999359 1.4499999993 0 -5.7999999359 1.5 0 -5.7499999352 1.4499999993 0 
-5.7499999352 1.5 0 -5.6999999344 1.4499999993 0 -5.6999999344 1.5 0 
-5.6499999337 1.4499999993 0 -5.6499999337 1.5 0 -5.5999999329 1.4499999993 0 
-5.5999999329 1.5 0 -5.5499999322 1.4499999993 0 -5.5499999322 1.5 0 
-5.4999999315 1.4499999993 0 -5.4999999315 1.5 0 -5.4499999307 1.4499999993 0 
-5.4499999307 1.5 0 -5.39999993 1.4499999993 0 -5.39999993 1.5 0 
-5.3499999292 1.4499999993 0 -5.3499999292 1.5 0 -5.2999999285 1.4499999993 0 
-5.2999999285 1.5 0 -5.2499999277 1.4499999993 0 -5.2499999277 1.5 0 
-5.199999927 1.4499999993 0 -5.199999927 1.5 0 -5.1499999262 1.4499999993 0 
-5.1499999262 1.5 0 -5.0999999255 1.4499999993 0 -5.0999999255 1.5 0 
-5.0499999247 1.4499999993 0 -5.0499999247 1.5 0 -4.999999924 1.4499999993 0 
-4.999999924 1.5 0 -4.9499999233 1.4499999993 0 -4.9499999233 1.5 0 
-4.8999999225 1.4499999993 0 -4.8999999225 1.5 0 -4.8499999218 1.4499999993 0 
-4.8499999218 1.5 0 -4.799999921 1.4499999993 0 -4.799999921 1.5 0 
-4.7499999203 1.4499999993 0 -4.7499999203 1.5 0 -4.6999999195 1.4499999993 0 
-4.6999999195 1.5 0 -4.6499999188 1.4499999993 0 -4.6499999188 1.5 0 
-4.599999918 1.4499999993 0 -4.599999918 1.5 0 -4.5499999173 1.4499999993 0 
-4.5499999173 1.5 0 -4.4999999166 1.4499999993 0 -4.4999999166 1.5 0 
-4.4499999158 1.4499999993 0 -4.4499999158 1.5 0 -4.3999999151 1.4499999993 0 
-4.3999999151 1.5 0 -4.3499999143 1.4499999993 0 -4.3499999143 1.5 0 
-4.2999999136 1.4499999993 0 -4.2999999136 1.5 0 -4.2499999128 1.4499999993 0 
-4.2499999128 1.5 0 -4.1999999121 1.4499999993 0 -4.1999999121 1.5 0 
-4.1499999113 1.4499999993 0 -4.1499999113 1.5 0 -4.0999999106 1.4499999993 0 
-4.0999999106 1.5 0 -4.0499999098 1.4499999993 0 -4.0499999098 1.5 0 
-3.9999999091 1.4499999993 0 -3.9999999091 1.5 0 -3.9499999084 1.4499999993 0 
-3.9499999084 1.5 0 -3.8999999076 1.4499999993 0 -3.8999999076 1.5 0 
-3.8499999069 1.4499999993 0 -3.8499999069 1.5 0 -3.7999999061 1.4499999993 0 
-3.7999999061 1.5 0 -3.7499999054 1.4499999993 0 -3.7499999054 1.5 0 
-3.6999999046 1.4499999993 0 -3.6999999046 1.5 0 -3.6499999039 1.4499999993 0 
-3.6499999039 1.5 0 -3.5999999031 1.4499999993 0 -3.5999999031 1.5 0 
-3.5499999024 1.4499999993 0 -3.5499999024 1.5 0 -3.4999999017 1.4499999993 0 
-3.4999999017 1.5 0 -3.4499999009 1.4499999993 0 -3.4499999009 1.5 0 
-3.3999999002 1.4499999993 0 -3.3999999002 1.5 0 -3.3499998994 1.4499999993 0 
-3.3499998994 1.5 0 -3.2999998987 1.4499999993 0 -3.2999998987 1.5 0 
-3.2499998979 1.4499999993 0 -3.2499998979 1.5 0 -3.1999998972 1.4499999993 0 
-3.1999998972 1.5 0 -3.1499998964 1.4499999993 0 -3.1499998964 1.5 0 
-3.0999998957 1.4499999993 0 -3.0999998957 1.5 0 -3.0499998949 1.4499999993 0 
-3.0499998949 1.5 0 -2.9999998942 1.4499999993 0 -2.9999998942 1.5 0 
-2.9499998935 1.4499999993 0 -2.9499998935 1.5 0 -2.8999998927 1.4499999993 0 
-2.8999998927 1.5 0 -2.849999892 1.4499999993 0 -2.849999892 1.5 0 
-2.7999998912 1.4499999993 0 -2.7999998912 1.5 0 -2.7499998905 1.4499999993 0 
-2.7499998905 1.5 0 -2.6999998897 1.4499999993 0 -2.6999998897 1.5 0 
-2.649999889 1.4499999993 0 -2.649999889 1.5 0 -2.5999998882 1.4499999993 0 
-2.5999998882 1.5 0 -2.5499998875 1.4499999993 0 -2.5499998875 1.5 0 
-2.4999998868 1.4499999993 0 -2.4999998868 1.5 0 -2.449999886 1.4499999993 0 
-2.449999886 1.5 0 -2.3999998853 1.4499999993 0 -2.3999998853 1.5 0 
-2.3499998845 1.4499999993 0 -2.3499998845 1.5 0 -2.2999998838 1.4499999993 0 
-2.2999998838 1.5 0 -2.249999883 1.4499999993 0 -2.249999883 1.5 0 
-2.1999998823 1.4499999993 0 -2.1999998823 1.5 0 -2.1499998815 1.4499999993 0 
-2.1499998815 1.5 0 -2.0999998808 1.4499999993 0 -2.0999998808 1.5 0 
-2.04999988 1.4499999993 0 -2.04999988 1.5 0 -1.9999998793 1.4499999993 0 
-1.9999998793 1.5 0 -1.9499998786 1.4499999993 0 -1.9499998786 1.5 0 
-1.8999998778 1.4499999993 0 -1.8999998778 1.5 0 -1.8499998771 1.4499999993 0 
-1.8499998771 1.5 0 -1.7999998763 1.4499999993 0 -1.7999998763 1.5 0 
-1.7499998756 1.4499999993 0 -1.7499998756 1.5 0 -1.6999998748 1.4499999993 0 
-1.6999998748 1.5 0 -1.6499998741 1.4499999993 0 -1.6499998741 1.5 0 
-1.5999998733 1.4499999993 0 -1.5999998733 1.5 0 -1.5499998726 1.4499999993 0 
-1.5499998726 1.5 0 -1.4999998718 1.4499999993 0 -1.4999998718 1.5 0 
-1.4499998711 1.4499999993 0 -1.4499998711 1.5 0 -1.3999998704 1.4499999993 0 
-1.3999998704 1.5 0 -1.3499998696 1.4499999993 0 -1.3499998696 1.5 0 
-1.2999998689 1.4499999993 0 -1.2999998689 1.5 0 -1.2499998681 1.4499999993 0 
-1.2499998681 1.5 0 -1.1999998674 1.4499999993 0 -1.1999998674 1.5 0 
-1.1499998666 1.4499999993 0 -1.1499998666 1.5 0 -1.0999998659 1.4499999993 0 
-1.0999998659 1.5 0 -1.0499998651 1.4499999993 0 -1.0499998651 1.5 0 
-0.9999998644 1.4499999993 0 -0.9999998644 1.5 0 -0.94999986365 1.4499999993 0 
-0.94999986365 1.5 0 -0.89999986291 1.4499999993 0 -0.89999986291 1.5 0 
-0.84999986216 1.4499999993 0 -0.84999986216 1.5 0 -0.79999986142 1.4499999993 0 
-0.79999986142 1.5 0 -0.74999986067 1.4499999993 0 -0.74999986067 1.5 0 
-0.69999985993 1.4499999993 0 -0.69999985993 1.5 0 -0.64999985918 1.4499999993 0 
-0.64999985918 1.5 0 -0.59999985844 1.4499999993 0 -0.59999985844 1.5 0 
-0.54999985769 1.4499999993 0 -0.54999985769 1.5 0 -0.49999985695 1.4499999993 0 
-0.49999985695 1.5 0 -0.4499998562 1.4499999993 0 -0.4499998562 1.5 0 
-0.39999985546 1.4499999993 0 -0.39999985546 1.5 0 -0.34999985471 1.4499999993 0 
-0.34999985471 1.5 0 -0.29999985397 1.4499999993 0 -0.29999985397 1.5 0 
-0.24999985322 1.4499999993 0 -0.24999985322 1.5 0 -0.191663057 1.4499999993 0 
-0.17548248559 1.5 0 0.18862900414 1.4499999993 0 0.25000015423 1.4499999993 0 
[...]
CELL_DATA 9510
FIELD FieldData 4
Water_Depth_m 1 9510 float
0.344998 0.344995 0.344993 0.344991 0.344992 0.344993 0.344998 0.345005 0.345014 
0.345027 0.345044 0.345063 0.345087 0.345114 0.345146 0.345181 0.345219 0.345262 
0.345309 0.345358 0.345411 0.345468 0.345527 0.345589 0.345653 0.345719 0.345786 
0.345855 0.345925 0.345995 0.346066 0.346136 0.346206 0.346274 0.346342 0.346407 
0.346471 0.346532 0.34659 0.346645 0.346697 0.346746 0.34679 0.346831 0.346867 
0.346899 0.346925 0.346947 0.346964 0.346976 0.346982 0.346983 0.346978 0.346968 
0.346952 0.34693 0.346903 0.346869 0.346831 0.346786 0.346737 0.346682 0.346622 
0.346557 0.346488 0.346415 0.346338 0.346258 0.346175 0.346089 0.346 0.34591 
0.345818 0.345724 0.345629 0.345533 0.345437 0.345339 0.345241 0.345143 0.345044 
0.344945 0.344847 0.344748 0.344651 0.344554 0.344458 0.344365 0.344274 0.344186 
0.344102 0.344022 0.343949 0.343882 0.343822 0.343771 0.34373 0.343698 0.343678 
0.343668 0.34367 0.343683 0.343707 0.343742 0.343785 0.343837 0.343895 0.343959 
0.344028 0.344098 0.34417 0.344242 0.344312 0.34438 0.344445 0.344506 0.344563 
0.344616 0.344664 0.344709 0.34475 0.344788 0.344824 0.344859 0.344894 0.344929 
0.344965 0.345003 0.345043 0.345085 0.345129 0.345176 0.345224 0.345272 0.345321 
0.345369 0.345415 0.345459 0.345499 0.345534 0.345565 0.345591 0.345611 0.345626 
0.345635 0.34564 0.34564 0.345637 0.345631 0.345623 0.345614 0.345604 0.345595 
0.345587 0.345582 0.345579 0.345579 0.345582 0.345589 0.345599 0.345613 0.345629 
0.345649 0.345671 0.345695 0.34572 0.345748 0.345777 0.345808 0.34584 0.345874 
0.34591 0.345947 0.345987 0.34603 0.346075 0.346124 0.346177 0.346234 0.346297 
0.346366 0.346442 0.346527 0.346621 0.346725 0.346842 0.346972 0.347118 0.34728 
0.347459 0.347657 0.347876 0.348117 0.348379 0.348658 0.348972 0.349289 0.349679 
0.352784 0.353123 0.353403 0.353663 0.353901 0.354118 0.354315 0.354493 0.354653 
0.354797 0.354926 0.355042 0.355145 0.355238 0.355321 0.355395 0.355461 0.35552 
0.355573 0.35562 0.355663 0.3557 0.355734 0.355764 0.355791 0.355815 0.355837 
0.355856 0.355873 0.355888 0.355902 0.355914 0.355925 0.355934 0.355943 0.35595 
0.355957 0.355963 0.355968 0.355972 0.355976 0.355979 0.355982 0.355985 0.355987 
0.355989 0.35599 0.355991 0.355992 0.355993 0.355993 0.355993 0.355993 0.355993 
0.355993 0.355993 0.355992 0.355991 0.355991 0.35599 0.355989 0.355988 0.355987 
0.355986 0.355985 0.355984 0.355982 0.355981 0.35598 0.355978 0.355977 0.355976 
0.355974 0.355973 0.355971 0.35597 0.355968 0.355967 0.355965 0.355964 0.355962 
0.35596 0.355959 0.355957 0.355956 0.355954 0.355953 0.355951 0.355949 0.355948 
0.355946 0.355945 0.35594 0.355925 0.355501 0.353458 0.350111 0.344998 0.344995 
0.344992 0.34499 0.34499 0.344991 0.344995 0.345002 0.345011 0.345024 0.34504 
0.34506 0.345083 0.34511 0.345141 0.345176 0.345215 0.345258 0.345304 0.345354 
0.345408 0.345464 0.345523 0.345585 0.345649 0.345716 0.345784 0.345853 0.345923 
0.345994 0.346064 0.346135 0.346205 0.346274 0.346342 0.346408 0.346472 0.346533 
0.346592 0.346648 0.3467 0.346749 0.346794 0.346835 0.346871 0.346903 0.34693 
0.346952 0.346969 0.346981 0.346988 0.346988 0.346984 0.346973 0.346957 0.346935 
0.346908 0.346874 0.346835 0.346791 0.346741 0.346685 0.346625 0.34656 0.346491 
0.346417 0.34634 0.346259 0.346175 0.346089 0.346 0.345909 0.345817 0.345723 
0.345628 0.345532 0.345435 0.345337 0.345239 0.34514 0.345042 0.344943 0.344844 
0.344745 0.344647 0.34455 0.344454 0.34436 0.344268 0.344179 0.344095 0.344015 
0.34394 0.343872 0.343812 0.343761 0.343719 0.343687 0.343666 0.343657 0.343659 
0.343673 0.343698 0.343733 0.343777 0.34383 0.34389 0.343955 0.344025 0.344097 
0.34417 0.344243 0.344314 0.344383 0.344449 0.34451 0.344567 0.344619 0.344668 
0.344712 0.344752 0.34479 0.344825 0.34486 0.344894 0.344928 0.344963 0.345001 
0.34504 0.345083 0.345127 0.345174 0.345223 0.345272 0.345322 0.345371 0.345418 
0.345462 0.345503 0.345539 0.34557 0.345596 0.345616 0.34563 0.34564 0.345644 
0.345644 0.34564 0.345633 0.345624 0.345614 0.345604 0.345594 0.345585 0.345579 
0.345576 0.345575 0.345579 0.345586 0.345596 0.34561 0.345627 0.345647 0.345668 
0.345693 0.345719 0.345747 0.345776 0.345806 0.345838 0.345872 0.345908 0.345945 
0.345985 0.346027 0.346072 0.34612 0.346172 0.346229 0.346291 0.346359 0.346434 
0.346517 0.346609 0.346713 0.346828 0.346957 0.3471 0.347259 0.347437 0.347634 
0.347851 0.348089 0.348348 0.348631 0.34894 0.34926 0.34964 0.352787 0.353128 
0.353411 0.353671 0.353911 0.354128 0.354325 0.354503 0.354663 0.354807 0.354935 
0.35505 0.355153 0.355246 0.355328 0.355401 0.355467 0.355526 0.355578 0.355625 
0.355667 0.355704 0.355737 0.355767 0.355794 0.355817 0.355839 0.355858 0.355875 
0.35589 0.355903 0.355915 0.355926 0.355935 0.355943 0.355951 0.355957 0.355963 
0.355968 0.355973 0.355976 0.35598 0.355983 0.355985 0.355987 0.355989 0.35599 
0.355991 0.355992 0.355993 0.355993 0.355993 0.355993 0.355993 0.355993 0.355993 
0.355992 0.355992 0.355991 0.35599 0.355989 0.355988 0.355987 0.355986 0.355985 
0.355984 0.355982 0.355981 0.35598 0.355978 0.355977 0.355976 0.355974 0.355973 
0.355971 0.35597 0.355968 0.355967 0.355965 0.355964 0.355962 0.35596 0.355959 
0.355957 0.355956 0.355954 0.355953 0.355951 0.355949 0.355948 0.355946 0.355945 
0.35594 0.355925 0.355501 0.353458 0.350111 0.344998 0.344993 0.34499 0.344987 
0.344986 0.344987 0.34499 0.344996 0.345005 0.345017 0.345033 0.345052 0.345075 
0.345102 0.345133 0.345168 0.345207 0.345249 0.345296 0.345346 0.3454 0.345456 
0.345516 0.345578 0.345643 0.34571 0.345778 0.345848 0.345919 0.34599 0.346062 
0.346133 0.346204 0.346274 0.346342 0.346409 0.346474 0.346536 0.346595 0.346652 
0.346705 0.346755 0.3468 0.346842 0.346879 0.346912 0.346939 0.346962 0.34698 
0.346992 0.346998 0.346999 0.346995 0.346984 0.346968 0.346946 0.346918 0.346884 
0.346845 0.346799 0.346749 0.346693 0.346632 0.346566 0.346495 0.346421 0.346343 
0.346261 0.346177 0.346089 0.346 0.345908 0.345815 0.345721 0.345625 0.345529 
0.345431 0.345333 0.345235 0.345136 0.345037 0.344937 0.344838 0.344739 0.34464 
0.344542 0.344445 0.34435 0.344257 0.344167 0.344081 0.343999 0.343923 0.343854 
0.343792 0.34374 0.343697 0.343664 0.343643 0.343634 0.343637 0.343651 0.343678 
0.343715 0.343761 0.343817 0.343879 0.343947 0.344019 0.344094 0.34417 0.344245 
0.344319 0.344389 0.344456 0.344518 0.344575 0.344627 0.344675 0.344718 0.344757 
0.344793 0.344827 0.34486 0.344892 0.344925 0.34496 0.344996 0.345036 0.345078 
0.345123 0.34517 0.34522 0.345271 0.345323 0.345374 0.345423 0.345469 0.345511 
0.345548 0.34558 0.345606 0.345626 0.345641 0.345649 0.345652 0.345651 0.345646 
0.345637 0.345626 0.345614 0.345602 0.345591 0.345581 0.345573 0.345569 0.345569 
0.345572 0.345579 0.34559 0.345604 0.345621 0.345642 0.345664 0.345689 0.345715 
0.345743 0.345773 0.345803 0.345835 0.345869 0.345904 0.345941 0.34598 0.346021 
0.346065 0.346112 0.346163 0.346218 0.346279 0.346345 0.346418 0.346498 0.346588 
0.346688 0.3468 0.346925 0.347064 0.34722 0.347394 0.347586 0.347799 0.348034 
0.348292 0.348575 0.348879 0.3492 0.34958 0.352792 0.353139 0.353426 0.35369 
0.353931 0.35415 0.354347 0.354524 0.354684 0.354826 0.354954 0.355068 0.35517 
0.35526 0.355341 0.355414 0.355478 0.355536 0.355587 0.355633 0.355674 0.355711 
0.355744 0.355773 0.355799 0.355822 0.355843 0.355861 0.355878 0.355893 0.355906 
0.355917 0.355928 0.355937 0.355945 0.355952 0.355959 0.355964 0.355969 0.355974 
0.355977 0.355981 0.355983 0.355986 0.355988 0.355989 0.355991 0.355992 0.355993 
0.355993 0.355994 0.355994 0.355994 0.355994 0.355993 0.355993 0.355992 0.355992 
0.355991 0.35599 0.355989 0.355988 0.355987 0.355986 0.355985 0.355984 0.355982 
0.355981 0.35598 0.355978 0.355977 0.355976 0.355974 0.355973 0.355971 0.35597 
0.355968 0.355967 0.355965 0.355964 0.355962 0.35596 0.355959 0.355957 0.355956 
0.355954 0.355953 0.355951 0.355949 0.355948 0.355946 0.355945 0.35594 0.355925 
0.355501 0.353458 0.350111 0.344997 0.344991 0.344986 0.344982 0.34498 0.34498 
0.344982 0.344987 0.344995 0.345007 0.345022 0.34504 0.345063 0.34509 0.34512 
0.345155 0.345194 0.345237 0.345283 0.345334 0.345388 0.345445 0.345505 0.345568 
0.345633 0.345701 0.34577 0.345841 0.345913 0.345985 0.346058 0.34613 0.346202 
0.346273 0.346343 0.34641 0.346476 0.34654 0.346601 0.346658 0.346713 0.346764 
0.34681 0.346853 0.346891 0.346925 0.346953 0.346977 0.346995 0.347007 0.347014 
0.347016 0.347011 0.347001 0.346985 0.346962 0.346934 0.346899 0.346859 0.346813 
0.346761 0.346704 0.346641 0.346574 0.346502 0.346426 0.346347 0.346264 0.346178 
0.34609 0.345999 0.345907 0.345813 0.345718 0.345621 0.345524 0.345426 0.345328 
0.345229 0.345129 0.34503 0.34493 0.344829 0.344729 0.344629 0.34453 0.344432 
0.344335 0.34424 0.344148 0.344059 0.343976 0.343897 0.343826 0.343762 0.343708 
0.343663 0.34363 0.343608 0.343599 0.343603 0.343619 0.343647 0.343687 0.343737 
0.343796 0.343862 0.343935 0.344011 0.34409 0.34417 0.344249 0.344325 0.344398 
0.344467 0.34453 0.344588 0.34464 0.344686 0.344728 0.344765 0.344799 0.344831 
0.344861 0.344891 0.344921 0.344954 0.344989 0.345028 0.34507 0.345115 0.345165 
0.345216 0.34527 0.345324 0.345378 0.34543 0.345479 0.345523 0.345562 0.345595 
0.345622 0.345643 0.345656 0.345664 0.345665 0.345662 0.345654 0.345643 0.345629 
0.345615 0.3456 0.345586 0.345574 0.345565 0.345559 0.345558 0.345561 0.345568 
0.34558 0.345595 0.345613 0.345634 0.345658 0.345684 0.345711 0.345739 0.345768 
0.345799 0.345831 0.345864 0.345898 0.345934 0.345972 0.346013 0.346055 0.346101 
0.34615 0.346203 0.346261 0.346324 0.346394 0.346471 0.346556 0.346652 0.346758 
0.346877 0.347011 0.347161 0.347328 0.347515 0.347722 0.347952 0.348205 0.348485 
0.348787 0.349107 0.349489 0.352799 0.353156 0.35345 0.353718 0.353962 0.354182 
0.35438 0.354557 0.354715 0.354856 0.354982 0.355094 0.355194 0.355283 0.355362 
0.355432 0.355495 0.355551 0.355601 0.355646 0.355686 0.355721 0.355753 0.355781 
0.355806 0.355829 0.355849 0.355867 0.355883 0.355897 0.35591 0.355921 0.355931 
0.35594 0.355948 0.355955 0.355961 0.355966 0.355971 0.355975 0.355979 0.355982 
0.355985 0.355987 0.355989 0.35599 0.355991 0.355992 0.355993 0.355994 0.355994 
0.355994 0.355994 0.355994 0.355994 0.355993 0.355993 0.355992 0.355991 0.35599 
0.355989 0.355988 0.355987 0.355986 0.355985 0.355984 0.355983 0.355981 0.35598 
0.355978 0.355977 0.355976 0.355974 0.355973 0.355971 0.35597 0.355968 0.355967 
0.355965 0.355964 0.355962 0.35596 0.355959 0.355957 0.355956 0.355954 0.355953 
0.355951 0.355949 0.355948 0.355946 0.355945 0.35594 0.355925 0.355501 0.353458 
0.350111 0.344996 0.344989 0.344982 0.344976 0.344972 0.344971 0.344972 0.344975 
0.344982 0.344993 0.345007 0.345025 0.345047 0.345073 0.345104 0.345138 0.345177 
0.34522 0.345267 0.345317 0.345372 0.345429 0.34549 0.345554 0.34562 0.345689 
0.345759 0.345831 0.345904 0.345978 0.346052 0.346126 0.346199 0.346272 0.346343 
0.346413 0.34648 0.346545 0.346608 0.346667 0.346723 0.346775 0.346823 0.346868 
0.346907 0.346942 0.346971 0.346996 0.347015 0.347028 0.347036 0.347038 0.347033 
0.347023 0.347006 0.346983 0.346954 0.346919 0.346878 0.34683 0.346777 0.346718 
0.346654 0.346585 0.346511 0.346434 0.346352 0.346268 0.34618 0.34609 0.345998 
0.345904 0.345809 0.345713 0.345616 0.345518 0.345419 0.34532 0.345221 0.345121 
0.34502 0.344919 0.344818 0.344717 0.344615 0.344514 0.344414 0.344315 0.344217 
0.344123 0.344031 0.343944 0.343863 0.343788 0.343721 0.343664 0.343617 0.343583 
0.34356 0.343551 0.343556 0.343574 0.343606 0.343649 0.343704 0.343768 0.34384 
0.343919 0.344001 0.344086 0.344171 0.344255 0.344335 0.344411 0.344482 0.344547 
0.344606 0.344657 0.344702 0.344742 0.344776 0.344807 0.344835 0.344861 0.344888 
0.344915 0.344945 0.344979 0.345016 0.345058 0.345105 0.345156 0.34521 0.345268 
0.345326 0.345384 0.34544 0.345492 0.34554 0.345582 0.345617 0.345645 0.345665 
0.345678 0.345684 0.345683 0.345677 0.345666 0.345651 0.345634 0.345615 0.345596 
0.345579 0.345564 0.345553 0.345546 0.345543 0.345546 0.345554 0.345566 0.345582 
0.345602 0.345625 0.34565 0.345677 0.345704 0.345733 0.345763 0.345793 0.345825 
0.345857 0.345891 0.345926 0.345963 0.346002 0.346043 0.346086 0.346133 0.346183 
0.346238 0.346297 0.346362 0.346434 0.346514 0.346603 0.346703 0.346815 0.346941 
0.347083 0.347242 0.34742 0.347619 0.34784 0.348087 0.348362 0.34866 0.348979 
0.349364 0.352811 0.353181 0.353483 0.353758 0.354005 0.354227 0.354425 0.354601 
0.354757 0.354896 0.355019 0.355129 0.355226 0.355312 0.355389 0.355457 0.355518 
0.355572 0.35562 0.355663 0.355701 0.355735 0.355765 0.355792 0.355816 0.355838 
0.355857 0.355874 0.35589 0.355903 0.355915 0.355926 0.355936 0.355944 0.355951 
0.355958 0.355964 0.355969 0.355973 0.355977 0.355981 0.355984 0.355986 0.355988 
0.35599 0.355991 0.355992 0.355993 0.355994 0.355994 0.355995 0.355995 0.355995 
0.355994 0.355994 0.355994 0.355993 0.355992 0.355991 0.355991 0.35599 0.355989 
0.355988 0.355986 0.355985 0.355984 0.355983 0.355981 0.35598 0.355979 0.355977 
0.355976 0.355974 0.355973 0.355971 0.35597 0.355968 0.355967 0.355965 0.355964 
0.355962 0.35596 0.355959 0.355957 0.355956 0.355954 0.355953 0.355951 0.355949 
0.355948 0.355946 0.355945 0.35594 0.355925 0.355501 0.353458 0.350111 0.344995 
0.344985 0.344976 0.344969 0.344963 0.344959 0.344959 0.344961 0.344966 0.344976 
0.344989 0.345006 0.345027 0.345053 0.345083 0.345117 0.345156 0.345199 0.345246 
0.345297 0.345352 0.34541 0.345472 0.345537 0.345604 0.345674 0.345746 0.345819 
0.345894 0.345969 0.346045 0.346121 0.346196 0.34627 0.346344 0.346415 0.346485 
0.346552 0.346616 0.346678 0.346735 0.34679 0.34684 0.346886 0.346927 0.346963 
0.346994 0.34702 0.34704 0.347054 0.347063 0.347065 0.347061 0.34705 0.347033 
0.34701 0.34698 0.346944 0.346901 0.346852 0.346797 0.346736 0.34667 0.346599 
0.346523 0.346443 0.346359 0.346272 0.346182 0.34609 0.345996 0.345901 0.345805 
0.345707 0.345609 0.34551 0.345411 0.345311 0.345211 0.34511 0.345009 0.344907 
0.344804 0.344702 0.344598 0.344495 0.344393 0.34429 0.34419 0.344091 0.343996 
0.343905 0.343819 0.34374 0.34367 0.343609 0.343559 0.343522 0.343499 0.34349 
0.343496 0.343517 0.343553 0.343601 0.343662 0.343733 0.343812 0.343898 0.343988 
0.34408 0.344173 0.344263 0.344349 0.344429 0.344503 0.34457 0.344629 0.34468 
0.344724 0.34476 0.344791 0.344817 0.34484 0.344862 0.344883 0.344907 0.344933 
0.344964 0.345 0.345042 0.34509 0.345144 0.345202 0.345264 0.345327 0.345391 
0.345452 0.34551 0.345562 0.345607 0.345645 0.345674 0.345694 0.345706 0.345709 
0.345706 0.345696 0.345681 0.345661 0.345639 0.345615 0.345592 0.34557 0.345551 
0.345536 0.345527 0.345524 0.345526 0.345535 0.345549 0.345567 0.345589 0.345613 
0.34564 0.345668 0.345697 0.345727 0.345757 0.345787 0.345818 0.34585 0.345882 
0.345916 0.345952 0.345989 0.346028 0.346069 0.346113 0.34616 0.34621 0.346265 
0.346325 0.34639 0.346463 0.346545 0.346636 0.346739 0.346855 0.346986 0.347134 
0.347301 0.347489 0.3477 0.347937 0.348204 0.348496 0.348812 0.3492 0.352828 
0.353215 0.353528 0.35381 0.354062 0.354285 0.354482 0.354657 0.354811 0.354946 
0.355066 0.355172 0.355266 0.355349 0.355422 0.355488 0.355545 0.355597 0.355643 
0.355683 0.355719 0.355752 0.35578 0.355806 0.355829 0.355849 0.355867 0.355883 
0.355898 0.35591 0.355922 0.355932 0.355941 0.355949 0.355956 0.355962 0.355967 
0.355972 0.355976 0.35598 0.355983 0.355986 0.355988 0.35599 0.355991 0.355993 
0.355994 0.355994 0.355995 0.355995 0.355995 0.355995 0.355995 0.355995 0.355995 
0.355994 0.355993 0.355993 0.355992 0.355991 0.35599 0.355989 0.355988 0.355987 
0.355985 0.355984 0.355983 0.355981 0.35598 0.355979 0.355977 0.355976 0.355974 
0.355973 0.355971 0.35597 0.355968 0.355967 0.355965 0.355964 0.355962 0.355961 
0.355959 0.355957 0.355956 0.355954 0.355953 0.355951 0.355949 0.355948 0.355946 
0.355945 0.35594 0.355925 0.355501 0.353458 0.350111 0.344994 0.344981 0.34497 
0.34496 0.344952 0.344946 0.344943 0.344943 0.344947 0.344955 0.344967 0.344983 
0.345003 0.345028 0.345058 0.345092 0.34513 0.345173 0.345221 0.345272 0.345328 
0.345387 0.34545 0.345516 0.345585 0.345656 0.345729 0.345804 0.345881 0.345958 
0.346036 0.346114 0.346192 0.346268 0.346344 0.346418 0.34649 0.346559 0.346626 
0.34669 0.34675 0.346807 0.346859 0.346907 0.34695 0.346988 0.347021 0.347049 
0.34707 0.347085 0.347095 0.347097 0.347094 0.347083 0.347066 0.347042 0.347011 
0.346974 0.346929 0.346878 0.346821 0.346758 0.346689 0.346615 0.346536 0.346453 
0.346366 0.346276 0.346184 0.34609 0.345994 0.345897 0.345798 0.3457 0.3456 
0.345501 0.3454 0.3453 0.345199 0.345097 0.344995 0.344892 0.344788 0.344684 
0.344579 0.344473 0.344367 0.344262 0.344157 0.344054 0.343954 0.343857 0.343766 
0.343682 0.343606 0.343541 0.343487 0.343447 0.343423 0.343414 0.343422 0.343446 
0.343487 0.343542 0.343609 0.343689 0.343777 0.343873 0.343973 0.344075 0.344176 
0.344274 0.344367 0.344453 0.344531 0.3446 0.34466 0.34471 0.344751 0.344784 
0.344809 0.34483 0.344846 0.344862 0.344878 0.344896 0.344917 0.344945 0.344979 
0.34502 0.34507 0.345127 0.34519 0.345258 0.345329 0.3454 0.345468 0.345533 
0.34559 0.34564 0.34568 0.34571 0.34573 0.345741 0.345742 0.345734 0.34572 
0.345699 0.345674 0.345645 0.345615 0.345585 0.345557 0.345533 0.345515 0.345503 
0.345498 0.345501 0.345511 0.345527 0.345548 0.345572 0.3456 0.345629 0.345659 
0.345689 0.34572 0.34575 0.34578 0.34581 0.345841 0.345873 0.345905 0.345939 
0.345974 0.346011 0.346049 0.34609 0.346133 0.346179 0.346228 0.346281 0.34634 
0.346404 0.346476 0.346557 0.346649 0.346753 0.346871 0.347005 0.347158 0.347333 
0.34753 0.347753 0.348008 0.348289 0.3486 0.348989 0.352852 0.353261 0.353588 
0.353878 0.354133 0.354357 0.354553 0.354725 0.354876 0.355007 0.355123 0.355224 
0.355314 0.355393 0.355462 0.355524 0.355578 0.355627 0.355669 0.355707 0.355741 
0.355771 0.355798 0.355822 0.355843 0.355862 0.355879 0.355894 0.355907 0.355919 
0.35593 0.355939 0.355947 0.355954 0.355961 0.355967 0.355971 0.355976 0.35598 
0.355983 0.355986 0.355988 0.35599 0.355992 0.355993 0.355994 0.355995 0.355996 
0.355996 0.355996 0.355996 0.355996 0.355996 0.355996 0.355995 0.355995 0.355994 
0.355993 0.355992 0.355991 0.35599 0.355989 0.355988 0.355987 0.355986 0.355984 
0.355983 0.355982 0.35598 0.355979 0.355977 0.355976 0.355974 0.355973 0.355971 
0.35597 0.355968 0.355967 0.355965 0.355964 0.355962 0.355961 0.355959 0.355957 
0.355956 0.355954 0.355953 0.355951 0.355949 0.355948 0.355946 0.355945 0.35594 
0.355925 0.355501 0.353458 0.350111 0.344992 0.344977 0.344962 0.34495 0.344939 
0.344931 0.344926 0.344924 0.344926 0.344932 0.344942 0.344957 0.344976 0.345 
0.345029 0.345063 0.345101 0.345144 0.345192 0.345244 0.3453 0.34536 0.345424 
0.345492 0.345562 0.345635 0.34571 0.345787 0.345866 0.345946 0.346026 0.346106 
0.346186 0.346266 0.346344 0.346421 0.346495 0.346568 0.346637 0.346704 0.346767 
0.346826 0.346881 0.346931 0.346977 0.347017 0.347052 0.347082 0.347105 0.347121 
0.347132 0.347135 0.347132 0.347121 0.347104 0.347079 0.347047 0.347008 0.346962 
0.346909 0.346849 0.346783 0.346711 0.346633 0.346551 0.346464 0.346374 0.346281 
0.346186 0.346088 0.34599 0.345891 0.345791 0.34569 0.34559 0.345489 0.345388 
0.345287 0.345185 0.345083 0.34498 0.344876 0.344771 0.344664 0.344557 0.344448 
0.344339 0.344229 0.344119 0.344011 0.343905 0.343802 0.343704 0.343613 0.34353 
0.343459 0.343401 0.343357 0.34333 0.343322 0.343332 0.34336 0.343407 0.34347 
0.343547 0.343636 0.343736 0.343844 0.343956 0.34407 0.344182 0.34429 0.344391 
0.344483 0.344567 0.344638 0.344699 0.344748 0.344785 0.344813 0.344832 0.344845 
0.344854 0.344862 0.34487 0.344881 0.344896 0.344919 0.34495 0.344991 0.345043 
0.345104 0.345174 0.34525 0.34533 0.34541 0.345488 0.34556 0.345625 0.34568 
0.345723 0.345755 0.345775 0.345783 0.345781 0.345769 0.345749 0.345722 0.345689 