# vtk DataFile Version 5.1
vtk output
ASCII
DATASET UNSTRUCTURED_GRID
POINTS 10043 double
-10.1 1.4499999993 0 -10.049999999 1.4499999993 0 -10.049999999 1.5 0 
-9.9999999985 1.4499999993 0 -9.9999999985 1.5 0 -9.9499999978 1.4499999993 0 
-9.9499999978 1.5 0 -9.899999997 1.4499999993 0 -9.899999997 1.5 0 
-9.8499999963 1.4499999993 0 -9.8499999963 1.5 0 -9.7999999955 1.4499999993 0 
-9.7999999955 1.5 0 -9.7499999948 1.4499999993 0 -9.7499999948 1.5 0 
-9.699999994 1.4499999993 0 -9.699999994 1.5 0 -9.6499999933 1.4499999993 0 
-9.6499999933 1.5 0 -9.5999999925 1.4499999993 0 -9.5999999925 1.5 0 
-9.5499999918 1.4499999993 0 -9.5499999918 1.5 0 -9.4999999911 1.4499999993 0 
-9.4999999911 1.5 0 -9.4499999903 1.4499999993 0 -9.4499999903 1.5 0 
-9.3999999896 1.4499999993 0 -9.3999999896 1.5 0 -9.3499999888 1.4499999993 0 
-9.3499999888 1.5 0 -9.2999999881 1.4499999993 0 -9.2999999881 1.5 0 
-9.2499999873 1.4499999993 0 -9.2499999873 1.5 0 -9.1999999866 1.4499999993 0 
-9.1999999866 1.5 0 -9.1499999858 1.4499999993 0 -9.1499999858 1.5 0 
-9.0999999851 1.4499999993 0 -9.0999999851 1.5 0 -9.0499999844 1.4499999993 0 
-9.0499999844 1.5 0 -8.9999999836 1.4499999993 0 -8.9999999836 1.5 0 
-8.9499999829 1.4499999993 0 -8.9499999829 1.5 0 -8.8999999821 1.4499999993 0 
-8.8999999821 1.5 0 -8.8499999814 1.4499999993 0 -8.8499999814 1.5 0 
-8.7999999806 1.4499999993 0 -8.7999999806 1.5 0 -8.7499999799 1.4499999993 0 
-8.7499999799 1.5 0 -8.6999999791 1.4499999993 0 -8.6999999791 1.5 0 
-8.6499999784 1.4499999993 0 -8.6499999784 1.5 0 -8.5999999776 1.4499999993 0 
-8.5999999776 1.5 0 -8.5499999769 1.4499999993 0 -8.5499999769 1.5 0 
-8.4999999762 1.4499999993 0 -8.4999999762 1.5 0 -8.4499999754 1.4499999993 0 
-8.4499999754 1.5 0 -8.3999999747 1.4499999993 0 -8.3999999747 1.5 0 
-8.3499999739 1.4499999993 0 -8.3499999739 1.5 0 -8.2999999732 1.4499999993 0 
-8.2999999732 1.5 0 -8.2499999724 1.4499999993 0 -8.2499999724 1.5 0 
-8.1999999717 1.4499999993 0 -8.1999999717 1.5 0 -8.1499999709 1.4499999993 0 
-8.1499999709 1.5 0 -8.0999999702 1.4499999993 0 -8.0999999702 1.5 0 
-8.0499999695 1.4499999993 0 -8.0499999695 1.5 0 -7.9999999687 1.4499999993 0 
-7.9999999687 1.5 0 -7.949999968 1.4499999993 0 -7.949999968 1.5 0 
-7.8999999672 1.4499999993 0 -7.8999999672 1.5 0 -7.8499999665 1.4499999993 0 
-7.8499999665 1.5 0 -7.7999999657 1.4499999993 0 -7.7999999657 1.5 0 
-7.749999965 1.4499999993 0 -7.749999965 1.5 0 -7.6999999642 1.4499999993 0 
-7.6999999642 1.5 0 -7.6499999635 1.4499999993 0 -7.6499999635 1.5 0 
-7.5999999627 1.4499999993 0 -7.5999999627 1.5 0 -7.549999962 1.4499999993 0 
-7.549999962 1.5 0 -7.4999999613 1.4499999993 0 -7.4999999613 1.5 0 
-7.4499999605 1.4499999993 0 -7.4499999605 1.5 0 -7.3999999598 1.4499999993 0 
-7.3999999598 1.5 0 -7.349999959 1.4499999993 0 -7.349999959 1.5 0 
-7.2999999583 1.4499999993 0 -7.2999999583 1.5 0 -7.2499999575 1.4499999993 0 
-7.2499999575 1.5 0 -7.1999999568 1.4499999993 0 -7.1999999568 1.5 0 
-7.149999956 1.4499999993 0 -7.149999956 1.5 0 -7.0999999553 1.4499999993 0 
-7.0999999553 1.5 0 -7.0499999546 1.4499999993 0 -7.0499999546 1.5 0 
-6.9999999538 1.4499999993 0 -6.9999999538 1.5 0 -6.9499999531 1.4499999993 0 
-6.9499999531 1.5 0 -6.8999999523 1.4499999993 0 -6.8999999523 1.5 0 
-6.8499999516 1.4499999993 0 -6.8499999516 1.5 0 -6.7999999508 1.4499999993 0 
-6.7999999508 1.5 0 -6.7499999501 1.4499999993 0 -6.7499999501 1.5 0 
-6.6999999493 1.4499999993 0 -6.6999999493 1.5 0 -6.6499999486 1.4499999993 0 
-6.6499999486 1.5 0 -6.5999999478 1.4499999993 0 -6.5999999478 1.5 0 
-6.5499999471 1.4499999993 0 -6.5499999471 1.5 0 -6.4999999464 1.4499999993 0 
-6.4999999464 1.5 0 -6.4499999456 1.4499999993 0 -6.4499999456 1.5 0 
-6.3999999449 1.4499999993 0 -6.3999999449 1.5 0 -6.3499999441 1.4499999993 0 
-6.3499999441 1.5 0 -6.2999999434 1.4499999993 0 -6.2999999434 1.5 0 
-6.2499999426 1.4499999993 0 -6.2499999426 1.5 0 -6.1999999419 1.4499999993 0 
-6.1999999419 1.5 0 -6.1499999411 1.4499999993 0 -6.1499999411 1.5 0 
-6.0999999404 1.4499999993 0 -6.0999999404 1.5 0 -6.0499999397 1.4499999993 0 
-6.0499999397 1.5 0 -5.9999999389 1.4499999993 0 -5.9999999389 1.5 0 
-5.9499999382 1.4499999993 0 -5.9499999382 1.5 0 -5.8999999374 1.4499999993 0 
-5.8999999374 1.5 0 -5.8499999367 1.4499999993 0 -5.8499999367 1.5 0 
-5.7999999359 1.4499999993 0 -5.7999999359 1.5 0 -5.7499999352 1.4499999993 0 
-5.7499999352 1.5 0 -5.6999999344 1.4499999993 0 -5.6999999344 1.5 0 
-5.6499999337 1.4499999993 0 -5.6499999337 1.5 0 -5.5999999329 1.4499999993 0 
-5.5999999329 1.5 0 -5.5499999322 1.4499999993 0 -5.5499999322 1.5 0 
-5.4999999315 1.4499999993 0 -5.4999999315 1.5 0 -5.4499999307 1.4499999993 0 
-5.4499999307 1.5 0 -5.39999993 1.4499999993 0 -5.39999993 1.5 0 
-5.3499999292 1.4499999993 0 -5.3499999292 1.5 0 -5.2999999285 1.4499999993 0 
-5.2999999285 1.5 0 -5.2499999277 1.4499999993 0 -5.2499999277 1.5 0 
-5.199999927 1.4499999993 0 -5.199999927 1.5 0 -5.1499999262 1.4499999993 0 
-5.1499999262 1.5 0 -5.0999999255 1.4499999993 0 -5.0999999255 1.5 0 
-5.0499999247 1.4499999993 0 -5.0499999247 1.5 0 -4.999999924 1.4499999993 0 
-4.999999924 1.5 0 -4.9499999233 1.4499999993 0 -4.9499999233 1.5 0 
-4.8999999225 1.4499999993 0 -4.8999999225 1.5 0 -4.8499999218 1.4499999993 0 
-4.8499999218 1.5 0 -4.799999921 1.4499999993 0 -4.799999921 1.5 0 
-4.7499999203 1.4499999993 0 -4.7499999203 1.5 0 -4.6999999195 1.4499999993 0 
-4.6999999195 1.5 0 -4.6499999188 1.4499999993 0 -4.6499999188 1.5 0 
-4.599999918 1.4499999993 0 -4.599999918 1.5 0 -4.5499999173 1.4499999993 0 
-4.5499999173 1.5 0 -4.4999999166 1.4499999993 0 -4.4999999166 1.5 0 
-4.4499999158 1.4499999993 0 -4.4499999158 1.5 0 -4.3999999151 1.4499999993 0 
-4.3999999151 1.5 0 -4.3499999143 1.4499999993 0 -4.3499999143 1.5 0 
-4.2999999136 1.4499999993 0 -4.2999999136 1.5 0 -4.2499999128 1.4499999993 0 
-4.2499999128 1.5 0 -4.1999999121 1.4499999993 0 -4.1999999121 1.5 0 
-4.1499999113 1.4499999993 0 -4.1499999113 1.5 0 -4.0999999106 1.4499999993 0 
-4.0999999106 1.5 0 -4.0499999098 1.4499999993 0 -4.0499999098 1.5 0 
-3.9999999091 1.4499999993 0 -3.9999999091 1.5 0 -3.9499999084 1.4499999993 0 
-3.9499999084 1.5 0 -3.8999999076 1.4499999993 0 -3.8999999076 1.5 0 
-3.8499999069 1.4499999993 0 -3.8499999069 1.5 0 -3.7999999061 1.4499999993 0 
-3.7999999061 1.5 0 -3.7499999054 1.4499999993 0 -3.7499999054 1.5 0 
-3.6999999046 1.4499999993 0 -3.6999999046 1.5 0 -3.6499999039 1.4499999993 0 
-3.6499999039 1.5 0 -3.5999999031 1.4499999993 0 -3.5999999031 1.5 0 
-3.5499999024 1.4499999993 0 -3.5499999024 1.5 0 -3.4999999017 1.4499999993 0 
-3.4999999017 1.5 0 -3.4499999009 1.4499999993 0 -3.4499999009 1.5 0 
-3.3999999002 1.4499999993 0 -3.3999999002 1.5 0 -3.3499998994 1.4499999993 0 
-3.3499998994 1.5 0 -3.2999998987 1.4499999993 0 -3.2999998987 1.5 0 
-3.2499998979 1.4499999993 0 -3.2499998979 1.5 0 -3.1999998972 1.4499999993 0 
-3.1999998972 1.5 0 -3.1499998964 1.4499999993 0 -3.1499998964 1.5 0 
-3.0999998957 1.4499999993 0 -3.0999998957 1.5 0 -3.0499998949 1.4499999993 0 
-3.0499998949 1.5 0 -2.9999998942 1.4499999993 0 -2.9999998942 1.5 0 
-2.9499998935 1.4499999993 0 -2.9499998935 1.5 0 -2.8999998927 1.4499999993 0 
-2.8999998927 1.5 0 -2.849999892 1.4499999993 0 -2.849999892 1.5 0 
-2.7999998912 1.4499999993 0 -2.7999998912 1.5 0 -2.7499998905 1.4499999993 0 
-2.7499998905 1.5 0 -2.6999998897 1.4499999993 0 -2.6999998897 1.5 0 
-2.649999889 1.4499999993 0 -2.649999889 1.5 0 -2.5999998882 1.4499999993 0 
-2.5999998882 1.5 0 -2.5499998875 1.4499999993 0 -2.5499998875 1.5 0 
-2.4999998868 1.4499999993 0 -2.4999998868 1.5 0 -2.449999886 1.4499999993 0 
-2.449999886 1.5 0 -2.3999998853 1.4499999993 0 -2.3999998853 1.5 0 
-2.3499998845 1.4499999993 0 -2.3499998845 1.5 0 -2.2999998838 1.4499999993 0 
-2.2999998838 1.5 0 -2.249999883 1.4499999993 0 -2.249999883 1.5 0 
-2.1999998823 1.4499999993 0 -2.1999998823 1.5 0 -2.1499998815 1.4499999993 0 
-2.1499998815 1.5 0 -2.0999998808 1.4499999993 0 -2.0999998808 1.5 0 
-2.04999988 1.4499999993 0 -2.04999988 1.5 0 -1.9999998793 1.4499999993 0 
-1.9999998793 1.5 0 -1.9499998786 1.4499999993 0 -1.9499998786 1.5 0 
-1.8999998778 1.4499999993 0 -1.8999998778 1.5 0 -1.8499998771 1.4499999993 0 
-1.8499998771 1.5 0 -1.7999998763 1.4499999993 0 -1.7999998763 1.5 0 
-1.7499998756 1.4499999993 0 -1.7499998756 1.5 0 -1.6999998748 1.4499999993 0 
-1.6999998748 1.5 0 -1.6499998741 1.4499999993 0 -1.6499998741 1.5 0 
-1.5999998733 1.4499999993 0 -1.5999998733 1.5 0 -1.5499998726 1.4499999993 0 
-1.5499998726 1.5 0 -1.4999998718 1.4499999993 0 -1.4999998718 1.5 0 
-1.4499998711 1.4499999993 0 -1.4499998711 1.5 0 -1.3999998704 1.4499999993 0 
-1.3999998704 1.5 0 -1.3499998696 1.4499999993 0 -1.3499998696 1.5 0 
-1.2999998689 1.4499999993 0 -1.2999998689 1.5 0 -1.2499998681 1.4499999993 0 
-1.2499998681 1.5 0 -1.1999998674 1.4499999993 0 -1.1999998674 1.5 0 
-1.1499998666 1.4499999993 0 -1.1499998666 1.5 0 -1.0999998659 1.4499999993 0 
-1.0999998659 1.5 0 -1.0499998651 1.4499999993 0 -1.0499998651 1.5 0 
-0.9999998644 1.4499999993 0 -0.9999998644 1.5 0 -0.94999986365 1.4499999993 0 
-0.94999986365 1.5 0 -0.89999986291 1.4499999993 0 -0.89999986291 1.5 0 
-0.84999986216 1.4499999993 0 -0.84999986216 1.5 0 -0.79999986142 1.4499999993 0 
-0.79999986142 1.5 0 -0.74999986067 1.4499999993 0 -0.74999986067 1.5 0 
-0.69999985993 1.4499999993 0 -0.69999985993 1.5 0 -0.64999985918 1.4499999993 0 
-0.64999985918 1.5 0 -0.59999985844 1.4499999993 0 -0.59999985844 1.5 0 
-0.54999985769 1.4499999993 0 -0.54999985769 1.5 0 -0.49999985695 1.4499999993 0 
-0.49999985695 1.5 0 -0.4499998562 1.4499999993 0 -0.4499998562 1.5 0 
-0.39999985546 1.4499999993 0 -0.39999985546 1.5 0 -0.34999985471 1.4499999993 0 
-0.34999985471 1.5 0 -0.29999985397 1.4499999993 0 -0.29999985397 1.5 0 
-0.24999985322 1.4499999993 0 -0.24999985322 1.5 0 -0.191663057 1.4499999993 0 
-0.17548248559 1.5 0 0.18862900414 1.4499999993 0 0.25000015423 1.4499999993 0 
[...]
CELL_DATA 9510
FIELD FieldData 4
Water_Depth_m 1 9510 float
0.34505 0.345147 0.345242 0.345337 0.345431 0.345526 0.34562 0.345715 0.34581 
0.345905 0.346001 0.346097 0.346194 0.34629 0.346386 0.346482 0.346578 0.346672 
0.346766 0.346859 0.34695 0.347039 0.347127 0.347213 0.347296 0.347377 0.347455 
0.34753 0.347602 0.347671 0.347736 0.347798 0.347857 0.347911 0.347962 0.34801 
0.348053 0.348092 0.348128 0.34816 0.348188 0.348211 0.348231 0.348247 0.34826 
0.348268 0.348272 0.348273 0.34827 0.348263 0.348252 0.348237 0.348218 0.348195 
0.348168 0.348136 0.3481 0.348059 0.348014 0.347964 0.347909 0.347849 0.347783 
0.347713 0.347636 0.347554 0.347467 0.347374 0.347275 0.347171 0.347062 0.346948 
0.346829 0.346706 0.346579 0.346448 0.346315 0.34618 0.346044 0.345906 0.345769 
0.345632 0.345496 0.345362 0.34523 0.345101 0.344975 0.344853 0.344734 0.34462 
0.344511 0.344407 0.34431 0.34422 0.344139 0.344068 0.344009 0.343965 0.343937 
0.343928 0.343942 0.34398 0.344044 0.344135 0.344253 0.344399 0.34457 0.344765 
0.34498 0.345212 0.345454 0.345704 0.345955 0.346203 0.346445 0.346675 0.346892 
0.347093 0.347276 0.34744 0.347585 0.347709 0.347814 0.3479 0.347968 0.348018 
0.348053 0.348073 0.34808 0.348076 0.348063 0.348042 0.348016 0.347985 0.347952 
0.347919 0.347889 0.347861 0.347839 0.347823 0.347813 0.347811 0.347815 0.347826 
0.347843 0.347864 0.347889 0.347917 0.347947 0.347979 0.348012 0.348046 0.348082 
0.34812 0.348158 0.348199 0.34824 0.348284 0.348329 0.348374 0.348421 0.348468 
0.348516 0.348564 0.348611 0.348658 0.348705 0.348751 0.348797 0.348842 0.348888 
0.348933 0.348979 0.349026 0.349075 0.349125 0.349178 0.349234 0.349295 0.34936 
0.349431 0.349508 0.349593 0.349687 0.349792 0.349909 0.350039 0.350183 0.350345 
0.350525 0.350726 0.350948 0.351193 0.351462 0.351755 0.352075 0.352416 0.352849 
0.356276 0.356657 0.356973 0.357266 0.357536 0.357782 0.358007 0.35821 0.358395 
0.358562 0.358712 0.358849 0.358971 0.359082 0.359182 0.359273 0.359355 0.359429 
0.359497 0.359559 0.359615 0.359666 0.359713 0.359756 0.359796 0.359833 0.359867 
0.359899 0.359928 0.359955 0.35998 0.360004 0.360026 0.360047 0.360067 0.360085 
0.360103 0.360119 0.360135 0.360149 0.360163 0.360177 0.360189 0.360201 0.360213 
0.360224 0.360234 0.360244 0.360254 0.360263 0.360271 0.36028 0.360288 0.360295 
0.360302 0.360309 0.360316 0.360322 0.360328 0.360334 0.360339 0.360344 0.360349 
0.360353 0.360357 0.360361 0.360365 0.360368 0.360372 0.360375 0.360377 0.36038 
0.360382 0.360384 0.360385 0.360387 0.360388 0.360389 0.36039 0.36039 0.36039 
0.36039 0.36039 0.36039 0.360389 0.360388 0.360387 0.360386 0.360384 0.360382 
0.36038 0.360378 0.360376 0.360373 0.36037 0.360367 0.355635 0.34505 0.345146 
0.345241 0.345335 0.345429 0.345523 0.345618 0.345712 0.345807 0.345903 0.345999 
0.346095 0.346191 0.346288 0.346384 0.34648 0.346576 0.346671 0.346765 0.346858 
0.346949 0.347039 0.347127 0.347213 0.347297 0.347378 0.347456 0.347531 0.347604 
0.347673 0.347739 0.347801 0.34786 0.347914 0.347966 0.348013 0.348056 0.348096 
0.348132 0.348163 0.348191 0.348215 0.348235 0.348251 0.348263 0.348272 0.348276 
0.348277 0.348274 0.348267 0.348256 0.348241 0.348222 0.348199 0.348171 0.34814 
0.348104 0.348063 0.348018 0.347968 0.347912 0.347852 0.347787 0.347716 0.347639 
0.347557 0.347469 0.347376 0.347276 0.347172 0.347062 0.346947 0.346828 0.346704 
0.346576 0.346445 0.346312 0.346176 0.346038 0.3459 0.345762 0.345625 0.345488 
0.345354 0.345221 0.345092 0.344965 0.344842 0.344723 0.344608 0.344498 0.344394 
0.344295 0.344204 0.344122 0.34405 0.343989 0.343943 0.343914 0.343904 0.343917 
0.343954 0.344017 0.344108 0.344227 0.344373 0.344546 0.344743 0.344961 0.345195 
0.345441 0.345694 0.345949 0.346201 0.346446 0.34668 0.346899 0.347102 0.347288 
0.347453 0.347599 0.347724 0.34783 0.347916 0.347983 0.348032 0.348066 0.348085 
0.348091 0.348085 0.348071 0.348048 0.348019 0.347986 0.347952 0.347917 0.347884 
0.347856 0.347832 0.347816 0.347806 0.347804 0.347809 0.347821 0.347838 0.34786 
0.347886 0.347914 0.347945 0.347977 0.348011 0.348045 0.348081 0.348118 0.348157 
0.348197 0.348239 0.348282 0.348327 0.348373 0.34842 0.348468 0.348516 0.348564 
0.348611 0.348659 0.348705 0.348751 0.348797 0.348842 0.348887 0.348933 0.348978 
0.349025 0.349073 0.349123 0.349175 0.349231 0.34929 0.349354 0.349424 0.3495 
0.349584 0.349677 0.34978 0.349895 0.350023 0.350166 0.350326 0.350503 0.350702 
0.350921 0.351164 0.351431 0.351724 0.352042 0.352388 0.35281 0.356277 0.356662 
0.356981 0.357275 0.357546 0.357793 0.358018 0.358221 0.358406 0.358572 0.358722 
0.358858 0.35898 0.35909 0.359189 0.359279 0.359361 0.359435 0.359502 0.359563 
0.359619 0.35967 0.359716 0.359759 0.359799 0.359835 0.359869 0.3599 0.359929 
0.359957 0.359982 0.360005 0.360027 0.360048 0.360068 0.360086 0.360103 0.36012 
0.360135 0.36015 0.360164 0.360177 0.36019 0.360202 0.360213 0.360224 0.360234 
0.360244 0.360254 0.360263 0.360272 0.36028 0.360288 0.360295 0.360303 0.360309 
0.360316 0.360322 0.360328 0.360334 0.360339 0.360344 0.360349 0.360353 0.360358 
0.360361 0.360365 0.360369 0.360372 0.360375 0.360377 0.36038 0.360382 0.360384 
0.360385 0.360387 0.360388 0.360389 0.36039 0.36039 0.36039 0.36039 0.36039 
0.36039 0.360389 0.360388 0.360387 0.360386 0.360384 0.360382 0.36038 0.360378 
0.360376 0.360373 0.36037 0.360367 0.355635 0.345049 0.345144 0.345238 0.345332 
0.345426 0.345519 0.345613 0.345707 0.345802 0.345898 0.345994 0.34609 0.346187 
0.346283 0.34638 0.346477 0.346573 0.346668 0.346763 0.346856 0.346948 0.347039 
0.347128 0.347214 0.347298 0.34738 0.347459 0.347535 0.347608 0.347677 0.347744 
0.347806 0.347865 0.347921 0.347972 0.34802 0.348063 0.348103 0.348139 0.348171 
0.348199 0.348223 0.348243 0.348259 0.348271 0.348279 0.348284 0.348284 0.348281 
0.348274 0.348263 0.348248 0.348229 0.348206 0.348179 0.348147 0.348111 0.34807 
0.348025 0.347975 0.347919 0.347859 0.347793 0.347721 0.347645 0.347562 0.347473 
0.347379 0.347279 0.347174 0.347063 0.346947 0.346826 0.346701 0.346572 0.346439 
0.346304 0.346166 0.346028 0.345888 0.345749 0.34561 0.345472 0.345337 0.345203 
0.345072 0.344945 0.344821 0.344701 0.344585 0.344473 0.344367 0.344267 0.344174 
0.344089 0.344014 0.34395 0.343901 0.343869 0.343856 0.343866 0.343901 0.343963 
0.344053 0.344172 0.344321 0.344497 0.344698 0.344921 0.345162 0.345415 0.345676 
0.345938 0.346197 0.346448 0.346688 0.346913 0.347122 0.347311 0.34748 0.347628 
0.347755 0.347861 0.347947 0.348013 0.348062 0.348093 0.34811 0.348113 0.348104 
0.348085 0.348058 0.348026 0.347989 0.34795 0.347912 0.347876 0.347844 0.347819 
0.347801 0.347791 0.34779 0.347796 0.34781 0.347829 0.347853 0.34788 0.34791 
0.347942 0.347974 0.348008 0.348042 0.348078 0.348115 0.348154 0.348194 0.348236 
0.348279 0.348325 0.348371 0.348419 0.348467 0.348516 0.348564 0.348612 0.348659 
0.348706 0.348752 0.348798 0.348842 0.348887 0.348931 0.348976 0.349022 0.349069 
0.349118 0.349169 0.349223 0.349281 0.349343 0.349411 0.349485 0.349567 0.349657 
0.349757 0.349868 0.349992 0.350131 0.350287 0.35046 0.350654 0.350869 0.351108 
0.351371 0.35166 0.351976 0.352322 0.352743 0.35628 0.356671 0.356995 0.357293 
0.357566 0.357815 0.35804 0.358244 0.358427 0.358593 0.358742 0.358876 0.358997 
0.359106 0.359204 0.359292 0.359373 0.359445 0.359511 0.359572 0.359627 0.359677 
0.359723 0.359765 0.359804 0.35984 0.359873 0.359904 0.359933 0.35996 0.359984 
0.360008 0.36003 0.36005 0.360069 0.360088 0.360105 0.360121 0.360136 0.360151 
0.360165 0.360178 0.36019 0.360202 0.360214 0.360225 0.360235 0.360245 0.360254 
0.360263 0.360272 0.36028 0.360288 0.360296 0.360303 0.36031 0.360316 0.360322 
0.360328 0.360334 0.360339 0.360344 0.360349 0.360353 0.360358 0.360362 0.360365 
0.360369 0.360372 0.360375 0.360377 0.36038 0.360382 0.360384 0.360385 0.360387 
0.360388 0.360389 0.36039 0.36039 0.36039 0.36039 0.36039 0.36039 0.360389 
0.360388 0.360387 0.360386 0.360384 0.360382 0.36038 0.360378 0.360376 0.360373 
0.36037 0.360367 0.355635 0.345048 0.345142 0.345235 0.345327 0.34542 0.345513 
0.345606 0.3457 0.345795 0.34589 0.345986 0.346083 0.346179 0.346277 0.346374 
0.346471 0.346568 0.346664 0.34676 0.346854 0.346947 0.347038 0.347128 0.347215 
0.3473 0.347383 0.347463 0.34754 0.347614 0.347684 0.347751 0.347814 0.347874 
0.34793 0.347982 0.34803 0.348074 0.348114 0.34815 0.348182 0.34821 0.348234 
0.348254 0.34827 0.348282 0.34829 0.348295 0.348295 0.348292 0.348285 0.348274 
0.348259 0.34824 0.348217 0.348189 0.348158 0.348122 0.348081 0.348035 0.347985 
0.347929 0.347869 0.347802 0.34773 0.347653 0.347569 0.34748 0.347385 0.347283 
0.347176 0.347064 0.346946 0.346823 0.346696 0.346565 0.34643 0.346292 0.346153 
0.346012 0.34587 0.345729 0.345588 0.345448 0.345311 0.345176 0.345044 0.344915 
0.344789 0.344667 0.344549 0.344436 0.344327 0.344224 0.344128 0.344039 0.34396 
0.343892 0.343837 0.3438 0.343782 0.343788 0.343819 0.343879 0.343969 0.344089 
0.34424 0.34442 0.344628 0.34486 0.345111 0.345375 0.345646 0.34592 0.34619 
0.346452 0.346701 0.346935 0.347151 0.347346 0.34752 0.347672 0.347801 0.347908 
0.347994 0.348059 0.348105 0.348134 0.348147 0.348145 0.348132 0.348107 0.348075 
0.348035 0.347992 0.347947 0.347903 0.347862 0.347826 0.347798 0.347778 0.347768 
0.347768 0.347776 0.347793 0.347815 0.347842 0.347872 0.347904 0.347937 0.34797 
0.348004 0.348039 0.348074 0.34811 0.348149 0.348189 0.348231 0.348275 0.348321 
0.348368 0.348417 0.348466 0.348515 0.348564 0.348613 0.348661 0.348707 0.348753 
0.348798 0.348843 0.348886 0.34893 0.348974 0.349018 0.349063 0.34911 0.34916 
0.349212 0.349267 0.349327 0.349392 0.349463 0.34954 0.349626 0.349722 0.349828 
0.349947 0.35008 0.350229 0.350395 0.350582 0.35079 0.351022 0.35128 0.351564 
0.351876 0.352221 0.352642 0.356283 0.356687 0.357018 0.357322 0.357598 0.357849 
0.358075 0.358278 0.35846 0.358624 0.358771 0.358903 0.359022 0.359129 0.359225 
0.359312 0.35939 0.359461 0.359526 0.359585 0.359638 0.359687 0.359732 0.359774 
0.359812 0.359847 0.35988 0.35991 0.359938 0.359964 0.359989 0.360011 0.360033 
0.360053 0.360072 0.36009 0.360107 0.360123 0.360138 0.360153 0.360166 0.360179 
0.360192 0.360203 0.360215 0.360225 0.360236 0.360246 0.360255 0.360264 0.360272 
0.360281 0.360288 0.360296 0.360303 0.36031 0.360316 0.360323 0.360328 0.360334 
0.360339 0.360344 0.360349 0.360354 0.360358 0.360362 0.360365 0.360369 0.360372 
0.360375 0.360377 0.36038 0.360382 0.360384 0.360385 0.360387 0.360388 0.360389 
0.36039 0.36039 0.36039 0.36039 0.36039 0.36039 0.360389 0.360388 0.360387 
0.360386 0.360384 0.360382 0.36038 0.360378 0.360376 0.360373 0.36037 0.360367 
0.355635 0.345047 0.345139 0.34523 0.345321 0.345412 0.345504 0.345596 0.34569 
0.345784 0.34588 0.345976 0.346073 0.34617 0.346268 0.346366 0.346464 0.346562 
0.346659 0.346755 0.346851 0.346945 0.347037 0.347128 0.347217 0.347304 0.347387 
0.347468 0.347547 0.347621 0.347693 0.347761 0.347825 0.347886 0.347942 0.347995 
0.348043 0.348088 0.348128 0.348164 0.348196 0.348224 0.348249 0.348269 0.348285 
0.348297 0.348305 0.348309 0.34831 0.348307 0.348299 0.348288 0.348273 0.348254 
0.348231 0.348204 0.348172 0.348136 0.348095 0.348049 0.347999 0.347943 0.347882 
0.347815 0.347742 0.347664 0.347579 0.347489 0.347392 0.347289 0.34718 0.347065 
0.346945 0.34682 0.346689 0.346555 0.346417 0.346277 0.346134 0.34599 0.345845 
0.345701 0.345558 0.345416 0.345277 0.34514 0.345006 0.344875 0.344747 0.344623 
0.344503 0.344387 0.344275 0.344168 0.344067 0.343973 0.343887 0.343812 0.343751 
0.343707 0.343682 0.343681 0.343708 0.343765 0.343853 0.343974 0.344128 0.344315 
0.344532 0.344776 0.34504 0.345319 0.345606 0.345895 0.34618 0.346456 0.346719 
0.346964 0.34719 0.347393 0.347574 0.347731 0.347863 0.347972 0.348057 0.348121 
0.348164 0.348189 0.348197 0.348189 0.348169 0.348137 0.348096 0.348048 0.347996 
0.347943 0.34789 0.347842 0.3478 0.347767 0.347746 0.347736 0.347737 0.347749 
0.34777 0.347797 0.347828 0.347862 0.347897 0.347932 0.347966 0.348 0.348034 
0.348068 0.348104 0.348142 0.348181 0.348224 0.348269 0.348316 0.348364 0.348414 
0.348465 0.348515 0.348565 0.348614 0.348663 0.34871 0.348755 0.3488 0.348843 
0.348886 0.348928 0.34897 0.349013 0.349056 0.349101 0.349148 0.349197 0.349249 
0.349306 0.349367 0.349433 0.349506 0.349587 0.349676 0.349776 0.349887 0.350012 
0.350152 0.350309 0.350486 0.350685 0.350907 0.351156 0.351433 0.35174 0.352083 
0.352504 0.35629 0.356709 0.357051 0.357362 0.357643 0.357895 0.358122 0.358324 
0.358505 0.358666 0.35881 0.35894 0.359056 0.359159 0.359253 0.359337 0.359413 
0.359482 0.359545 0.359602 0.359654 0.359701 0.359745 0.359785 0.359822 0.359856 
0.359888 0.359917 0.359945 0.35997 0.359994 0.360016 0.360037 0.360057 0.360076 
0.360093 0.36011 0.360126 0.36014 0.360155 0.360168 0.360181 0.360193 0.360205 
0.360216 0.360227 0.360237 0.360246 0.360256 0.360265 0.360273 0.360281 0.360289 
0.360296 0.360304 0.36031 0.360317 0.360323 0.360329 0.360334 0.36034 0.360345 
0.360349 0.360354 0.360358 0.360362 0.360365 0.360369 0.360372 0.360375 0.360377 
0.36038 0.360382 0.360384 0.360385 0.360387 0.360388 0.360389 0.36039 0.36039 
0.36039 0.36039 0.36039 0.36039 0.360389 0.360388 0.360387 0.360386 0.360384 
0.360382 0.36038 0.360378 0.360376 0.360373 0.36037 0.360367 0.355635 0.345046 
0.345135 0.345223 0.345312 0.345402 0.345493 0.345585 0.345678 0.345772 0.345867 
0.345963 0.34606 0.346158 0.346257 0.346356 0.346455 0.346553 0.346652 0.34675 
0.346847 0.346942 0.347036 0.347129 0.347219 0.347307 0.347393 0.347475 0.347555 
0.347631 0.347704 0.347773 0.347839 0.3479 0.347957 0.348011 0.34806 0.348105 
0.348146 0.348182 0.348215 0.348243 0.348267 0.348287 0.348303 0.348315 0.348323 
0.348327 0.348328 0.348325 0.348317 0.348306 0.348291 0.348272 0.348249 0.348222 
0.34819 0.348154 0.348113 0.348067 0.348016 0.34796 0.347898 0.347831 0.347757 
0.347678 0.347592 0.3475 0.347401 0.347296 0.347185 0.347067 0.346944 0.346815 
0.346681 0.346543 0.346401 0.346257 0.34611 0.345962 0.345814 0.345667 0.34552 
0.345376 0.345234 0.345094 0.344958 0.344825 0.344695 0.344569 0.344446 0.344326 
0.34421 0.344098 0.343991 0.34389 0.343796 0.343713 0.343642 0.343588 0.343554 
0.343544 0.343564 0.343616 0.343703 0.343825 0.343982 0.344177 0.344407 0.344667 
0.34495 0.345248 0.345556 0.345864 0.346168 0.346462 0.346741 0.347001 0.347239 
0.347454 0.347643 0.347805 0.347941 0.348052 0.348137 0.348199 0.348239 0.348258 
0.348259 0.348244 0.348215 0.348174 0.348123 0.348064 0.348001 0.347935 0.347872 
0.347814 0.347764 0.347726 0.347701 0.347692 0.347696 0.347713 0.347741 0.347775 
0.347812 0.347852 0.34789 0.347927 0.347962 0.347995 0.348028 0.348061 0.348096 
0.348132 0.348172 0.348215 0.34826 0.348309 0.348359 0.348411 0.348463 0.348515 
0.348567 0.348617 0.348666 0.348713 0.348758 0.348802 0.348845 0.348886 0.348927 
0.348967 0.349007 0.349048 0.34909 0.349133 0.349179 0.349228 0.34928 0.349336 
0.349398 0.349465 0.349539 0.349621 0.349712 0.349814 0.349928 0.350057 0.350202 
0.350366 0.350552 0.350762 0.350999 0.351265 0.351564 0.351902 0.352323 0.356301 
0.35674 0.357095 0.357415 0.357701 0.357956 0.358182 0.358383 0.358561 0.358719 
0.35886 0.358985 0.359097 0.359198 0.359288 0.359369 0.359442 0.359508 0.359568 
0.359623 0.359673 0.359718 0.35976 0.359799 0.359834 0.359867 0.359898 0.359926 
0.359953 0.359978 0.360001 0.360022 0.360043 0.360062 0.36008 0.360097 0.360113 
0.360129 0.360143 0.360157 0.36017 0.360183 0.360195 0.360206 0.360217 0.360228 
0.360238 0.360248 0.360257 0.360265 0.360274 0.360282 0.36029 0.360297 0.360304 
0.360311 0.360317 0.360323 0.360329 0.360335 0.36034 0.360345 0.360349 0.360354 
0.360358 0.360362 0.360366 0.360369 0.360372 0.360375 0.360377 0.36038 0.360382 
0.360384 0.360385 0.360387 0.360388 0.360389 0.36039 0.36039 0.36039 0.36039 
0.36039 0.36039 0.360389 0.360388 0.360387 0.360386 0.360384 0.360382 0.36038 
0.360378 0.360376 0.360373 0.36037 0.360367 0.355635 0.345044 0.34513 0.345216 
0.345303 0.345391 0.34548 0.34557 0.345663 0.345756 0.345851 0.345948 0.346045 
0.346144 0.346243 0.346343 0.346443 0.346544 0.346644 0.346743 0.346842 0.346939 
0.347035 0.347129 0.347222 0.347312 0.347399 0.347484 0.347565 0.347643 0.347717 
0.347788 0.347855 0.347917 0.347976 0.34803 0.34808 0.348126 0.348167 0.348204 
0.348237 0.348265 0.348289 0.348309 0.348325 0.348337 0.348345 0.348349 0.348349 
0.348346 0.348339 0.348328 0.348312 0.348293 0.34827 0.348243 0.348211 0.348175 
0.348134 0.348088 0.348037 0.34798 0.347918 0.34785 0.347776 0.347695 0.347608 
0.347513 0.347413 0.347305 0.34719 0.34707 0.346942 0.346809 0.346671 0.346528 
0.346382 0.346232 0.346081 0.345929 0.345776 0.345625 0.345475 0.345327 0.345182 
0.34504 0.344901 0.344766 0.344633 0.344504 0.344378 0.344254 0.344134 0.344016 
0.343901 0.343791 0.343687 0.343592 0.343509 0.343442 0.343395 0.343375 0.343385 
0.343432 0.343516 0.34364 0.343803 0.34401 0.344258 0.344539 0.344846 0.345169 
0.3455 0.345832 0.346159 0.346473 0.346771 0.347048 0.347301 0.347527 0.347726 
0.347895 0.348036 0.348149 0.348234 0.348293 0.348328 0.348341 0.348335 0.34831 
0.348271 0.348218 0.348155 0.348082 0.348005 0.347925 0.347847 0.347776 0.347715 
0.34767 0.347642 0.347634 0.347643 0.347668 0.347705 0.347749 0.347795 0.347841 
0.347885 0.347924 0.347959 0.347991 0.348022 0.348053 0.348085 0.34812 0.348159 
0.348202 0.348249 0.3483 0.348352 0.348407 0.348462 0.348516 0.348569 0.348621 
0.34867 0.348718 0.348763 0.348806 0.348847 0.348887 0.348925 0.348963 0.349 
0.349038 0.349077 0.349117 0.349159 0.349203 0.349251 0.349302 0.349357 0.349417 
0.349483 0.349556 0.349637 0.349728 0.34983 0.349945 0.350075 0.350224 0.350393 
0.350587 0.350807 0.351059 0.351345 0.351674 0.352092 0.356318 0.356783 0.357154 
0.357484 0.357775 0.358032 0.358257 0.358455 0.358629 0.358783 0.358919 0.35904 
0.359147 0.359243 0.359329 0.359406 0.359475 0.359538 0.359595 0.359647 0.359695 
0.359738 0.359778 0.359815 0.359849 0.359881 0.35991 0.359937 0.359962 0.359986 
0.360008 0.360029 0.360049 0.360068 0.360085 0.360102 0.360117 0.360132 0.360147 
0.36016 0.360173 0.360185 0.360197 0.360208 0.360219 0.360229 0.360239 0.360249 
0.360258 0.360267 0.360275 0.360283 0.36029 0.360298 0.360305 0.360311 0.360318 
0.360324 0.360329 0.360335 0.36034 0.360345 0.36035 0.360354 0.360358 0.360362 
0.360366 0.360369 0.360372 0.360375 0.360378 0.36038 0.360382 0.360384 0.360386 
0.360387 0.360388 0.360389 0.36039 0.36039 0.36039 0.36039 0.36039 0.36039 
0.360389 0.360388 0.360387 0.360386 0.360384 0.360382 0.36038 0.360378 0.360376 
0.360373 0.36037 0.360367 0.355635 0.345042 0.345124 0.345207 0.345291 0.345377 
0.345465 0.345554 0.345645 0.345739 0.345833 0.34593 0.346028 0.346127 0.346228 
0.346329 0.34643 0.346532 0.346634 0.346735 0.346836 0.346935 0.347034 0.34713 
0.347225 0.347317 0.347407 0.347493 0.347577 0.347657 0.347733 0.347805 0.347874 
0.347938 0.347998 0.348053 0.348104 0.34815 0.348192 0.348229 0.348262 0.348291 
0.348315 0.348335 0.348351 0.348362 0.34837 0.348374 0.348374 0.348371 0.348363 
0.348352 0.348337 0.348318 0.348295 0.348267 0.348236 0.348199 0.348158 0.348112 
0.348061 0.348004 0.347941 0.347872 0.347797 0.347715 0.347626 0.347529 0.347426 
0.347315 0.347197 0.347072 0.346941 0.346803 0.346659 0.346511 0.346359 0.346204 
0.346047 0.345889 0.345731 0.345575 0.345421 0.345269 0.345121 0.344976 0.344835 
0.344697 0.344562 0.34443 0.344301 0.344173 0.344046 0.343921 0.343798 0.343677 
0.343561 0.343451 0.343353 0.343269 0.343207 0.343172 0.343172 0.343213 0.343297 
0.343427 0.343602 0.34383 0.344104 0.344412 0.344746 0.345096 0.345453 0.34581 
0.34616 0.346497 0.346814 0.347109 0.347377 0.347616 0.347824 0.348002 0.348147 
0.348262 0.348347 0.348403 0.348432 0.348438 0.348422 0.348387 0.348335 0.34827 
0.348192 0.348103 0.348008 0.347909 0.347813 0.347725 0.347651 0.347596 0.347565 
0.347558 0.347576 0.347612 0.347663 0.34772 0.347779 0.347834 0.347883 0.347925 