# vtk DataFile Version 5.1
vtk output
ASCII
DATASET UNSTRUCTURED_GRID
POINTS 9610 double
0.1016 1.5 0 0.1016 1.45 0 0.1016 1.4 0 
0.1016 1.35 0 0.1016 1.3 0 0.1016 1.25 0 
0.1016 1.2 0 0.1016 1.15 0 0.1016 1.1 0 
0.1016 1.05 0 0.1016 1 0 0.1016 0.95 0 
0.1016 0.9 0 0.1016 0.85 0 0.1016 0.8 0 
0.1016 0.75 0 0.1016 0.7 0 0.1016 0.65 0 
0.1016 0.6 0 0.1016 0.55 0 0.1016 0.5 0 
0.1016 0.45 0 0.1016 0.4 0 0.1016 0.35 0 
0.1016 0.3 0 0.1016 0.25 0 0.1016 0.2 0 
0.1016 0.15 0 0.1016 0.1 0 0.1016 0.05 0 
0.1016 0 0 5.08 1.5 0 5.08 1.45 0 
5.08 1.4 0 5.08 1.35 0 5.08 1.3 0 
5.08 1.25 0 5.08 1.2 0 5.08 1.15 0 
5.08 1.1 0 5.08 1.05 0 5.08 1 0 
5.08 0.95 0 5.08 0.9 0 5.08 0.85 0 
5.08 0.8 0 5.08 0.75 0 5.08 0.7 0 
5.08 0.65 0 5.08 0.6 0 5.08 0.55 0 
5.08 0.5 0 5.08 0.45 0 5.08 0.4 0 
5.08 0.35 0 5.08 0.3 0 5.08 0.25 0 
5.08 0.2 0 5.08 0.15 0 5.08 0.1 0 
5.08 0.05 0 5.08 0 0 0.151384 1.5 0 
0.151384 1.45 0 0.151384 1.4 0 0.151384 1.35 0 
0.151384 1.3 0 0.151384 1.25 0 0.151384 1.2 0 
0.151384 1.15 0 0.151384 1.1 0 0.151384 1.05 0 
0.151384 1 0 0.151384 0.95 0 0.151384 0.9 0 
0.151384 0.85 0 0.151384 0.8 0 0.151384 0.75 0 
0.151384 0.7 0 0.151384 0.65 0 0.151384 0.6 0 
0.151384 0.55 0 0.151384 0.5 0 0.151384 0.45 0 
0.151384 0.4 0 0.151384 0.35 0 0.151384 0.3 0 
0.151384 0.25 0 0.151384 0.2 0 0.151384 0.15 0 
0.151384 0.1 0 0.151384 0.05 0 0.151384 0 0 
0.201168 1.5 0 0.201168 1.45 0 0.201168 1.4 0 
0.201168 1.35 0 0.201168 1.3 0 0.201168 1.25 0 
0.201168 1.2 0 0.201168 1.15 0 0.201168 1.1 0 
0.201168 1.05 0 0.201168 1 0 0.201168 0.95 0 
0.201168 0.9 0 0.201168 0.85 0 0.201168 0.8 0 
0.201168 0.75 0 0.201168 0.7 0 0.201168 0.65 0 
0.201168 0.6 0 0.201168 0.55 0 0.201168 0.5 0 
0.201168 0.45 0 0.201168 0.4 0 0.201168 0.35 0 
0.201168 0.3 0 0.201168 0.25 0 0.201168 0.2 0 
0.201168 0.15 0 0.201168 0.1 0 0.201168 0.05 0 
0.201168 0 0 0.250952 1.5 0 0.250952 1.45 0 
0.250952 1.4 0 0.250952 1.35 0 0.250952 1.3 0 
0.250952 1.25 0 0.250952 1.2 0 0.250952 1.15 0 
0.250952 1.1 0 0.250952 1.05 0 0.250952 1 0 
0.250952 0.95 0 0.250952 0.9 0 0.250952 0.85 0 
0.250952 0.8 0 0.250952 0.75 0 0.250952 0.7 0 
0.250952 0.65 0 0.250952 0.6 0 0.250952 0.55 0 
0.250952 0.5 0 0.250952 0.45 0 0.250952 0.4 0 
0.250952 0.35 0 0.250952 0.3 0 0.250952 0.25 0 
0.250952 0.2 0 0.250952 0.15 0 0.250952 0.1 0 
0.250952 0.05 0 0.250952 0 0 0.300736 1.5 0 
0.300736 1.45 0 0.300736 1.4 0 0.300736 1.35 0 
0.300736 1.3 0 0.300736 1.25 0 0.300736 1.2 0 
0.300736 1.15 0 0.300736 1.1 0 0.300736 1.05 0 
0.300736 1 0 0.300736 0.95 0 0.300736 0.9 0 
0.300736 0.85 0 0.300736 0.8 0 0.300736 0.75 0 
0.300736 0.7 0 0.300736 0.65 0 0.300736 0.6 0 
0.300736 0.55 0 0.300736 0.5 0 0.300736 0.45 0 
0.300736 0.4 0 0.300736 0.35 0 0.300736 0.3 0 
0.300736 0.25 0 0.300736 0.2 0 0.300736 0.15 0 
0.300736 0.1 0 0.300736 0.05 0 0.300736 0 0 
0.35052 1.5 0 0.35052 1.45 0 0.35052 1.4 0 
0.35052 1.35 0 0.35052 1.3 0 0.35052 1.25 0 
0.35052 1.2 0 0.35052 1.15 0 0.35052 1.1 0 
0.35052 1.05 0 0.35052 1 0 0.35052 0.95 0 
0.35052 0.9 0 0.35052 0.85 0 0.35052 0.8 0 
0.35052 0.75 0 0.35052 0.7 0 0.35052 0.65 0 
0.35052 0.6 0 0.35052 0.55 0 0.35052 0.5 0 
0.35052 0.45 0 0.35052 0.4 0 0.35052 0.35 0 
0.35052 0.3 0 0.35052 0.25 0 0.35052 0.2 0 
0.35052 0.15 0 0.35052 0.1 0 0.35052 0.05 0 
0.35052 0 0 0.400304 1.5 0 0.400304 1.45 0 
0.400304 1.4 0 0.400304 1.35 0 0.400304 1.3 0 
0.400304 1.25 0 0.400304 1.2 0 0.400304 1.15 0 
0.400304 1.1 0 0.400304 1.05 0 0.400304 1 0 
0.400304 0.95 0 0.400304 0.9 0 0.400304 0.85 0 
0.400304 0.8 0 0.400304 0.75 0 0.400304 0.7 0 
0.400304 0.65 0 0.400304 0.6 0 0.400304 0.55 0 
0.400304 0.5 0 0.400304 0.45 0 0.400304 0.4 0 
0.400304 0.35 0 0.400304 0.3 0 0.400304 0.25 0 
0.400304 0.2 0 0.400304 0.15 0 0.400304 0.1 0 
0.400304 0.05 0 0.400304 0 0 0.450088 1.5 0 
0.450088 1.45 0 0.450088 1.4 0 0.450088 1.35 0 
0.450088 1.3 0 0.450088 1.25 0 0.450088 1.2 0 
0.450088 1.15 0 0.450088 1.1 0 0.450088 1.05 0 
0.450088 1 0 0.450088 0.95 0 0.450088 0.9 0 
0.450088 0.85 0 0.450088 0.8 0 0.450088 0.75 0 
0.450088 0.7 0 0.450088 0.65 0 0.450088 0.6 0 
0.450088 0.55 0 0.450088 0.5 0 0.450088 0.45 0 
0.450088 0.4 0 0.450088 0.35 0 0.450088 0.3 0 
0.450088 0.25 0 0.450088 0.2 0 0.450088 0.15 0 
0.450088 0.1 0 0.450088 0.05 0 0.450088 0 0 
0.499872 1.5 0 0.499872 1.45 0 0.499872 1.4 0 
0.499872 1.35 0 0.499872 1.3 0 0.499872 1.25 0 
0.499872 1.2 0 0.499872 1.15 0 0.499872 1.1 0 
0.499872 1.05 0 0.499872 1 0 0.499872 0.95 0 
0.499872 0.9 0 0.499872 0.85 0 0.499872 0.8 0 
0.499872 0.75 0 0.499872 0.7 0 0.499872 0.65 0 
0.499872 0.6 0 0.499872 0.55 0 0.499872 0.5 0 
0.499872 0.45 0 0.499872 0.4 0 0.499872 0.35 0 
0.499872 0.3 0 0.499872 0.25 0 0.499872 0.2 0 
0.499872 0.15 0 0.499872 0.1 0 0.499872 0.05 0 
0.499872 0 0 0.549656 1.5 0 0.549656 1.45 0 
0.549656 1.4 0 0.549656 1.35 0 0.549656 1.3 0 
0.549656 1.25 0 0.549656 1.2 0 0.549656 1.15 0 
0.549656 1.1 0 0.549656 1.05 0 0.549656 1 0 
0.549656 0.95 0 0.549656 0.9 0 0.549656 0.85 0 
0.549656 0.8 0 0.549656 0.75 0 0.549656 0.7 0 
0.549656 0.65 0 0.549656 0.6 0 0.549656 0.55 0 
0.549656 0.5 0 0.549656 0.45 0 0.549656 0.4 0 
0.549656 0.35 0 0.549656 0.3 0 0.549656 0.25 0 
0.549656 0.2 0 0.549656 0.15 0 0.549656 0.1 0 
0.549656 0.05 0 0.549656 0 0 0.59944 1.5 0 
0.59944 1.45 0 0.59944 1.4 0 0.59944 1.35 0 
0.59944 1.3 0 0.59944 1.25 0 0.59944 1.2 0 
0.59944 1.15 0 0.59944 1.1 0 0.59944 1.05 0 
0.59944 1 0 0.59944 0.95 0 0.59944 0.9 0 
0.59944 0.85 0 0.59944 0.8 0 0.59944 0.75 0 
0.59944 0.7 0 0.59944 0.65 0 0.59944 0.6 0 
0.59944 0.55 0 0.59944 0.5 0 0.59944 0.45 0 
0.59944 0.4 0 0.59944 0.35 0 0.59944 0.3 0 
0.59944 0.25 0 0.59944 0.2 0 0.59944 0.15 0 
0.59944 0.1 0 0.59944 0.05 0 0.59944 0 0 
0.649224 1.5 0 0.649224 1.45 0 0.649224 1.4 0 
0.649224 1.35 0 0.649224 1.3 0 0.649224 1.25 0 
0.649224 1.2 0 0.649224 1.15 0 0.649224 1.1 0 
0.649224 1.05 0 0.649224 1 0 0.649224 0.95 0 
0.649224 0.9 0 0.649224 0.85 0 0.649224 0.8 0 
0.649224 0.75 0 0.649224 0.7 0 0.649224 0.65 0 
0.649224 0.6 0 0.649224 0.55 0 0.649224 0.5 0 
0.649224 0.45 0 0.649224 0.4 0 0.649224 0.35 0 
0.649224 0.3 0 0.649224 0.25 0 0.649224 0.2 0 
0.649224 0.15 0 0.649224 0.1 0 0.649224 0.05 0 
0.649224 0 0 0.699008 1.5 0 0.699008 1.45 0 
0.699008 1.4 0 0.699008 1.35 0 0.699008 1.3 0 
0.699008 1.25 0 0.699008 1.2 0 0.699008 1.15 0 
0.699008 1.1 0 0.699008 1.05 0 0.699008 1 0 
0.699008 0.95 0 0.699008 0.9 0 0.699008 0.85 0 
0.699008 0.8 0 0.699008 0.75 0 0.699008 0.7 0 
0.699008 0.65 0 0.699008 0.6 0 0.699008 0.55 0 
0.699008 0.5 0 0.699008 0.45 0 0.699008 0.4 0 
0.699008 0.35 0 0.699008 0.3 0 0.699008 0.25 0 
0.699008 0.2 0 0.699008 0.15 0 0.699008 0.1 0 
0.699008 0.05 0 0.699008 0 0 0.748792 1.5 0 
0.748792 1.45 0 0.748792 1.4 0 0.748792 1.35 0 
0.748792 1.3 0 0.748792 1.25 0 0.748792 1.2 0 
0.748792 1.15 0 0.748792 1.1 0 0.748792 1.05 0 
0.748792 1 0 0.748792 0.95 0 0.748792 0.9 0 
0.748792 0.85 0 0.748792 0.8 0 0.748792 0.75 0 
0.748792 0.7 0 0.748792 0.65 0 0.748792 0.6 0 
0.748792 0.55 0 0.748792 0.5 0 0.748792 0.45 0 
0.748792 0.4 0 0.748792 0.35 0 0.748792 0.3 0 
0.748792 0.25 0 0.748792 0.2 0 0.748792 0.15 0 
0.748792 0.1 0 0.748792 0.05 0 0.748792 0 0 
0.798576 1.5 0 0.798576 1.45 0 0.798576 1.4 0 
0.798576 1.35 0 0.798576 1.3 0 0.798576 1.25 0 
0.798576 1.2 0 0.798576 1.15 0 0.798576 1.1 0 
0.798576 1.05 0 0.798576 1 0 0.798576 0.95 0 
0.798576 0.9 0 0.798576 0.85 0 0.798576 0.8 0 
0.798576 0.75 0 0.798576 0.7 0 0.798576 0.65 0 
0.798576 0.6 0 0.798576 0.55 0 0.798576 0.5 0 
0.798576 0.45 0 0.798576 0.4 0 0.798576 0.35 0 
0.798576 0.3 0 0.798576 0.25 0 0.798576 0.2 0 
0.798576 0.15 0 0.798576 0.1 0 0.798576 0.05 0 
0.798576 0 0 0.84836 1.5 0 0.84836 1.45 0 
0.84836 1.4 0 0.84836 1.35 0 0.84836 1.3 0 
0.84836 1.25 0 0.84836 1.2 0 0.84836 1.15 0 
0.84836 1.1 0 0.84836 1.05 0 0.84836 1 0 
0.84836 0.95 0 0.84836 0.9 0 0.84836 0.85 0 
0.84836 0.8 0 0.84836 0.75 0 0.84836 0.7 0 
0.84836 0.65 0 0.84836 0.6 0 0.84836 0.55 0 
0.84836 0.5 0 0.84836 0.45 0 0.84836 0.4 0 
0.84836 0.35 0 0.84836 0.3 0 0.84836 0.25 0 
0.84836 0.2 0 0.84836 0.15 0 0.84836 0.1 0 
0.84836 0.05 0 0.84836 0 0 0.898144 1.5 0 
0.898144 1.45 0 0.898144 1.4 0 0.898144 1.35 0 
0.898144 1.3 0 0.898144 1.25 0 0.898144 1.2 0 
0.898144 1.15 0 0.898144 1.1 0 0.898144 1.05 0 
0.898144 1 0 0.898144 0.95 0 0.898144 0.9 0 
0.898144 0.85 0 0.898144 0.8 0 0.898144 0.75 0 
0.898144 0.7 0 0.898144 0.65 0 0.898144 0.6 0 
0.898144 0.55 0 0.898144 0.5 0 0.898144 0.45 0 
0.898144 0.4 0 0.898144 0.35 0 0.898144 0.3 0 
0.898144 0.25 0 0.898144 0.2 0 0.898144 0.15 0 
0.898144 0.1 0 0.898144 0.05 0 0.898144 0 0 
0.947928 1.5 0 0.947928 1.45 0 0.947928 1.4 0 
0.947928 1.35 0 0.947928 1.3 0 0.947928 1.25 0 
0.947928 1.2 0 0.947928 1.15 0 0.947928 1.1 0 
0.947928 1.05 0 0.947928 1 0 0.947928 0.95 0 
0.947928 0.9 0 0.947928 0.85 0 0.947928 0.8 0 
0.947928 0.75 0 0.947928 0.7 0 0.947928 0.65 0 
0.947928 0.6 0 0.947928 0.55 0 0.947928 0.5 0 
0.947928 0.45 0 0.947928 0.4 0 0.947928 0.35 0 
0.947928 0.3 0 0.947928 0.25 0 0.947928 0.2 0 
0.947928 0.15 0 0.947928 0.1 0 0.947928 0.05 0 
0.947928 0 0 0.997712 1.5 0 0.997712 1.45 0 
0.997712 1.4 0 0.997712 1.35 0 0.997712 1.3 0 
0.997712 1.25 0 0.997712 1.2 0 0.997712 1.15 0 
0.997712 1.1 0 0.997712 1.05 0 0.997712 1 0 
0.997712 0.95 0 0.997712 0.9 0 0.997712 0.85 0 
0.997712 0.8 0 0.997712 0.75 0 0.997712 0.7 0 
0.997712 0.65 0 0.997712 0.6 0 0.997712 0.55 0 
0.997712 0.5 0 0.997712 0.45 0 0.997712 0.4 0 
0.997712 0.35 0 0.997712 0.3 0 0.997712 0.25 0 
0.997712 0.2 0 0.997712 0.15 0 0.997712 0.1 0 
0.997712 0.05 0 0.997712 0 0 1.047496 1.5 0 
1.047496 1.45 0 1.047496 1.4 0 1.047496 1.35 0 
1.047496 1.3 0 1.047496 1.25 0 1.047496 1.2 0 
1.047496 1.15 0 1.047496 1.1 0 1.047496 1.05 0 
1.047496 1 0 1.047496 0.95 0 1.047496 0.9 0 
1.047496 0.85 0 1.047496 0.8 0 1.047496 0.75 0 
1.047496 0.7 0 1.047496 0.65 0 1.047496 0.6 0 
1.047496 0.55 0 1.047496 0.5 0 1.047496 0.45 0 
1.047496 0.4 0 1.047496 0.35 0 1.047496 0.3 0 
1.047496 0.25 0 1.047496 0.2 0 1.047496 0.15 0 
[...]
CELL_DATA 9270
FIELD FieldData 7
B_Stress_n_p_m2 1 9270 float
0.668358 0.73915 0.750555 0.754654 0.759083 0.764705 0.771846 0.780731 0.79167 
0.804994 0.820745 0.836573 0.84968 0.86775 0.847389 0.58725 0.354067 0.2432 
0.181783 0.142521 0.116252 0.0979498 0.0849414 0.0756746 0.0691812 0.0647696 0.0617181 
0.0588699 0.0538361 0.0488852 0.623947 0.693292 0.70361 0.70588 0.707687 0.709711 
0.712055 0.714519 0.716867 0.718596 0.718555 0.714112 0.702906 0.680595 0.612775 
0.463495 0.336451 0.248769 0.188425 0.145636 0.114649 0.0918472 0.0749309 0.0623721 
0.0530662 0.046072 0.0402528 0.0342169 0.0237114 0.0123125 0.585541 0.653745 0.663274 
0.664163 0.663968 0.66332 0.662191 0.660195 0.656871 0.651429 0.642554 0.628237 
0.606496 0.572109 0.508926 0.414013 0.327424 0.259616 0.207954 0.16889 0.139357 
0.116978 0.0999889 0.0870476 0.0770232 0.068791 0.060935 0.0515282 0.0384247 0.0188159 
0.548949 0.616184 0.625075 0.624807 0.622944 0.620122 0.616245 0.610854 0.603419 
0.593105 0.578725 0.558705 0.531221 0.492764 0.43819 0.371553 0.30835 0.254808 
0.211401 0.176975 0.149979 0.128945 0.112601 0.0998261 0.0895301 0.0804835 0.0710532 
0.0590929 0.0423615 0.0196785 0.514874 0.581324 0.589765 0.588619 0.585494 0.581078 
0.575259 0.567595 0.557601 0.544568 0.527613 0.50568 0.477588 0.441651 0.396744 
0.346355 0.297593 0.254274 0.217528 0.187217 0.162656 0.142983 0.127308 0.114723 
0.104218 0.0945405 0.0839568 0.0702403 0.0510581 0.0254901 0.483378 0.549208 0.55737 
0.555599 0.551576 0.546067 0.538979 0.529925 0.518509 0.504187 0.486351 0.464342 
0.437527 0.405329 0.367994 0.327922 0.288785 0.252999 0.221662 0.195018 0.172831 
0.154618 0.139769 0.127556 0.11707 0.107086 0.095822 0.0809644 0.0598288 0.0314865 
0.45449 0.51984 0.527873 0.525701 0.521096 0.514915 0.5071 0.497337 0.485332 
0.470697 0.453051 0.432032 0.407381 0.37906 0.347649 0.314753 0.282476 0.252407 
0.225453 0.201977 0.181968 0.165178 0.151198 0.13946 0.129165 0.119157 0.107648 
0.0922282 0.0697455 0.0387335 0.428158 0.493143 0.501173 0.498785 0.493854 0.487334 
0.479205 0.469227 0.457197 0.442858 0.425995 0.406443 0.384166 0.359347 0.332575 
0.304947 0.277775 0.252142 0.228764 0.208007 0.189968 0.174541 0.161457 0.150281 
0.140328 0.130532 0.119124 0.103576 0.0801784 0.0465608 0.40428 0.468993 0.477115 
0.474658 0.469602 0.462994 0.45485 0.444998 0.433311 0.419628 0.403852 0.38594 
0.365971 0.344199 0.321135 0.297551 0.274323 0.252216 0.231785 0.213364 0.197092 
0.182946 0.170759 0.160204 0.150706 0.141299 0.130253 0.114918 0.0909735 0.0548748 
0.382719 0.447228 0.455515 0.453098 0.448066 0.441552 0.433602 0.424101 0.412978 
0.400146 0.385581 0.369311 0.351469 0.332314 0.312265 0.291887 0.271795 0.252547 
0.234575 0.218169 0.203479 0.190529 0.179225 0.169326 0.160361 0.151465 0.140958 
0.126081 0.101883 0.0634464 0.363315 0.427672 0.436171 0.433875 0.428974 0.422679 
0.415059 0.406047 0.395611 0.383714 0.370379 0.355672 0.339744 0.322832 0.305278 
0.287506 0.269967 0.25308 0.237185 0.222528 0.209255 0.197418 0.186971 0.177744 
0.169356 0.161044 0.151189 0.136939 0.112724 0.0721145 0.3459 0.410138 0.418879 
0.416759 0.412061 0.406066 0.398861 0.390413 0.380718 0.369775 0.357631 0.344371 
0.330145 0.315162 0.299703 0.284091 0.268672 0.253765 0.239644 0.226515 0.214515 
0.203709 0.194086 0.185532 0.17774 0.170048 0.160905 0.147389 0.123344 0.0807345 
0.330305 0.394443 0.403442 0.401531 0.397082 0.391435 0.384688 0.376837 0.367896 
0.357883 0.346861 0.33492 0.322202 0.308888 0.295207 0.281416 0.267783 0.254561 
0.24197 0.230186 0.219332 0.209481 0.200643 0.192748 0.185553 0.178487 0.170076 
0.157355 0.133624 0.0891918 0.316365 0.380413 0.38967 0.387986 0.383812 0.378536 
0.372266 0.365016 0.356811 0.347683 0.3377 0.326953 0.315568 0.303705 0.291551 
0.279314 0.267207 0.255434 0.244175 0.23358 0.223761 0.214791 0.206696 0.199438 
0.192827 0.186375 0.178689 0.166785 0.143478 0.0973974 0.303923 0.36788 0.377388 
0.375938 0.372051 0.367153 0.361356 0.354693 0.347192 0.338891 0.329861 0.320188 
0.309985 0.299389 0.288557 0.27766 0.266871 0.256356 0.246266 0.236729 0.227846 
0.219688 0.21229 0.20564 0.199589 0.193726 0.18674 0.175651 0.152844 0.105286 
0.292832 0.356691 0.366437 0.365219 0.361618 0.357092 0.351757 0.345654 0.338813 
0.331279 0.323117 0.314407 0.305252 0.295769 0.286091 0.27636 0.266718 0.257305 
0.248247 0.239654 0.231618 0.224207 0.217462 0.211386 0.205867 0.200559 0.194234 
0.183938 0.161686 0.112812 0.282957 0.346707 0.35667 0.355677 0.352355 0.348189 
0.343293 0.337718 0.331492 0.324661 0.317286 0.309441 0.301217 0.292716 0.284051 
0.27534 0.266705 0.258263 0.25012 0.242374 0.235105 0.22838 0.222241 0.216704 
0.211684 0.206892 0.201184 0.191648 0.169984 0.119949 0.274176 0.337798 0.347959 
0.347178 0.344124 0.340299 0.335817 0.330734 0.325074 0.318885 0.312222 0.305154 
0.297759 0.290127 0.282355 0.274545 0.266798 0.259215 0.251888 0.244902 0.238329 
0.232232 0.226654 0.22162 0.217064 0.212749 0.207611 0.198792 0.177735 0.126681 
0.266376 0.329851 0.340185 0.339602 0.336802 0.333297 0.329201 0.324572 0.319433 
0.313828 0.307809 0.301436 0.294782 0.287922 0.280942 0.273929 0.26697 0.260151 
0.253553 0.24725 0.241309 0.235787 0.230725 0.226157 0.222031 0.218154 0.213537 
0.20539 0.184946 0.133007 0.259456 0.322763 0.333244 0.332845 0.330282 0.327076 
0.323337 0.319126 0.314462 0.309388 0.303949 0.298202 0.292208 0.286037 0.279761 
0.273456 0.267198 0.261061 0.255116 0.24943 0.244061 0.239063 0.234477 0.230338 
0.226609 0.22313 0.218989 0.211466 0.191632 0.138931 0.253326 0.31644 0.327046 
0.326813 0.324471 0.32154 0.31813 0.314303 0.310071 0.305478 0.300563 0.295378 
0.289977 0.28442 0.278772 0.273098 0.267466 0.261939 0.256581 0.25145 0.2466 
0.242081 0.237931 0.234187 0.23082 0.227704 0.223993 0.217048 0.197814 0.144465 
0.247904 0.310802 0.321507 0.321425 0.319286 0.31661 0.313502 0.310024 0.306186 
0.302028 0.297586 0.292906 0.288035 0.283029 0.277942 0.272833 0.26776 0.26278 
0.25795 0.253321 0.248941 0.244857 0.241105 0.237723 0.234689 0.2319 0.228579 
0.222165 0.203517 0.149625 0.243118 0.305776 0.316555 0.316608 0.314657 0.312214 
0.309381 0.306222 0.302741 0.298978 0.294962 0.290736 0.286342 0.281828 0.277244 
0.272641 0.26807 0.263582 0.259226 0.25505 0.251096 0.247409 0.24402 0.240968 
0.238237 0.235745 0.232774 0.226848 0.20877 0.154429 0.238903 0.301295 0.312127 
0.3123 0.310521 0.308289 0.305709 0.302839 0.299683 0.296275 0.292644 0.288827 
0.284861 0.28079 0.276657 0.272508 0.268388 0.264341 0.260413 0.256646 0.253079 
0.249751 0.246693 0.243943 0.241487 0.239263 0.236608 0.231128 0.2136 0.1589 
0.2352 0.297302 0.308164 0.308443 0.306821 0.304784 0.302433 0.299826 0.296963 
0.293878 0.290594 0.287145 0.283564 0.279891 0.276163 0.272422 0.268706 0.265058 
0.261516 0.258118 0.254901 0.251899 0.249142 0.246666 0.244461 0.242478 0.240106 
0.235036 0.218038 0.163057 0.231958 0.293745 0.304618 0.30499 0.30351 0.30165 
0.299508 0.297139 0.294542 0.291748 0.288777 0.28566 0.282426 0.279111 0.275747 
0.272372 0.269022 0.265732 0.262537 0.259474 0.256572 0.253867 0.251384 0.249156 
0.247178 0.245412 0.243296 0.2386 0.222112 0.166923 0.22913 0.290579 0.301443 
0.301895 0.300546 0.298845 0.296893 0.29474 0.292384 0.289853 0.287164 0.284347 
0.281425 0.278432 0.275397 0.272352 0.26933 0.266363 0.263483 0.260721 0.258106 
0.255669 0.253433 0.251431 0.24966 0.248089 0.246201 0.241847 0.22585 0.17052 
0.226674 0.287762 0.2986 0.299121 0.297889 0.296335 0.294555 0.292598 0.290459 
0.288166 0.285732 0.283184 0.280545 0.277842 0.275102 0.272354 0.269628 0.266953 
0.264356 0.261866 0.25951 0.257316 0.255305 0.253509 0.251923 0.250528 0.248846 
0.244805 0.229278 0.173869 0.224555 0.285258 0.296054 0.296633 0.295508 0.294086 
0.292462 0.290682 0.288741 0.286662 0.284459 0.282154 0.279769 0.277327 0.274853 
0.272374 0.269915 0.267502 0.265161 0.262918 0.260796 0.258822 0.257014 0.255403 
0.253987 0.252749 0.251252 0.247497 0.232423 0.176989 0.222738 0.283035 0.293774 
0.294402 0.293373 0.292071 0.290588 0.288969 0.287206 0.285321 0.283326 0.281241 
0.279084 0.276878 0.274645 0.272407 0.270189 0.268013 0.265903 0.263883 0.261972 
0.260197 0.258574 0.257131 0.255866 0.254771 0.253439 0.249948 0.235308 0.179901 
0.221193 0.281063 0.291731 0.292399 0.291458 0.290264 0.28891 0.287435 0.285834 
0.284125 0.282317 0.28043 0.27848 0.276487 0.27447 0.272451 0.270449 0.268488 
0.266586 0.264767 0.263048 0.261452 0.259995 0.258704 0.257577 0.25661 0.255427 
0.252177 0.237955 0.182622 0.219895 0.279317 0.289901 0.290602 0.289739 0.288643 
0.287405 0.286063 0.284607 0.283056 0.281418 0.27971 0.277946 0.276145 0.274324 
0.272501 0.270696 0.268928 0.267214 0.265576 0.26403 0.262598 0.261291 0.260137 
0.259135 0.258282 0.257233 0.254205 0.240386 0.185169 0.218819 0.277773 0.288263 
0.288989 0.288196 0.28719 0.286057 0.284833 0.283509 0.282101 0.280617 0.27907 
0.277475 0.275847 0.274202 0.272557 0.270929 0.269335 0.267792 0.266317 0.264928 
0.263642 0.262472 0.261442 0.260552 0.259802 0.258874 0.25605 0.242619 0.187558 
0.217943 0.27641 0.286796 0.287541 0.286812 0.285886 0.284848 0.283732 0.282527 
0.281249 0.279902 0.278502 0.277059 0.275587 0.274101 0.272616 0.271148 0.269711 
0.268322 0.266996 0.265747 0.264594 0.263547 0.262629 0.26184 0.261183 0.260363 
0.257728 0.244672 0.189803 0.21725 0.275211 0.285482 0.286241 0.285569 0.284716 
0.283765 0.282745 0.281648 0.280487 0.279265 0.277997 0.276691 0.27536 0.274018 
0.272678 0.271353 0.270059 0.268808 0.267616 0.266495 0.265461 0.264526 0.263709 
0.263011 0.262438 0.261716 0.259255 0.246561 0.191919 0.21672 0.274158 0.284307 
0.285074 0.284453 0.283666 0.282793 0.281861 0.280862 0.279806 0.278698 0.277548 
0.276366 0.275163 0.27395 0.272741 0.271546 0.27038 0.269255 0.268183 0.267177 
0.266252 0.265417 0.264691 0.264076 0.263578 0.262944 0.260644 0.248303 0.193917 
0.21634 0.273237 0.283256 0.284027 0.283452 0.282724 0.281922 0.28107 0.280158 
0.279197 0.278191 0.277149 0.276079 0.274991 0.273895 0.272804 0.271727 0.270677 
0.269664 0.268702 0.2678 0.266973 0.266228 0.265584 0.265044 0.264614 0.26406 
0.261909 0.249909 0.195809 0.216094 0.272433 0.282317 0.283087 0.282553 0.281879 
0.281141 0.28036 0.279528 0.278654 0.27774 0.276795 0.275825 0.274841 0.273852 
0.272867 0.271896 0.270951 0.27004 0.269176 0.268368 0.267629 0.266966 0.266397 
0.265924 0.265554 0.265072 0.263061 0.251393 0.197606 0.21597 0.271735 0.281477 
0.282244 0.281747 0.281121 0.280441 0.279725 0.278965 0.278169 0.277338 0.27648 
0.275602 0.274712 0.273818 0.272929 0.272054 0.271203 0.270385 0.26961 0.268887 
0.268227 0.267638 0.267136 0.266724 0.266409 0.265992 0.264111 0.252766 0.199317 
0.215957 0.271133 0.280728 0.281487 0.281023 0.280441 0.279813 0.279156 0.278461 
0.277735 0.27698 0.276201 0.275406 0.274601 0.273793 0.272991 0.272202 0.271437 
0.270701 0.270007 0.26936 0.268772 0.26825 0.267809 0.267451 0.267185 0.266827 
0.265068 0.254038 0.20095 0.216044 0.270617 0.280061 0.280809 0.280375 0.279832 
0.279252 0.278647 0.278011 0.277349 0.276661 0.275954 0.275233 0.274504 0.273775 
0.273051 0.272341 0.271652 0.270992 0.27037 0.269792 0.269269 0.268807 0.268421 
0.268112 0.267891 0.267586 0.265941 0.255219 0.202515 0.216219 0.270181 0.279467 
0.280202 0.279793 0.279286 0.278749 0.278192 0.277609 0.277004 0.276378 0.275736 
0.275082 0.274422 0.273763 0.27311 0.27247 0.271851 0.271259 0.270702 0.270187 
0.269722 0.269315 0.268978 0.268713 0.268532 0.268276 0.266737 0.256317 0.204019 
0.216469 0.269821 0.278938 0.279658 0.279273 0.278798 0.278299 0.277786 0.277251 
0.276697 0.276127 0.275543 0.27495 0.274352 0.273756 0.273167 0.272591 0.272035 
0.271504 0.271006 0.270547 0.270136 0.269777 0.269485 0.269261 0.269115 0.268903 
0.267465 0.25734 0.205467 0.216788 0.269532 0.278469 0.279171 0.278807 0.278361 
0.277897 0.277422 0.276931 0.276424 0.275904 0.275373 0.274834 0.274293 0.273754 
0.273223 0.272704 0.272205 0.271729 0.271285 0.270877 0.270513 0.270199 0.269946 
0.269758 0.269646 0.269473 0.26813 0.258295 0.206866 0.217169 0.269305 0.278054 
0.278735 0.27839 0.27797 0.277537 0.277098 0.276646 0.276182 0.275707 0.275223 
0.274734 0.274244 0.273757 0.273277 0.272811 0.272362 0.271937 0.27154 0.271178 
0.270858 0.270583 0.270367 0.270212 0.270128 0.269992 0.268738 0.259189 0.208222 
0.217606 0.269134 0.277686 0.278347 0.278017 0.277621 0.277217 0.27681 0.276393 
0.275967 0.275532 0.275091 0.274647 0.274203 0.273763 0.27333 0.272911 0.272508 
0.272128 0.271775 0.271454 0.271173 0.270934 0.270751 0.270625 0.270568 0.270465 
0.269295 0.260026 0.209539 0.218096 0.269012 0.277363 0.278 0.277684 0.277309 
0.276931 0.276552 0.276167 0.275776 0.275378 0.274976 0.274572 0.27417 0.273772 
0.273382 0.273004 0.272644 0.272304 0.27199 0.271707 0.27146 0.271255 0.271101 
0.271001 0.270968 0.270895 0.269806 0.260813 0.210823 0.218633 0.268934 0.277079 
0.277691 0.277388 0.277032 0.276677 0.276324 0.275968 0.275607 0.275243 0.274876 
0.274509 0.274143 0.273783 0.273432 0.273093 0.27277 0.272466 0.272188 0.271939 
0.271724 0.271548 0.27142 0.271344 0.271333 0.271287 0.270274 0.261554 0.212077 
0.219214 0.268895 0.276832 0.277415 0.277123 0.276784 0.276451 0.276121 0.275791 
0.275459 0.275125 0.274789 0.274455 0.274123 0.273797 0.273481 0.273176 0.272887 
0.272617 0.272371 0.272151 0.271965 0.271815 0.271712 0.271658 0.271666 0.271645 
0.270704 0.262253 0.213304 0.219836 0.268891 0.276617 0.277171 0.276888 0.276565 
0.27625 0.275942 0.275635 0.275328 0.275021 0.274714 0.274409 0.274108 0.273814 
0.273528 0.273254 0.272996 0.272756 0.272539 0.272347 0.272187 0.272061 0.271979 
0.271944 0.271969 0.271972 0.2711 0.262914 0.21451 0.220496 0.268918 0.276431 
0.276954 0.276679 0.27637 0.276072 0.275783 0.275498 0.275213 0.274931 0.27465 
0.274372 0.274098 0.273832 0.273574 0.273329 0.273098 0.272885 0.272694 0.272527 
0.27239 0.272285 0.272223 0.272206 0.272247 0.27227 0.271464 0.26354 0.215696 
0.22119 0.268973 0.27627 0.276762 0.276494 0.276198 0.275915 0.275643 0.275377 
0.275113 0.274853 0.274595 0.274341 0.274093 0.273851 0.273619 0.273399 0.273194 
0.273005 0.272837 0.272692 0.272576 0.272491 0.272447 0.272446 0.272501 0.272543 
0.2718 0.264135 0.216866 0.221917 0.269053 0.276133 0.276592 0.276331 0.276045 
0.275777 0.27552 0.275271 0.275026 0.274786 0.274549 0.274317 0.274091 0.273872 
0.273663 0.273466 0.273283 0.273116 0.27297 0.272845 0.272748 0.272681 0.272652 
0.272665 0.272733 0.272793 0.27211 0.264701 0.218021 0.222675 0.269154 0.276016 
0.276443 0.276186 0.275911 0.275655 0.275412 0.275179 0.274951 0.274729 0.27451 
0.274298 0.274092 0.273895 0.273706 0.27353 0.273367 0.27322 0.273093 0.272986 
0.272906 0.272855 0.272841 0.272867 0.272946 0.273022 0.272396 0.265241 0.219165 
0.22346 0.269276 0.275917 0.276312 0.276059 0.275793 0.275549 0.275319 0.275099 
0.274886 0.27468 0.274479 0.274285 0.274097 0.273918 0.273748 0.27359 0.273446 
0.273317 0.273207 0.273117 0.273053 0.273015 0.273014 0.273051 0.273141 0.273232 
0.272661 0.265758 0.2203 0.224272 0.269414 0.275835 0.276197 0.275948 0.27569 
0.275456 0.275237 0.27503 0.274831 0.27464 0.274454 0.274276 0.274104 0.273942 
0.27379 0.273648 0.273521 0.273408 0.273313 0.273238 0.273188 0.273163 0.273174 
0.273222 0.273321 0.273425 0.272907 0.266252 0.221427 0.225109 0.269567 0.275768 
0.276097 0.27585 0.2756 0.275375 0.275167 0.274971 0.274785 0.274606 0.274435 
0.274271 0.274114 0.273967 0.27383 0.273704 0.273591 0.273493 0.273412 0.27335 
0.273313 0.2733 0.273321 0.273378 0.273486 0.273602 0.273135 0.266726 0.222548 
0.22597 0.269734 0.275714 0.27601 0.275766 0.275522 0.275305 0.275106 0.274921 
0.274746 0.274579 0.27442 0.274269 0.274127 0.273993 0.273869 0.273757 0.273658 
0.273573 0.273505 0.273455 0.273429 0.273426 0.273457 0.273523 0.273638 0.273766 
0.273347 0.267181 0.223665 0.226853 0.269913 0.275671 0.275935 0.275693 0.275455 
0.275246 0.275055 0.274879 0.274714 0.274558 0.27441 0.274271 0.274141 0.274019 
0.273908 0.273808 0.273721 0.273648 0.273591 0.273553 0.273537 0.273544 0.273583 
0.273656 0.273779 0.273917 0.273544 0.26762 0.224779 0.227757 0.270101 0.275639 
0.275871 0.27563 0.275397 0.275195 0.275012 0.274845 0.274688 0.274542 0.274405 
0.274276 0.274156 0.274046 0.273946 0.273857 0.273781 0.273719 0.273673 0.273644 
0.273637 0.273653 0.273699 0.27378 0.273909 0.274056 0.273728 0.268042 0.225892 
0.228682 0.270298 0.275616 0.275816 0.275576 0.275349 0.275153 0.274976 0.274816 
0.274668 0.274531 0.274402 0.274284 0.274174 0.274074 0.273984 0.273905 0.273839 
0.273786 0.273749 0.273729 0.273731 0.273754 0.273808 0.273894 0.274029 0.274185 
0.273899 0.26845 0.227005 0.229626 0.270502 0.275601 0.27577 0.275531 0.275308 
0.275117 0.274947 0.274794 0.274653 0.274524 0.274404 0.274294 0.274193 0.274101 
0.274021 0.273951 0.273894 0.27385 0.273821 0.273809 0.273818 0.273849 0.273909 
0.274001 0.274141 0.274304 0.27406 0.268845 0.228118 0.230588 0.270713 0.275593 
0.275731 0.275493 0.275274 0.275088 0.274923 0.274777 0.274642 0.274521 0.274408 
0.274306 0.274213 0.27413 0.274057 0.273996 0.273946 0.27391 0.273889 0.273885 
0.2739 0.273937 0.274003 0.2741 0.274244 0.274415 0.27421 0.269226 0.229234 
0.231568 0.270928 0.275591 0.2757 0.275462 0.275246 0.275065 0.274905 0.274765 
0.274636 0.274521 0.274415 0.274319 0.274234 0.274158 0.274093 0.274039 0.273997 
0.273968 0.273954 0.273956 0.273977 0.27402 0.274091 0.274192 0.274341 0.274519 
0.27435 0.269596 0.230352 0.232566 0.271148 0.275595 0.275675 0.275437 0.275225 
0.275048 0.274892 0.274756 0.274633 0.274524 0.274424 0.274335 0.274256 0.274187 
0.274129 0.274081 0.274046 0.274023 0.274015 0.274023 0.27405 0.274097 0.274173 
0.274279 0.274431 0.274615 0.274482 0.269954 0.231474 0.23358 0.271371 0.275603 
0.275655 0.275417 0.275208 0.275035 0.274883 0.274752 0.274634 0.27453 0.274435 
0.274352 0.274279 0.274216 0.274164 0.274122 0.274093 0.274076 0.274073 0.274086 
0.274119 0.27417 0.27425 0.27436 0.274515 0.274705 0.274607 0.270302 0.232601 
0.234611 0.271596 0.275616 0.27564 0.275403 0.275196 0.275026 0.274878 0.274751 
0.274638 0.274538 0.274449 0.274371 0.274303 0.274245 0.274198 0.274162 0.274138 
0.274126 0.274129 0.274147 0.274183 0.274239 0.274323 0.274436 0.274594 0.274789 
0.274723 0.27064 0.233733 0.235657 0.271823 0.275632 0.27563 0.275393 0.275188 
0.275021 0.274877 0.274754 0.274644 0.274548 0.274464 0.27439 0.274327 0.274275 
0.274232 0.274201 0.274182 0.274175 0.274182 0.274204 0.274245 0.274304 0.274391 
0.274507 0.274668 0.274867 0.274833 0.270968 0.234871 0.236719 0.272051 0.275652 
0.275624 0.275386 0.275184 0.27502 0.274879 0.274759 0.274652 0.274561 0.27448 
0.274411 0.274352 0.274304 0.274266 0.27424 0.274225 0.274222 0.274233 0.274259 
0.274303 0.274366 0.274456 0.274574 0.274738 0.274941 0.274937 0.271287 0.236015 
0.237796 0.272279 0.275673 0.275621 0.275384 0.275183 0.275022 0.274883 0.274766 
0.274663 0.274575 0.274498 0.274433 0.274378 0.274334 0.2743 0.274277 0.274266 
0.274267 0.274282 0.274311 0.274359 0.274425 0.274518 0.274638 0.274804 0.275011 
0.275035 0.271597 0.237166 0.238888 0.272507 0.275698 0.275621 0.275384 0.275185 
0.275026 0.27489 0.274776 0.274676 0.274591 0.274518 0.274456 0.274404 0.274364 
0.274334 0.274314 0.274307 0.274311 0.274329 0.274361 0.274412 0.274481 0.274576 
0.274698 0.274866 0.275076 0.275128 0.271898 0.238325 0.239995 0.272733 0.275723 
0.275625 0.275387 0.27519 0.275033 0.274899 0.274788 0.27469 0.274608 0.274538 
0.274479 0.274431 0.274394 0.274367 0.274351 0.274346 0.274354 0.274375 0.27441 
0.274463 0.274534 0.274631 0.274756 0.274925 0.275139 0.275215 0.272191 0.239492 
0.241116 0.272958 0.275751 0.275631 0.275393 0.275198 0.275042 0.27491 0.274801 
0.274707 0.274627 0.274559 0.274503 0.274458 0.274424 0.2744 0.274387 0.274385 
0.274395 0.274419 0.274456 0.274512 0.274585 0.274684 0.27481 0.274982 0.275197 
0.275298 0.272476 0.240668 0.242251 0.273181 0.275779 0.275639 0.275401 0.275207 
0.275054 0.274924 0.274816 0.274724 0.274647 0.274582 0.274528 0.274486 0.274454 