# vtk DataFile Version 5.1
vtk output
ASCII
DATASET UNSTRUCTURED_GRID
POINTS 4929 double
0.1016 1.5 0 0.1016 1.45 0 0.1016 1.4 0 
0.1016 1.35 0 0.1016 1.3 0 0.1016 1.25 0 
0.1016 1.2 0 0.1016 1.15 0 0.1016 1.1 0 
0.1016 1.05 0 0.1016 1 0 0.1016 0.95 0 
0.1016 0.9 0 0.1016 0.85 0 0.1016 0.8 0 
0.1016 0.75 0 0.1016 0.7 0 0.1016 0.65 0 
0.1016 0.6 0 0.1016 0.55 0 0.1016 0.5 0 
0.1016 0.45 0 0.1016 0.4 0 0.1016 0.35 0 
0.1016 0.3 0 0.1016 0.25 0 0.1016 0.2 0 
0.1016 0.15 0 0.1016 0.1 0 0.1016 0.05 0 
0.1016 0 0 5.08 1.5 0 5.08 1.45 0 
5.08 1.4 0 5.08 1.35 0 5.08 1.3 0 
5.08 1.25 0 5.08 1.2 0 5.08 1.15 0 
5.08 1.1 0 5.08 1.05 0 5.08 1 0 
5.08 0.95 0 5.08 0.9 0 5.08 0.85 0 
5.08 0.8 0 5.08 0.75 0 5.08 0.7 0 
5.08 0.65 0 5.08 0.6 0 5.08 0.55 0 
5.08 0.5 0 5.08 0.45 0 5.08 0.4 0 
5.08 0.35 0 5.08 0.3 0 5.08 0.25 0 
5.08 0.2 0 5.08 0.15 0 5.08 0.1 0 
5.08 0.05 0 5.08 0 0 0.12737462728 1.5 0 
0.12737462728 1.45 0 0.12737462728 1.4 0 0.12737462728 1.35 0 
0.12737462728 1.3 0 0.12737462728 1.25 0 0.12737462728 1.2 0 
0.12737462728 1.15 0 0.12737462728 1.1 0 0.12737462728 1.05 0 
0.12737462728 1 0 0.12737462728 0.95 0 0.12737462728 0.9 0 
0.12737462728 0.85 0 0.12737462728 0.8 0 0.12737462728 0.75 0 
0.12737462728 0.7 0 0.12737462728 0.65 0 0.12737462728 0.6 0 
0.12737462728 0.55 0 0.12737462728 0.5 0 0.12737462728 0.45 0 
0.12737462728 0.4 0 0.12737462728 0.35 0 0.12737462728 0.3 0 
0.12737462728 0.25 0 0.12737462728 0.2 0 0.12737462728 0.15 0 
0.12737462728 0.1 0 0.12737462728 0.05 0 0.12737462728 0 0 
0.15441581276 1.5 0 0.15441581276 1.45 0 0.15441581276 1.4 0 
0.15441581276 1.35 0 0.15441581276 1.3 0 0.15441581276 1.25 0 
0.15441581276 1.2 0 0.15441581276 1.15 0 0.15441581276 1.1 0 
0.15441581276 1.05 0 0.15441581276 1 0 0.15441581276 0.95 0 
0.15441581276 0.9 0 0.15441581276 0.85 0 0.15441581276 0.8 0 
0.15441581276 0.75 0 0.15441581276 0.7 0 0.15441581276 0.65 0 
0.15441581276 0.6 0 0.15441581276 0.55 0 0.15441581276 0.5 0 
0.15441581276 0.45 0 0.15441581276 0.4 0 0.15441581276 0.35 0 
0.15441581276 0.3 0 0.15441581276 0.25 0 0.15441581276 0.2 0 
0.15441581276 0.15 0 0.15441581276 0.1 0 0.15441581276 0.05 0 
0.15441581276 0 0 0.18278579477 1.5 0 0.18278579477 1.45 0 
0.18278579477 1.4 0 0.18278579477 1.35 0 0.18278579477 1.3 0 
0.18278579477 1.25 0 0.18278579477 1.2 0 0.18278579477 1.15 0 
0.18278579477 1.1 0 0.18278579477 1.05 0 0.18278579477 1 0 
0.18278579477 0.95 0 0.18278579477 0.9 0 0.18278579477 0.85 0 
0.18278579477 0.8 0 0.18278579477 0.75 0 0.18278579477 0.7 0 
0.18278579477 0.65 0 0.18278579477 0.6 0 0.18278579477 0.55 0 
0.18278579477 0.5 0 0.18278579477 0.45 0 0.18278579477 0.4 0 
0.18278579477 0.35 0 0.18278579477 0.3 0 0.18278579477 0.25 0 
0.18278579477 0.2 0 0.18278579477 0.15 0 0.18278579477 0.1 0 
0.18278579477 0.05 0 0.18278579477 0 0 0.21254987001 1.5 0 
0.21254987001 1.45 0 0.21254987001 1.4 0 0.21254987001 1.35 0 
0.21254987001 1.3 0 0.21254987001 1.25 0 0.21254987001 1.2 0 
0.21254987001 1.15 0 0.21254987001 1.1 0 0.21254987001 1.05 0 
0.21254987001 1 0 0.21254987001 0.95 0 0.21254987001 0.9 0 
0.21254987001 0.85 0 0.21254987001 0.8 0 0.21254987001 0.75 0 
0.21254987001 0.7 0 0.21254987001 0.65 0 0.21254987001 0.6 0 
0.21254987001 0.55 0 0.21254987001 0.5 0 0.21254987001 0.45 0 
0.21254987001 0.4 0 0.21254987001 0.35 0 0.21254987001 0.3 0 
0.21254987001 0.25 0 0.21254987001 0.2 0 0.21254987001 0.15 0 
0.21254987001 0.1 0 0.21254987001 0.05 0 0.21254987001 0 0 
0.24377654385 1.5 0 0.24377654385 1.45 0 0.24377654385 1.4 0 
0.24377654385 1.35 0 0.24377654385 1.3 0 0.24377654385 1.25 0 
0.24377654385 1.2 0 0.24377654385 1.15 0 0.24377654385 1.1 0 
0.24377654385 1.05 0 0.24377654385 1 0 0.24377654385 0.95 0 
0.24377654385 0.9 0 0.24377654385 0.85 0 0.24377654385 0.8 0 
0.24377654385 0.75 0 0.24377654385 0.7 0 0.24377654385 0.65 0 
0.24377654385 0.6 0 0.24377654385 0.55 0 0.24377654385 0.5 0 
0.24377654385 0.45 0 0.24377654385 0.4 0 0.24377654385 0.35 0 
0.24377654385 0.3 0 0.24377654385 0.25 0 0.24377654385 0.2 0 
0.24377654385 0.15 0 0.24377654385 0.1 0 0.24377654385 0.05 0 
0.24377654385 0 0 0.27653768798 1.5 0 0.27653768798 1.45 0 
0.27653768798 1.4 0 0.27653768798 1.35 0 0.27653768798 1.3 0 
0.27653768798 1.25 0 0.27653768798 1.2 0 0.27653768798 1.15 0 
0.27653768798 1.1 0 0.27653768798 1.05 0 0.27653768798 1 0 
0.27653768798 0.95 0 0.27653768798 0.9 0 0.27653768798 0.85 0 
0.27653768798 0.8 0 0.27653768798 0.75 0 0.27653768798 0.7 0 
0.27653768798 0.65 0 0.27653768798 0.6 0 0.27653768798 0.55 0 
0.27653768798 0.5 0 0.27653768798 0.45 0 0.27653768798 0.4 0 
0.27653768798 0.35 0 0.27653768798 0.3 0 0.27653768798 0.25 0 
0.27653768798 0.2 0 0.27653768798 0.15 0 0.27653768798 0.1 0 
0.27653768798 0.05 0 0.27653768798 0 0 0.31090870586 1.5 0 
0.31090870586 1.45 0 0.31090870586 1.4 0 0.31090870586 1.35 0 
0.31090870586 1.3 0 0.31090870586 1.25 0 0.31090870586 1.2 0 
0.31090870586 1.15 0 0.31090870586 1.1 0 0.31090870586 1.05 0 
0.31090870586 1 0 0.31090870586 0.95 0 0.31090870586 0.9 0 
0.31090870586 0.85 0 0.31090870586 0.8 0 0.31090870586 0.75 0 
0.31090870586 0.7 0 0.31090870586 0.65 0 0.31090870586 0.6 0 
0.31090870586 0.55 0 0.31090870586 0.5 0 0.31090870586 0.45 0 
0.31090870586 0.4 0 0.31090870586 0.35 0 0.31090870586 0.3 0 
0.31090870586 0.25 0 0.31090870586 0.2 0 0.31090870586 0.15 0 
0.31090870586 0.1 0 0.31090870586 0.05 0 0.31090870586 0 0 
0.34696870625 1.5 0 0.34696870625 1.45 0 0.34696870625 1.4 0 
0.34696870625 1.35 0 0.34696870625 1.3 0 0.34696870625 1.25 0 
0.34696870625 1.2 0 0.34696870625 1.15 0 0.34696870625 1.1 0 
0.34696870625 1.05 0 0.34696870625 1 0 0.34696870625 0.95 0 
0.34696870625 0.9 0 0.34696870625 0.85 0 0.34696870625 0.8 0 
0.34696870625 0.75 0 0.34696870625 0.7 0 0.34696870625 0.65 0 
0.34696870625 0.6 0 0.34696870625 0.55 0 0.34696870625 0.5 0 
0.34696870625 0.45 0 0.34696870625 0.4 0 0.34696870625 0.35 0 
0.34696870625 0.3 0 0.34696870625 0.25 0 0.34696870625 0.2 0 
0.34696870625 0.15 0 0.34696870625 0.1 0 0.34696870625 0.05 0 
0.34696870625 0 0 0.3848006853 1.5 0 0.3848006853 1.45 0 
0.3848006853 1.4 0 0.3848006853 1.35 0 0.3848006853 1.3 0 
0.3848006853 1.25 0 0.3848006853 1.2 0 0.3848006853 1.15 0 
0.3848006853 1.1 0 0.3848006853 1.05 0 0.3848006853 1 0 
0.3848006853 0.95 0 0.3848006853 0.9 0 0.3848006853 0.85 0 
0.3848006853 0.8 0 0.3848006853 0.75 0 0.3848006853 0.7 0 
0.3848006853 0.65 0 0.3848006853 0.6 0 0.3848006853 0.55 0 
0.3848006853 0.5 0 0.3848006853 0.45 0 0.3848006853 0.4 0 
0.3848006853 0.35 0 0.3848006853 0.3 0 0.3848006853 0.25 0 
0.3848006853 0.2 0 0.3848006853 0.15 0 0.3848006853 0.1 0 
0.3848006853 0.05 0 0.3848006853 0 0 0.42449171754 1.5 0 
0.42449171754 1.45 0 0.42449171754 1.4 0 0.42449171754 1.35 0 
0.42449171754 1.3 0 0.42449171754 1.25 0 0.42449171754 1.2 0 
0.42449171754 1.15 0 0.42449171754 1.1 0 0.42449171754 1.05 0 
0.42449171754 1 0 0.42449171754 0.95 0 0.42449171754 0.9 0 
0.42449171754 0.85 0 0.42449171754 0.8 0 0.42449171754 0.75 0 
0.42449171754 0.7 0 0.42449171754 0.65 0 0.42449171754 0.6 0 
0.42449171754 0.55 0 0.42449171754 0.5 0 0.42449171754 0.45 0 
0.42449171754 0.4 0 0.42449171754 0.35 0 0.42449171754 0.3 0 
0.42449171754 0.25 0 0.42449171754 0.2 0 0.42449171754 0.15 0 
0.42449171754 0.1 0 0.42449171754 0.05 0 0.42449171754 0 0 
0.46613315636 1.5 0 0.46613315636 1.45 0 0.46613315636 1.4 0 
0.46613315636 1.35 0 0.46613315636 1.3 0 0.46613315636 1.25 0 
0.46613315636 1.2 0 0.46613315636 1.15 0 0.46613315636 1.1 0 
0.46613315636 1.05 0 0.46613315636 1 0 0.46613315636 0.95 0 
0.46613315636 0.9 0 0.46613315636 0.85 0 0.46613315636 0.8 0 
0.46613315636 0.75 0 0.46613315636 0.7 0 0.46613315636 0.65 0 
0.46613315636 0.6 0 0.46613315636 0.55 0 0.46613315636 0.5 0 
0.46613315636 0.45 0 0.46613315636 0.4 0 0.46613315636 0.35 0 
0.46613315636 0.3 0 0.46613315636 0.25 0 0.46613315636 0.2 0 
0.46613315636 0.15 0 0.46613315636 0.1 0 0.46613315636 0.05 0 
0.46613315636 0 0 0.5098208442 1.5 0 0.5098208442 1.45 0 
0.5098208442 1.4 0 0.5098208442 1.35 0 0.5098208442 1.3 0 
0.5098208442 1.25 0 0.5098208442 1.2 0 0.5098208442 1.15 0 
0.5098208442 1.1 0 0.5098208442 1.05 0 0.5098208442 1 0 
0.5098208442 0.95 0 0.5098208442 0.9 0 0.5098208442 0.85 0 
0.5098208442 0.8 0 0.5098208442 0.75 0 0.5098208442 0.7 0 
0.5098208442 0.65 0 0.5098208442 0.6 0 0.5098208442 0.55 0 
0.5098208442 0.5 0 0.5098208442 0.45 0 0.5098208442 0.4 0 
0.5098208442 0.35 0 0.5098208442 0.3 0 0.5098208442 0.25 0 
0.5098208442 0.2 0 0.5098208442 0.15 0 0.5098208442 0.1 0 
0.5098208442 0.05 0 0.5098208442 0 0 0.55565533319 1.5 0 
0.55565533319 1.45 0 0.55565533319 1.4 0 0.55565533319 1.35 0 
0.55565533319 1.3 0 0.55565533319 1.25 0 0.55565533319 1.2 0 
0.55565533319 1.15 0 0.55565533319 1.1 0 0.55565533319 1.05 0 
0.55565533319 1 0 0.55565533319 0.95 0 0.55565533319 0.9 0 
0.55565533319 0.85 0 0.55565533319 0.8 0 0.55565533319 0.75 0 
0.55565533319 0.7 0 0.55565533319 0.65 0 0.55565533319 0.6 0 
0.55565533319 0.55 0 0.55565533319 0.5 0 0.55565533319 0.45 0 
0.55565533319 0.4 0 0.55565533319 0.35 0 0.55565533319 0.3 0 
0.55565533319 0.25 0 0.55565533319 0.2 0 0.55565533319 0.15 0 
0.55565533319 0.1 0 0.55565533319 0.05 0 0.55565533319 0 0 
0.60374211656 1.5 0 0.60374211656 1.45 0 0.60374211656 1.4 0 
0.60374211656 1.35 0 0.60374211656 1.3 0 0.60374211656 1.25 0 
0.60374211656 1.2 0 0.60374211656 1.15 0 0.60374211656 1.1 0 
0.60374211656 1.05 0 0.60374211656 1 0 0.60374211656 0.95 0 
0.60374211656 0.9 0 0.60374211656 0.85 0 0.60374211656 0.8 0 
0.60374211656 0.75 0 0.60374211656 0.7 0 0.60374211656 0.65 0 
0.60374211656 0.6 0 0.60374211656 0.55 0 0.60374211656 0.5 0 
0.60374211656 0.45 0 0.60374211656 0.4 0 0.60374211656 0.35 0 
0.60374211656 0.3 0 0.60374211656 0.25 0 0.60374211656 0.2 0 
0.60374211656 0.15 0 0.60374211656 0.1 0 0.60374211656 0.05 0 
0.60374211656 0 0 0.65419187143 1.5 0 0.65419187143 1.45 0 
0.65419187143 1.4 0 0.65419187143 1.35 0 0.65419187143 1.3 0 
0.65419187143 1.25 0 0.65419187143 1.2 0 0.65419187143 1.15 0 
[...]
CELL_DATA 4740
FIELD FieldData 7
B_Stress_n_p_m2 1 4740 float
0.853475 0.864759 0.875904 0.88772 0.900558 0.914975 0.931169 0.948869 0.966849 
0.982359 0.989911 0.977968 0.937664 0.859548 0.527465 0.151102 0.0695128 0.0545858 
0.0437944 0.0388261 0.036162 0.0345776 0.0335969 0.0329138 0.0323351 0.0317424 0.0309982 
0.0290952 0.0295285 0.0289531 0.826235 0.837144 0.847338 0.857805 0.868783 0.880803 
0.894062 0.908402 0.922963 0.935792 0.942919 0.936612 0.911861 0.860112 0.682348 
0.437887 0.272079 0.176157 0.129169 0.101153 0.0825104 0.069475 0.0599453 0.0527322 
0.0470353 0.0421252 0.037879 0.03192 0.0173825 0.0610453 0.798166 0.808659 0.817897 
0.826955 0.835998 0.84548 0.855536 0.866 0.876148 0.88439 0.887544 0.87988 
0.856516 0.805487 0.669745 0.462189 0.310662 0.219126 0.163008 0.126864 0.102029 
0.0841318 0.0708146 0.0606462 0.0526724 0.0461683 0.0406661 0.0345698 0.0261924 0.0381036 
0.76943 0.779476 0.787767 0.7954 0.802499 0.809413 0.816184 0.822566 0.827829 
0.8305 0.827798 0.815112 0.787385 0.732778 0.619747 0.461119 0.336012 0.249163 
0.189496 0.148701 0.119763 0.0985264 0.0825434 0.0702466 0.060572 0.0527436 0.046192 
0.039975 0.0341341 0.0372975 0.740198 0.74978 0.757146 0.763386 0.768597 0.773025 
0.776611 0.779015 0.779457 0.776509 0.767698 0.749252 0.716584 0.660629 0.56602 
0.445446 0.342071 0.262892 0.20497 0.163275 0.132714 0.109838 0.0923904 0.0788452 
0.0681388 0.0595055 0.0524159 0.0463445 0.041584 0.042325 0.710659 0.719766 0.726248 
0.731167 0.734612 0.736733 0.737395 0.736182 0.732292 0.724375 0.710296 0.687057 
0.650983 0.596158 0.516195 0.421463 0.336065 0.266645 0.213219 0.172943 0.142441 
0.119093 0.100998 0.0867968 0.07551 0.0664357 0.0591174 0.0532492 0.0489465 0.0479865 
0.681016 0.689648 0.695306 0.699013 0.700862 0.700936 0.699049 0.694757 0.687285 
0.675428 0.65744 0.631061 0.593673 0.54193 0.473989 0.397595 0.326699 0.266621 
0.218336 0.180449 0.150857 0.127672 0.10939 0.0948634 0.0832388 0.0738969 0.0664455 
0.0606609 0.0564505 0.0545789 0.651488 0.659651 0.664558 0.667191 0.667656 0.665994 
0.662003 0.655255 0.645055 0.630395 0.609932 0.582074 0.545161 0.497622 0.439672 
0.37684 0.317414 0.265429 0.22212 0.18696 0.158709 0.136067 0.117895 0.103266 
0.0914631 0.0819552 0.0744033 0.0686039 0.0643419 0.0621165 0.622294 0.630002 0.634245 
0.635961 0.635277 0.632218 0.626593 0.618025 0.605935 0.589536 0.56786 0.539872 
0.504656 0.461714 0.412033 0.359483 0.30915 0.264016 0.225292 0.192927 0.166251 
0.144408 0.12657 0.112018 0.100169 0.0905787 0.0829553 0.0771027 0.0727612 0.0704087 
0.593654 0.600925 0.604599 0.605565 0.603977 0.599861 0.593061 0.583272 0.570045 
0.552809 0.530916 0.503762 0.470946 0.432551 0.389725 0.345172 0.302133 0.262787 
0.228202 0.198575 0.173595 0.152731 0.135408 0.121088 0.109311 0.0997168 0.09206 
0.0861552 0.0817469 0.0793339 0.565776 0.572634 0.575836 0.57622 0.57397 0.569123 
0.56157 0.551089 0.53736 0.519999 0.498619 0.472921 0.442834 0.408707 0.371607 
0.333437 0.29634 0.261905 0.231032 0.204024 0.180792 0.161035 0.144373 0.130419 
0.118825 0.109305 0.101662 0.0957268 0.0912743 0.088814 0.538852 0.545325 0.54815 
0.548115 0.545427 0.540147 0.532214 0.521487 0.507761 0.490812 0.470441 0.44656 
0.419285 0.38906 0.35679 0.323833 0.291655 0.261423 0.233873 0.209341 0.187864 
0.169301 0.153415 0.139944 0.128634 0.119267 0.111689 0.105756 0.101283 0.0987747 
0.513052 0.51917 0.52171 0.521404 0.518482 0.513027 0.505028 0.494414 0.481079 
0.464919 0.445873 0.423983 0.39946 0.372753 0.344599 0.315985 0.287945 0.261342 
0.236772 0.214561 0.194817 0.1775 0.16248 0.14959 0.138654 0.129514 0.122056 
0.116163 0.111691 0.109132 0.488519 0.494314 0.49665 0.496206 0.493225 0.487813 
0.480001 0.469777 0.457113 0.441994 0.42445 0.4046 0.382691 0.359136 0.334527 
0.309592 0.285081 0.26164 0.239748 0.219704 0.201647 0.185601 0.171511 0.159281 
0.148797 0.139952 0.132667 0.126851 0.122403 0.119791 0.465369 0.470872 0.473077 
0.472606 0.469711 0.464516 0.457085 0.447454 0.435653 0.421726 0.405763 0.38792 
0.368449 0.347712 0.326183 0.304408 0.282943 0.26228 0.242802 0.224773 0.208341 
0.193568 0.180449 0.168938 0.158971 0.15048 0.143417 0.137715 0.133309 0.130643 
0.443687 0.448928 0.451062 0.450654 0.44796 0.443113 0.436205 0.427306 0.416485 
0.403827 0.389453 0.373536 0.356313 0.338097 0.319264 0.300233 0.281426 0.263219 
0.245922 0.229761 0.214882 0.201365 0.189236 0.178486 0.169085 0.160997 0.154197 
0.148641 0.144297 0.141576 0.423527 0.428534 0.430647 0.430373 0.427962 0.423558 
0.417268 0.409185 0.399404 0.388035 0.375212 0.36111 0.345946 0.329983 0.313526 
0.296901 0.280429 0.264408 0.249084 0.234651 0.221245 0.208951 0.197814 0.187848 
0.179047 0.171399 0.164897 0.159515 0.155247 0.152469 0.404916 0.409717 0.411845 
0.411755 0.409686 0.405784 0.400167 0.392941 0.384217 0.374115 0.362775 0.350363 
0.337073 0.323128 0.308775 0.29427 0.279866 0.265796 0.252261 0.239422 0.227403 
0.216287 0.206127 0.196952 0.188771 0.181588 0.17541 0.170222 0.166042 0.163208 
0.387854 0.392473 0.394645 0.394771 0.393079 0.389711 0.384789 0.378427 0.370743 
0.361859 0.351913 0.341059 0.329469 0.317331 0.304847 0.292222 0.279655 0.267333 
0.255419 0.244047 0.233326 0.223333 0.214122 0.20573 0.198175 0.191471 0.185632 
0.180654 0.17657 0.173679 0.37232 0.37678 0.379013 0.379373 0.378072 0.375246 
0.371017 0.365502 0.358816 0.351082 0.342431 0.333002 0.322948 0.312428 0.301607 
0.290653 0.279724 0.26897 0.258523 0.248497 0.238982 0.230049 0.22175 0.214121 
0.207186 0.200963 0.195471 0.190712 0.186728 0.183779 0.358272 0.362592 0.364899 
0.365499 0.364587 0.362294 0.358737 0.354029 0.348285 0.341621 0.334159 0.326027 
0.317355 0.308281 0.298942 0.289474 0.280006 0.270659 0.261541 0.252743 0.244343 
0.236402 0.228967 0.222071 0.215739 0.20999 0.204844 0.200306 0.196423 0.193419 
0.345654 0.349853 0.352237 0.353073 0.352539 0.350755 0.347834 0.343883 0.339013 
0.333332 0.326953 0.31999 0.312558 0.304775 0.296755 0.28861 0.280445 0.272359 
0.264437 0.256757 0.249381 0.24236 0.235735 0.229534 0.22378 0.21849 0.213682 
0.209363 0.205579 0.202521 0.334397 0.33849 0.340952 0.342014 0.341836 0.340528 
0.338197 0.334946 0.330875 0.326087 0.320685 0.314771 0.308447 0.301812 0.294963 
0.287994 0.280989 0.274029 0.267184 0.260515 0.254073 0.247899 0.242025 0.236475 
0.231266 0.226413 0.22193 0.217823 0.214135 0.211024 0.324424 0.328424 0.330962 
0.332234 0.332384 0.331514 0.329723 0.327105 0.323757 0.319773 0.315246 0.310267 
0.304925 0.299308 0.293497 0.287569 0.281594 0.275638 0.269756 0.263997 0.258401 
0.252999 0.247816 0.242868 0.238168 0.233725 0.229549 0.225643 0.222046 0.218886 
0.31565 0.31957 0.322178 0.323641 0.324089 0.323614 0.322308 0.32026 0.317558 
0.314289 0.310537 0.306386 0.301913 0.297193 0.292296 0.287287 0.282223 0.277157 
0.272133 0.267188 0.262353 0.25765 0.253095 0.248699 0.244467 0.240405 0.236514 
0.232796 0.229283 0.226078 0.307989 0.31184 0.314511 0.316145 0.316857 0.316733 
0.315858 0.314313 0.312182 0.309543 0.306474 0.303049 0.299338 0.295405 0.29131 
0.287108 0.282846 0.278565 0.2743 0.270079 0.265923 0.261847 0.257859 0.253963 
0.250159 0.246444 0.242816 0.239272 0.235837 0.232589 0.301352 0.305142 0.307868 
0.309652 0.310596 0.31078 0.310281 0.309177 0.307543 0.305454 0.30298 0.300188 
0.29714 0.293893 0.290498 0.287 0.283438 0.279846 0.276249 0.272667 0.269113 
0.265595 0.262114 0.258667 0.255247 0.251848 0.24846 0.245075 0.24171 0.238424 
0.29565 0.299388 0.30216 0.304073 0.305217 0.305665 0.305491 0.304767 0.303563 
0.301948 0.299988 0.297742 0.295267 0.292612 0.289822 0.286935 0.283982 0.280989 
0.277975 0.274953 0.271929 0.268903 0.265872 0.262825 0.25975 0.256633 0.253461 
0.250219 0.246919 0.243599 0.290795 0.294487 0.297299 0.299319 0.300632 0.301305 
0.301407 0.301005 0.300167 0.298957 0.297435 0.295657 0.293672 0.291525 0.289254 
0.286892 0.284464 0.281989 0.279481 0.276946 0.274384 0.27179 0.269154 0.266461 
0.263691 0.260827 0.257847 0.254735 0.251491 0.248143 0.286702 0.290355 0.293197 
0.295307 0.296759 0.297619 0.297951 0.29782 0.297289 0.29642 0.295267 0.293884 
0.292314 0.290599 0.28877 0.286856 0.284876 0.282846 0.280772 0.278657 0.276496 
0.274278 0.271988 0.269604 0.267104 0.264463 0.261655 0.258658 0.255466 0.252093 
0.28329 0.286909 0.289774 0.291954 0.29352 0.294531 0.295051 0.295142 0.294866 
0.294278 0.293434 0.29238 0.291159 0.289805 0.288349 0.286813 0.285214 0.283561 
0.281859 0.280104 0.278288 0.276395 0.274404 0.272291 0.270027 0.267582 0.264927 
0.262033 0.258888 0.255495 0.280481 0.28407 0.286951 0.289185 0.290838 0.29197 
0.29264 0.29291 0.292839 0.292482 0.291889 0.291107 0.290173 0.289121 0.287975 
0.286756 0.285476 0.284142 0.282754 0.281306 0.279784 0.27817 0.276438 0.274561 
0.272503 0.270231 0.26771 0.264908 0.261806 0.258398 0.278203 0.281765 0.284654 
0.286927 0.288646 0.289868 0.290654 0.291064 0.291155 0.290981 0.290592 0.290029 
0.28933 0.288524 0.287635 0.286677 0.285663 0.284596 0.283472 0.282282 0.281011 
0.279636 0.278128 0.276454 0.274577 0.272458 0.270057 0.267337 0.264275 0.260855 
0.276388 0.279925 0.282816 0.285114 0.286877 0.288164 0.289035 0.289549 0.289764 
0.289733 0.289504 0.289116 0.288605 0.287999 0.287317 0.286575 0.285779 0.284932 
0.284029 0.283057 0.281998 0.280826 0.27951 0.278014 0.276295 0.274311 0.272017 
0.269373 0.266348 0.262921 0.274973 0.278488 0.281375 0.283684 0.285474 0.286802 
0.28773 0.288317 0.288623 0.288698 0.28859 0.288339 0.287976 0.287528 0.287013 
0.286444 0.285828 0.285162 0.284441 0.283651 0.282771 0.281773 0.280624 0.279282 
0.277704 0.27584 0.273644 0.271069 0.26808 0.26465 0.273903 0.277397 0.280274 
0.282582 0.28438 0.285728 0.286688 0.287322 0.287689 0.28784 0.287821 0.287672 
0.287423 0.287098 0.286716 0.286286 0.285813 0.285295 0.284725 0.284086 0.283357 
0.282509 0.281504 0.280299 0.278846 0.277092 0.274986 0.272477 0.269524 0.266095 
0.273129 0.276603 0.279462 0.281758 0.283548 0.284896 0.285867 0.286523 0.286925 
0.287124 0.287168 0.287092 0.286928 0.286698 0.286418 0.286097 0.28574 0.285342 
0.284895 0.284383 0.283782 0.283062 0.282184 0.281102 0.279763 0.278112 0.276092 
0.273646 0.27073 0.267305 0.272607 0.27606 0.278896 0.281168 0.282935 0.284265 
0.285226 0.285883 0.286298 0.286523 0.286605 0.286579 0.286476 0.286316 0.286114 
0.285879 0.285613 0.285311 0.284966 0.28456 0.284068 0.28346 0.282695 0.281725 
0.280493 0.27894 0.277004 0.274622 0.271745 0.268329 0.272302 0.275733 0.278538 
0.280773 0.282503 0.283797 0.28473 0.285369 0.285777 0.286009 0.28611 0.286116 
0.286054 0.285944 0.285801 0.285631 0.285436 0.285212 0.28495 0.284632 0.284235 
0.283727 0.283065 0.282199 0.28107 0.279614 0.277762 0.275448 0.272612 0.269209 
0.272184 0.27559 0.278357 0.280543 0.282218 0.283461 0.284348 0.284951 0.285337 
0.285559 0.285664 0.285684 0.285648 0.285573 0.285472 0.285352 0.285212 0.285051 
0.284857 0.284614 0.2843 0.283881 0.283315 0.28255 0.281524 0.280166 0.278403 
0.276161 0.273373 0.269986 0.27223 0.275608 0.278326 0.280448 0.282054 0.283227 
0.284051 0.284604 0.284953 0.285153 0.285248 0.285272 0.285249 0.285197 0.285126 
0.285042 0.284946 0.284833 0.284696 0.284517 0.284276 0.283939 0.283465 0.282799 
0.281878 0.280624 0.278958 0.276796 0.274063 0.270699 0.272426 0.27577 0.278427 
0.280469 0.281985 0.283071 0.283817 0.284305 0.284604 0.284771 0.284847 0.284866 
0.284848 0.284809 0.284758 0.284701 0.284638 0.284564 0.284473 0.28435 0.284174 
0.283914 0.283529 0.282964 0.282152 0.281012 0.279454 0.277385 0.274718 0.271382 
0.272764 0.276067 0.278646 0.280587 0.281992 0.28297 0.28362 0.284031 0.284271 
0.284397 0.284449 0.284455 0.284435 0.284403 0.284366 0.284328 0.28429 0.284248 
0.284195 0.284119 0.284001 0.283814 0.283516 0.283055 0.282361 0.281346 0.279913 
0.277955 0.275369 0.272072 0.273247 0.276497 0.278975 0.280786 0.282054 0.282902 
0.283441 0.283762 0.283937 0.284017 0.28404 0.284031 0.284006 0.283977 0.283949 
0.283925 0.283904 0.283886 0.283864 0.283828 0.283763 0.283643 0.283432 0.283079 
0.282511 0.28164 0.280354 0.278532 0.276049 0.272803 0.273889 0.277067 0.27941 
0.281054 0.28215 0.282844 0.283256 0.283479 0.283584 0.283617 0.283611 0.283587 
0.283557 0.283528 0.283505 0.283491 0.283484 0.283483 0.283485 0.283482 0.283462 
0.283404 0.283277 0.283034 0.282605 0.281897 0.280789 0.279138 0.276792 0.273617 
0.274719 0.277792 0.279947 0.28137 0.282255 0.282768 0.283041 0.283163 0.2832 
0.28319 0.283159 0.283122 0.283087 0.283059 0.28304 0.283032 0.283033 0.283045 
0.283064 0.283085 0.283101 0.283097 0.283048 0.282914 0.282632 0.282109 0.281218 
0.279791 0.277635 0.274564 0.275807 0.27871 0.280584 0.281706 0.282328 0.282638 
0.282765 0.282792 0.282769 0.282725 0.282677 0.282632 0.282596 0.28257 0.282554 
0.28255 0.282557 0.282575 0.282603 0.282639 0.28268 0.282717 0.282734 0.282701 
0.282569 0.282255 0.281629 0.280505 0.278631 0.275729 0.277291 0.27986 0.281275 
0.28198 0.282287 0.282385 0.282381 0.282334 0.282273 0.282215 0.282164 0.282123 
0.282092 0.282071 0.28206 0.282059 0.282066 0.282084 0.282111 0.282149 0.282197 
0.282253 0.282311 0.282356 0.282358 0.282259 0.28195 0.281244 0.27983 0.277261 
0.279135 0.280965 0.281724 0.281991 0.282047 0.28202 0.281966 0.281909 0.281859 
0.281818 0.281786 0.281763 0.281746 0.281735 0.28173 0.28173 0.281734 0.281744 
0.28176 0.281783 0.281814 0.281854 0.281903 0.28196 0.282013 0.28204 0.281984 
0.281716 0.280958 0.279128 1.06392 1.07721 1.09373 1.11238 1.13316 1.15459 
1.17358 1.18419 1.17669 1.13667 1.04549 0.883729 0.632383 0.305848 0.046837 
329.26 244.296 200.093 187.815 190.219 197.956 206.587 214.29 220.345 
224.304 225.607 222.74 212.636 196.377 124.835 1.03856 1.05174 1.06794 
1.08633 1.10714 1.12931 1.15039 1.16532 1.16532 1.13668 1.06068 0.915425 
0.673849 0.347332 0.0602642 343.993 249.159 203.079 190.401 193.068 201.265 
210.305 218.303 224.569 228.728 230.197 227.261 217.349 197.207 118.861 
1.0127 1.02572 1.04148 1.05941 1.07989 1.10231 1.12481 1.14325 1.14999 
1.1324 1.07237 0.946098 0.719089 0.398667 0.0717467 369.517 256.847 209.103 
196.287 198.87 206.922 215.735 223.476 229.509 233.499 234.796 231.367 
219.938 195.46 122.846 0.986472 0.999274 1.01448 1.03174 1.05158 1.07373 
1.09691 1.11792 1.13033 1.12295 1.07898 0.973419 0.766147 0.462845 0.0946809 
415.125 271.114 221.142 207.27 208.33 214.798 222.192 228.78 233.92 
237.234 237.97 233.867 221.013 193.443 126.778 0.959988 0.972533 0.987083 
1.00349 1.02238 1.04377 1.06688 1.08937 1.1061 1.10759 1.07886 0.994465 
0.811936 0.539329 0.114436 479.686 294.587 242.122 225.112 222.664 225.941 
230.7 235.253 238.857 241.036 240.979 236.447 223.622 196.317 128.779 
0.93338 0.945635 0.959435 0.974848 0.992511 1.01268 1.03499 1.05783 1.07732 
1.08587 1.07067 1.00701 0.856227 0.632827 0.11068 543.454 330.955 276.705 
251.867 242.719 240.763 241.546 243.143 244.549 245.107 243.966 239.142 
227.512 203.231 129.055 0.906761 0.918704 0.931676 0.945971 0.962186 0.980734 
1.00155 1.02366 1.04426 1.05766 1.05352 1.01004 0.899213 0.739105 0.181905 
643.193 397.242 327.558 286.093 266.457 257.395 253.165 251.155 249.894 
248.437 245.844 240.429 229.527 208.206 129.773 0.880169 0.89179 0.903869 
0.91696 0.931552 0.94816 0.966905 0.987244 1.00731 1.02306 1.02676 1.00162 
0.931307 0.822804 0.376415 893.361 488.524 375.392 312.642 283.147 268.272 
260.191 255.503 252.291 249.349 245.662 239.754 227.942 209.774 142.588 
0.485559 0.490131 0.492183 0.491771 0.488971 0.483864 0.476537 0.467098 0.455666 
0.442373 0.427365 0.410799 0.392844 0.373676 0.353484 0.332462 0.310815 0.288755 
0.266502 0.244288 0.222355 0.200964 0.180392 0.160942 0.142944 0.12676 0.112781 
0.101411 0.0930595 0.0880829 0.496482 0.500996 0.502914 0.502279 0.499157 0.49363 
0.485794 0.475759 0.463652 0.449616 0.433803 0.416381 0.397528 0.377432 0.356291 
0.334311 0.311705 0.288695 0.265511 0.24239 0.219581 0.19735 0.175977 0.155769 
0.137064 0.12023 0.105677 0.0938348 0.0851398 0.0799794 0.503927 0.50845 0.510299 
0.509521 0.506184 0.500372 0.492183 0.481736 0.469162 0.454608 0.438235 0.420219 
0.400744 0.380007 0.358213 0.335575 0.312316 0.288662 0.26485 0.241121 0.21773 
0.194942 0.173041 0.152334 0.133161 0.115898 0.100963 0.0888071 0.0798921 0.0746414 
0.512933 0.517475 0.51925 0.518305 0.514711 0.508554 0.49994 0.488991 0.475847 
0.460663 0.443608 0.424865 0.404631 0.383111 0.360521 0.337083 0.313029 0.288595 
0.264025 0.239568 0.215482 0.192037 0.16952 0.148239 0.128536 0.11079 0.0954306 
0.082927 0.0737726 0.0684318 0.522169 0.526729 0.528424 0.527303 0.523439 0.516923 
0.507866 0.496396 0.482661 0.466824 0.449063 0.429573 0.408558 0.386235 0.36283 
0.338578 0.313719 0.288499 0.26317 0.237989 0.213221 0.189138 0.166029 0.144203 
0.124001 0.105806 0.0900506 0.0772214 0.0678399 0.0624126 0.531922 0.536502 0.538113 
0.536804 0.532652 0.525754 0.516225 0.504201 0.489837 0.473306 0.454796 0.434512 
0.41267 0.389498 0.365234 0.340124 0.31442 0.28838 0.262263 0.236337 0.21087 
0.186141 0.16244 0.140077 0.11939 0.10076 0.0846249 0.0714815 0.0618784 0.056366 
0.542108 0.546708 0.548229 0.546722 0.542266 0.534964 0.524937 0.51233 0.497304 
0.480044 0.460748 0.439632 0.416924 0.392865 0.367706 0.341706 0.315127 0.288241 
0.261317 0.234632 0.208461 0.183089 0.158807 0.135923 0.114774 0.0957358 0.0792449 
0.0658064 0.0559919 0.0503968 0.552753 0.557374 0.558799 0.557082 0.552307 0.544579 
0.534028 0.520806 0.505085 0.487058 0.466937 0.444948 0.421334 0.396349 0.370256 
0.343329 0.315844 0.288084 0.260332 0.232872 0.205991 0.179976 0.155123 0.131737 
0.11015 0.0907331 0.0739157 0.0602054 0.0501927 0.0445185 0.56387 0.568512 0.569837 
0.567899 0.562785 0.554609 0.543507 0.529639 0.513187 0.494356 0.473369 0.450467 
0.425906 0.399953 0.372888 0.344997 0.316573 0.287911 0.259308 0.231059 0.20346 
0.176805 0.151391 0.127524 0.105529 0.085767 0.0686587 0.0547067 0.0445143 0.0387663 
0.575489 0.580153 0.58137 0.579198 0.573729 0.565081 0.553399 0.538851 0.521631 
0.501956 0.480062 0.456203 0.43065 0.403687 0.375608 0.346715 0.317317 0.287723 
0.258245 0.22919 0.200864 0.17357 0.147607 0.123281 0.10091 0.0808439 0.0634874 
0.0493318 0.0389845 0.0331709 0.587643 0.592329 0.593434 0.591015 0.585171 0.576026 
0.563732 0.54847 0.530444 0.509882 0.487036 0.462174 0.435584 0.407564 0.378426 
0.34849 0.318079 0.287522 0.257142 0.227262 0.1982 0.170266 0.143766 0.119005 
0.0962936 0.0759683 0.0584145 0.0441033 0.0336346 0.0277676 0.600376 0.605086 0.60607 
0.603391 0.597151 0.587481 0.574545 0.55853 0.539656 0.518163 0.494317 0.468403 
0.440725 0.4116 0.381356 0.350332 0.318868 0.28731 0.256 0.225274 0.195463 
0.166888 0.139862 0.114689 0.0916757 0.0711423 0.0534509 0.0390435 0.0284986 0.0225964 
0.613738 0.618471 0.619328 0.616374 0.609716 0.599494 0.585879 0.569073 0.549305 
0.526833 0.501937 0.474919 0.4461 0.415817 0.384416 0.352255 0.319694 0.287096 
0.254822 0.223226 0.192651 0.163432 0.135888 0.110327 0.0870511 0.0663654 0.0486053 
0.0341752 0.0236145 0.0177043 0.627783 0.63254 0.633263 0.630017 0.622918 0.612113 
0.597784 0.580144 0.559436 0.535934 0.509934 0.481756 0.45174 0.420242 0.38763 
0.354279 0.320573 0.286894 0.25362 0.221124 0.189767 0.159895 0.13184 0.105914 
0.0824147 0.0616358 0.0438845 0.0295204 0.0190249 0.0131485 0.642571 0.647354 0.647933 
0.64438 0.636815 0.625396 0.610314 0.591795 0.570099 0.545513 0.518353 0.488956 
0.457684 0.424912 0.39103 0.356435 0.321532 0.286724 0.25241 0.218984 0.186822 
0.156289 0.127725 0.101452 0.077768 0.056956 0.0392978 0.0251053 0.014783 0.00900665 
0.658163 0.662971 0.6634 0.659522 0.651466 0.639399 0.623525 0.604083 0.581347 
0.555623 0.527244 0.496568 0.463978 0.42987 0.394657 0.35876 0.322605 0.286619 
0.251224 0.216831 0.18384 0.15263 0.123557 0.0969509 0.0731156 0.0523284 0.034851 
0.0209511 0.0109463 0.00538483 0.674616 0.679451 0.67972 0.6755 0.666928 0.654181 
0.637474 0.617062 0.593236 0.566317 0.53666 0.504644 0.470673 0.435167 0.398562 
0.361304 0.323844 0.286631 0.25011 0.214717 0.180869 0.148965 0.119377 0.0924462 