# vtk DataFile Version 5.1
vtk output
ASCII
DATASET UNSTRUCTURED_GRID
POINTS 4929 double
0.1016 1.5 0.27799999714 0.1016 1.45 0.27799999714 0.1016 1.4 0.27700001001 
0.1016 1.35 0.27399998903 0.1016 1.3 0.27399998903 0.1016 1.25 0.27300000191 
0.1016 1.2 0.27200001478 0.1016 1.15 0.27099999785 0.1016 1.1 0.25 
0.1016 1.05 0.2349999994 0.1016 1 0.23299999535 0.1016 0.95 0.22200000286 
0.1016 0.9 0.19799999893 0.1016 0.85 0.18400000036 0.1016 0.8 0.18500000238 
0.1016 0.75 0.2045122683 0.1016 0.7 0.21481634676 0.1016 0.65 0.22511811554 
0.1016 0.6 0.24067126215 0.1016 0.55 0.25612765551 0.1016 0.5 0.26262491941 
0.1016 0.45 0.26525467634 0.1016 0.4 0.26647254825 0.1016 0.35 0.26672193408 
0.1016 0.3 0.26778841019 0.1016 0.25 0.27249374986 0.1016 0.2 0.28212246299 
0.1016 0.15 0.28919026256 0.1016 0.1 0.29249885678 0.1016 0.05 0.2947755754 
0.1016 0 0.29728108644 5.08 1.5 0.28700000048 5.08 1.45 0.28700000048 
5.08 1.4 0.28700000048 5.08 1.35 0.28700000048 5.08 1.3 0.28700000048 
5.08 1.25 0.28700000048 5.08 1.2 0.28700000048 5.08 1.15 0.28700000048 
5.08 1.1 0.28700000048 5.08 1.05 0.28700000048 5.08 1 0.28700000048 
5.08 0.95 0.28700000048 5.08 0.9 0.28700000048 5.08 0.85 0.28700000048 
5.08 0.8 0.28700000048 5.08 0.75 0.28700000048 5.08 0.7 0.28700000048 
5.08 0.65 0.28700000048 5.08 0.6 0.28700000048 5.08 0.55 0.28700000048 
5.08 0.5 0.28700000048 5.08 0.45 0.28700000048 5.08 0.4 0.28700000048 
5.08 0.35 0.28700000048 5.08 0.3 0.28700000048 5.08 0.25 0.28700000048 
5.08 0.2 0.28700000048 5.08 0.15 0.28700000048 5.08 0.1 0.28700000048 
5.08 0.05 0.28700000048 5.08 0 0.28700000048 0.12737462728 1.5 0.27801474929 
0.12737462728 1.45 0.27898526192 0.12737462728 1.4 0.27897050977 0.12737462728 1.35 0.27500000596 
0.12737462728 1.3 0.27498525381 0.12737462728 1.25 0.27398523688 0.12737462728 1.2 0.27298524976 
0.12737462728 1.15 0.27297049761 0.12737462728 1.1 0.26198524237 0.12737462728 1.05 0.23895575106 
0.12737462728 1 0.2289557606 0.12737462728 0.95 0.22805899382 0.12737462728 0.9 0.20811799169 
0.12737462728 0.85 0.19011798501 0.12737462728 0.8 0.1780589968 0.12737462728 0.75 0.20154264569 
0.12737462728 0.7 0.21199989319 0.12737462728 0.65 0.22436758876 0.12737462728 0.6 0.24224902689 
0.12737462728 0.55 0.26024734974 0.12737462728 0.5 0.26429289579 0.12737462728 0.45 0.26648533344 
0.12737462728 0.4 0.26795491576 0.12737462728 0.35 0.26830780506 0.12737462728 0.3 0.26907774806 
0.12737462728 0.25 0.27257058024 0.12737462728 0.2 0.28277847171 0.12737462728 0.15 0.28806254268 
0.12737462728 0.1 0.28930640221 0.12737462728 0.05 0.29057556391 0.12737462728 0 0.2923451364 
0.15441581276 1.5 0.27900001407 0.15441581276 1.45 0.27799999714 0.15441581276 1.4 0.27700001001 
0.15441581276 1.35 0.27492064238 0.15441581276 1.3 0.27392062545 0.15441581276 1.25 0.27292063832 
0.15441581276 1.2 0.27200001478 0.15441581276 1.15 0.27099999785 0.15441581276 1.1 0.26171427965 
0.15441581276 1.05 0.23703171313 0.15441581276 1 0.22607935965 0.15441581276 0.95 0.23144444823 
0.15441581276 0.9 0.21671426296 0.15441581276 0.85 0.19950789213 0.15441581276 0.8 0.18334916234 
0.15441581276 0.75 0.20755554736 0.15441581276 0.7 0.2158729881 0.15441581276 0.65 0.23111107945 
0.15441581276 0.6 0.24895234406 0.15441581276 0.55 0.26623809338 0.15441581276 0.5 0.26615872979 
0.15441581276 0.45 0.26807937026 0.15441581276 0.4 0.2701587379 0.15441581276 0.35 0.27123808861 
0.15441581276 0.3 0.27231746912 0.15441581276 0.25 0.27439680696 0.15441581276 0.2 0.28276190162 
0.15441581276 0.15 0.28568255901 0.15441581276 0.1 0.28568255901 0.15441581276 0.05 0.28792062402 
0.15441581276 0 0.28884127736 0.18278579477 1.5 0.27919629216 0.18278579477 1.45 0.27819630504 
0.18278579477 1.4 0.27680370212 0.18278579477 1.35 0.27439257503 0.18278579477 1.3 0.27300000191 
0.18278579477 1.25 0.27200001478 0.18278579477 1.2 0.27180370688 0.18278579477 1.15 0.27080371976 
0.18278579477 1.1 0.27000001073 0.18278579477 1.05 0.25155177712 0.18278579477 1 0.22994436324 
0.18278579477 0.95 0.22637403011 0.18278579477 0.9 0.22657032311 0.18278579477 0.85 0.21935549378 
0.18278579477 0.8 0.20390728116 0.18278579477 0.75 0.21694436669 0.18278579477 0.7 0.22796291113 
0.18278579477 0.65 0.24655178189 0.18278579477 0.6 0.26137402654 0.18278579477 0.55 0.26860740781 
0.18278579477 0.5 0.26780369878 0.18278579477 0.45 0.26880371571 0.18278579477 0.4 0.27180370688 
0.18278579477 0.35 0.27301853895 0.18278579477 0.3 0.27580371499 0.18278579477 0.25 0.27841114998 
0.18278579477 0.2 0.27921482921 0.18278579477 0.15 0.28121483326 0.18278579477 0.1 0.28121483326 
0.18278579477 0.05 0.28523337841 0.18278579477 0 0.28523337841 0.21254987001 1.5 0.27963191271 
0.21254987001 1.45 0.27863189578 0.21254987001 1.4 0.27636811137 0.21254987001 1.35 0.27526378632 
0.21254987001 1.3 0.27300000191 0.21254987001 1.25 0.2716318965 0.21254987001 1.2 0.27063190937 
0.21254987001 1.15 0.27000001073 0.21254987001 1.1 0.26963189244 0.21254987001 1.05 0.26457673311 
0.21254987001 1 0.24604915082 0.21254987001 0.95 0.23641726375 0.21254987001 0.9 0.23631294072 
0.21254987001 0.85 0.23415347934 0.21254987001 0.8 0.23099400103 0.21254987001 0.75 0.23415347934 
0.21254987001 0.7 0.24262589216 0.21254987001 0.65 0.25957673788 0.21254987001 0.6 0.26626378298 
0.21254987001 0.55 0.26626378298 0.21254987001 0.5 0.26663190126 0.21254987001 0.45 0.26726379991 
0.21254987001 0.4 0.2698956728 0.21254987001 0.35 0.26863190532 0.21254987001 0.3 0.2738956809 
0.21254987001 0.25 0.2756319046 0.21254987001 0.2 0.27599999309 0.21254987001 0.15 0.2765275836 
0.21254987001 0.1 0.27726379037 0.21254987001 0.05 0.27799999714 0.21254987001 0 0.27799999714 
0.24377654385 1.5 0.27959752083 0.24377654385 1.45 0.2785975039 0.24377654385 1.4 0.27700001001 
0.24377654385 1.35 0.27459749579 0.24377654385 1.3 0.27240249515 0.24377654385 1.25 0.27099999785 
0.24377654385 1.2 0.27000001073 0.24377654385 1.15 0.27000001073 0.24377654385 1.1 0.2689999938 
0.24377654385 1.05 0.26840248704 0.24377654385 1 0.26315754652 0.24377654385 0.95 0.25057250261 
0.24377654385 0.9 0.24917002022 0.24377654385 0.85 0.25017002225 0.24377654385 0.8 0.25017002225 
0.24377654385 0.75 0.25017002225 0.24377654385 0.7 0.25758501887 0.24377654385 0.65 0.26459750533 
0.24377654385 0.6 0.26559749246 0.24377654385 0.55 0.26559749246 0.24377654385 0.5 0.26600000262 
0.24377654385 0.45 0.26600000262 0.24377654385 0.4 0.26680499315 0.24377654385 0.35 0.26740249991 
0.24377654385 0.3 0.27080500126 0.24377654385 0.25 0.2744024992 0.24377654385 0.2 0.2742075026 
0.24377654385 0.15 0.27280500531 0.24377654385 0.1 0.27480497956 0.24377654385 0.05 0.27799999714 
0.24377654385 0 0.27740249038 0.27653768798 1.5 0.27951970696 0.27653768798 1.45 0.27766144276 
0.27653768798 1.4 0.27632516623 0.27653768798 1.35 0.27434617281 0.27653768798 1.3 0.27151226997 
0.27653768798 1.25 0.27057635784 0.27653768798 1.2 0.27017450333 0.27653768798 1.15 0.26976296306 
0.27653768798 1.1 0.26917654276 0.27653768798 1.05 0.26909166574 0.27653768798 1 0.27230325341 
0.27653768798 0.95 0.26372772455 0.27653768798 0.9 0.26188760996 0.27653768798 0.85 0.26249715686 
0.27653768798 0.8 0.26325139403 0.27653768798 0.75 0.26280260086 0.27653768798 0.7 0.26412513852 
0.27653768798 0.65 0.26631101966 0.27653768798 0.6 0.26695275307 0.27653768798 0.55 0.26654168963 
0.27653768798 0.5 0.2661152482 0.27653768798 0.45 0.26604652405 0.27653768798 0.4 0.26536557078 
0.27653768798 0.35 0.26594156027 0.27653768798 0.3 0.26814585924 0.27653768798 0.25 0.27168768644 
0.27653768798 0.2 0.27182483673 0.27653768798 0.15 0.27171477675 0.27653768798 0.1 0.27376148105 
0.27653768798 0.05 0.27669000626 0.27653768798 0 0.27560165524 0.31090870586 1.5 0.27759221196 
0.31090870586 1.45 0.2746937871 0.31090870586 1.4 0.27470353246 0.31090870586 1.35 0.27285271883 
0.31090870586 1.3 0.2709813416 0.31090870586 1.25 0.26998981833 0.31090870586 1.2 0.26973265409 
0.31090870586 1.15 0.2687163353 0.31090870586 1.1 0.26859664917 0.31090870586 1.05 0.26857084036 
0.31090870586 1 0.26943641901 0.31090870586 0.95 0.27017256618 0.31090870586 0.9 0.26825106144 
0.31090870586 0.85 0.26820024848 0.31090870586 0.8 0.27020555735 0.31090870586 0.75 0.26922234893 
0.31090870586 0.7 0.26827013493 0.31090870586 0.65 0.26820924878 0.31090870586 0.6 0.26819002628 
0.31090870586 0.55 0.2671585083 0.31090870586 0.5 0.26589542627 0.31090870586 0.45 0.26586210728 
0.31090870586 0.4 0.26498618722 0.31090870586 0.35 0.26495212317 0.31090870586 0.3 0.26581701636 
0.31090870586 0.25 0.26868098974 0.31090870586 0.2 0.27072575688 0.31090870586 0.15 0.27200964093 
0.31090870586 0.1 0.27401563525 0.31090870586 0.05 0.27484494448 0.31090870586 0 0.27204614878 
0.34696870625 1.5 0.2754432559 0.34696870625 1.45 0.27324694395 0.34696870625 1.4 0.27326071262 
0.34696870625 1.35 0.27213171124 0.34696870625 1.3 0.2709736526 0.34696870625 1.25 0.26998561621 
0.34696870625 1.2 0.2683018744 0.34696870625 1.15 0.26727882028 0.34696870625 1.1 0.26644951105 
0.34696870625 1.05 0.26641306281 0.34696870625 1 0.26656296849 0.34696870625 0.95 0.27024382353 
0.34696870625 0.9 0.26835471392 0.34696870625 0.85 0.26828294992 0.34696870625 0.8 0.27029043436 
0.34696870625 0.75 0.26931416988 0.34696870625 0.7 0.26904186606 0.34696870625 0.65 0.26895585656 
0.34696870625 0.6 0.26892867684 0.34696870625 0.55 0.26788416505 0.34696870625 0.5 0.26519203186 
0.34696870625 0.45 0.26514497399 0.34696870625 0.4 0.26498046517 0.34696870625 0.35 0.26493236423 
0.34696870625 0.3 0.26508125663 0.34696870625 0.25 0.26722890139 0.34696870625 0.2 0.26929214597 
0.34696870625 0.15 0.27201363444 0.34696870625 0.1 0.27402210236 0.34696870625 0.05 0.27478089929 
0.34696870625 0 0.26769113541 0.3848006853 1.5 0.27419897914 0.3848006853 1.45 0.27287328243 
0.3848006853 1.4 0.27231770754 0.3848006853 1.35 0.27142840624 0.3848006853 1.3 0.27101910114 
0.3848006853 1.25 0.26946938038 0.3848006853 1.2 0.26847136021 0.3848006853 1.15 0.26746708155 
[...]
CELL_DATA 4740
FIELD FieldData 7
B_Stress_n_p_m2 1 4740 float
0.279704 0.283216 0.28537 0.28711 0.2894 0.29099 0.292903 0.293734 0.284125 
0.278704 0.279226 0.271948 0.254541 0.230844 0.206036 0.139159 0.0969312 0.0764931 
0.0653501 0.056872 0.0501851 0.0452049 0.0414968 0.0386682 0.0364894 0.0348789 0.0333364 
0.0316765 0.0302489 0.0289903 0.27236 0.275437 0.277915 0.27928 0.281011 0.282215 
0.282763 0.282789 0.275888 0.266525 0.263628 0.260698 0.247224 0.227432 0.203766 
0.153869 0.114638 0.092282 0.0776046 0.0658012 0.0563648 0.0495019 0.0443492 0.0404345 
0.0373469 0.0347836 0.0325859 0.0304708 0.0288092 0.0275083 0.265519 0.267712 0.269672 
0.271061 0.272047 0.272803 0.273035 0.273259 0.269665 0.25871 0.25113 0.24858 
0.239273 0.223812 0.200761 0.162473 0.128694 0.105911 0.0884257 0.0742777 0.0630534 
0.0550406 0.0489279 0.0443525 0.0406513 0.0373628 0.0345776 0.0321902 0.0303418 0.0290521 
0.258492 0.260486 0.262088 0.263068 0.263443 0.263526 0.26355 0.263078 0.26341 
0.257399 0.246542 0.239325 0.232218 0.220479 0.199337 0.167718 0.138459 0.115447 
0.0961881 0.0804783 0.0686083 0.0598714 0.0532036 0.0481244 0.0440902 0.0404833 0.0372067 
0.0347253 0.0327999 0.0315595 0.250898 0.253106 0.254174 0.254876 0.254908 0.254727 
0.254293 0.25343 0.253317 0.253155 0.24493 0.235701 0.227006 0.215227 0.197086 
0.169614 0.143064 0.120334 0.100611 0.0847503 0.0729247 0.0638082 0.0568473 0.0513386 
0.04713 0.0433129 0.0399575 0.0374306 0.0356232 0.0344099 0.242176 0.244654 0.245919 
0.246165 0.246103 0.245912 0.24517 0.244177 0.243048 0.2431 0.240015 0.231222 
0.221402 0.209169 0.191902 0.167798 0.144022 0.122147 0.103363 0.0883784 0.0767653 
0.0675281 0.0602987 0.0546549 0.0501407 0.046326 0.0430447 0.0404901 0.0386583 0.0375246 
0.232672 0.235358 0.2369 0.237471 0.237284 0.236791 0.235754 0.234216 0.232446 
0.230497 0.229136 0.222332 0.21269 0.200427 0.184173 0.163571 0.14232 0.122583 
0.105566 0.0914869 0.0802255 0.0711604 0.0638471 0.0580568 0.0533636 0.0495538 0.046417 
0.0439598 0.0420185 0.0406627 0.223506 0.226213 0.228089 0.228886 0.228792 0.227873 
0.226355 0.224198 0.22183 0.219028 0.215626 0.210282 0.201276 0.189604 0.175075 
0.157659 0.139526 0.122328 0.107082 0.0940318 0.0833295 0.0746273 0.0674609 0.0616289 
0.0568599 0.0530573 0.0500536 0.047706 0.0458034 0.0443112 0.215298 0.218149 0.219875 
0.220756 0.220609 0.219749 0.217879 0.215536 0.212603 0.209386 0.204509 0.198829 
0.190417 0.179733 0.166734 0.151729 0.136398 0.121509 0.107971 0.096213 0.0862209 
0.077964 0.071067 0.0653483 0.0606509 0.0569347 0.05396 0.0516726 0.0498529 0.0486821 
0.207845 0.210862 0.212393 0.213136 0.21291 0.212001 0.210323 0.207958 0.204867 
0.201041 0.196035 0.189692 0.181774 0.172083 0.160269 0.146999 0.133673 0.120666 
0.108665 0.0981575 0.0890405 0.0812884 0.0747519 0.0692779 0.0647732 0.0611351 0.0582722 
0.055927 0.0540126 0.0529546 0.200443 0.203669 0.205183 0.205845 0.20547 0.204288 
0.202745 0.200493 0.197489 0.192988 0.188025 0.181593 0.174207 0.165148 0.154477 
0.142858 0.131112 0.119785 0.109231 0.0998138 0.0916002 0.0844692 0.0784607 0.073335 
0.0690226 0.0655064 0.0627702 0.0604238 0.0584073 0.0571506 0.193336 0.196259 0.197367 
0.197692 0.197125 0.195594 0.193768 0.191406 0.188297 0.183646 0.178184 0.171941 
0.164955 0.156624 0.147334 0.137503 0.127488 0.117887 0.108781 0.100434 0.0931042 
0.0867161 0.0813192 0.0766839 0.0726182 0.069273 0.0666462 0.0645985 0.0628857 0.0616425 
0.189646 0.191096 0.190973 0.190505 0.189661 0.187894 0.185548 0.18266 0.178914 
0.174607 0.169012 0.163115 0.156267 0.149056 0.141144 0.132788 0.124623 0.116577 
0.108794 0.101448 0.0947969 0.0890374 0.0840099 0.0798346 0.0761024 0.0728627 0.0702704 
0.0685695 0.0673423 0.0663999 0.190876 0.190359 0.189816 0.189238 0.18832 0.186787 
0.184492 0.181473 0.177577 0.173198 0.168324 0.162759 0.156463 0.149761 0.142737 
0.135352 0.128028 0.120881 0.11395 0.107215 0.100962 0.0954018 0.0904249 0.0861363 
0.0824417 0.0791997 0.0763994 0.0743577 0.073101 0.0723942 0.190013 0.189624 0.190652 
0.190758 0.190398 0.189359 0.187597 0.185082 0.181891 0.177876 0.173536 0.168487 
0.162739 0.156375 0.14974 0.142958 0.135871 0.129071 0.1224 0.116109 0.110109 
0.10466 0.0997177 0.0951018 0.0911884 0.0877025 0.0847077 0.0820768 0.0802066 0.0793785 
0.183455 0.185513 0.186996 0.187709 0.187579 0.186794 0.185341 0.183209 0.180461 
0.177158 0.173159 0.168521 0.163382 0.157746 0.151669 0.145411 0.139153 0.132817 
0.126633 0.120769 0.11535 0.11027 0.105547 0.101233 0.0972854 0.0938115 0.0908167 
0.0882769 0.0861891 0.0850832 0.177889 0.179851 0.181083 0.181643 0.181514 0.180758 
0.179388 0.177415 0.174875 0.171805 0.168176 0.164033 0.159453 0.154487 0.149205 
0.143748 0.13824 0.132718 0.127308 0.122115 0.117221 0.112623 0.10834 0.104407 
0.100819 0.0976244 0.0948425 0.0924819 0.0905781 0.0894345 0.172849 0.17468 0.175812 
0.17632 0.176222 0.175543 0.174304 0.172523 0.170229 0.167451 0.164206 0.160532 
0.156484 0.152119 0.147508 0.142741 0.137905 0.133068 0.128312 0.123712 0.119324 
0.115177 0.111298 0.10771 0.104432 0.101487 0.0988988 0.0966819 0.0948761 0.0936413 
0.168066 0.169848 0.17096 0.171479 0.171439 0.170864 0.169778 0.168204 0.16617 
0.163703 0.160834 0.157599 0.154046 0.150227 0.146203 0.142042 0.137812 0.133575 
0.129394 0.125326 0.121416 0.117699 0.1142 0.110943 0.107947 0.105234 0.102823 
0.10073 0.0989869 0.0977052 0.163607 0.165349 0.166457 0.167007 0.16704 0.166581 
0.165657 0.164293 0.162516 0.160356 0.157845 0.15502 0.151922 0.148598 0.1451 
0.141481 0.137797 0.134097 0.130434 0.126851 0.123387 0.120072 0.116933 0.11399 
0.111262 0.108767 0.106523 0.104543 0.102855 0.101549 0.159504 0.161207 0.162322 
0.162916 0.163032 0.162697 0.161938 0.160781 0.159256 0.15739 0.155217 0.15277 
0.150089 0.147213 0.144186 0.141052 0.137855 0.134638 0.131439 0.128297 0.125242 
0.122301 0.119496 0.116847 0.114369 0.112078 0.10999 0.108114 0.106476 0.105153 
0.155759 0.157429 0.158556 0.1592 0.159404 0.159195 0.1586 0.157646 0.15636 
0.154772 0.152912 0.150814 0.148511 0.146039 0.143433 0.140732 0.137971 0.135185 
0.132405 0.12966 0.126978 0.124379 0.121882 0.119504 0.117258 0.115156 0.113211 
0.111432 0.109841 0.108502 0.15237 0.154011 0.155153 0.155851 0.156143 0.156058 
0.15562 0.154858 0.153797 0.152467 0.150896 0.149115 0.147153 0.145043 0.142815 
0.140499 0.138127 0.135725 0.133319 0.130933 0.128587 0.126299 0.124084 0.121954 
0.11992 0.117992 0.116179 0.114489 0.112941 0.111586 0.149329 0.150944 0.152103 
0.152853 0.153232 0.153264 0.152975 0.152391 0.151539 0.150445 0.149136 0.147641 
0.145986 0.144199 0.142306 0.140334 0.138307 0.136247 0.134175 0.132109 0.130065 
0.128057 0.126097 0.124192 0.122352 0.120582 0.11889 0.117281 0.115771 0.114402 
0.146624 0.148216 0.149392 0.150192 0.150651 0.150792 0.150641 0.150221 0.149559 
0.148678 0.147606 0.146366 0.144984 0.143484 0.141889 0.140221 0.138499 0.136741 
0.134965 0.133184 0.13141 0.129653 0.127921 0.126219 0.124553 0.122927 0.121344 
0.119808 0.118332 0.11695 0.144238 0.14581 0.147002 0.147849 0.148381 0.148622 
0.148595 0.148323 0.147831 0.147141 0.146279 0.145266 0.144126 0.142879 0.141546 
0.140144 0.138691 0.137201 0.135686 0.134157 0.132622 0.131087 0.129558 0.128038 
0.126528 0.12503 0.123545 0.122075 0.12063 0.119235 0.142153 0.143708 0.144914 
0.145802 0.146401 0.146731 0.146814 0.146674 0.146332 0.145811 0.145133 0.14432 
0.143391 0.142366 0.141262 0.140094 0.138876 0.137619 0.136333 0.135025 0.133701 
0.132363 0.131014 0.129655 0.128283 0.1269 0.125502 0.124091 0.122674 0.121268 
0.140349 0.141889 0.143107 0.144032 0.144688 0.145096 0.145276 0.14525 0.145039 
0.144665 0.144148 0.143507 0.142763 0.14193 0.141024 0.140059 0.139046 0.137992 
0.136906 0.135791 0.134651 0.133486 0.132296 0.131078 0.129829 0.128547 0.127227 
0.125868 0.124475 0.123059 0.138804 0.14033 0.14156 0.142516 0.143221 0.143695 
0.143958 0.14403 0.143932 0.143683 0.143304 0.142813 0.142226 0.141558 0.140824 
0.140033 0.139196 0.138318 0.137405 0.136458 0.135478 0.134464 0.133412 0.132318 
0.131177 0.129984 0.128733 0.127421 0.126048 0.124624 0.137497 0.139011 0.140248 
0.14123 0.141976 0.142506 0.142839 0.142993 0.14299 0.142847 0.142585 0.14222 
0.141767 0.14124 0.140651 0.14001 0.139324 0.138597 0.137832 0.13703 0.136189 
0.135305 0.134373 0.133388 0.132342 0.131227 0.130037 0.128765 0.127412 0.125981 
0.136404 0.137907 0.139151 0.140153 0.140932 0.141507 0.141897 0.142119 0.142194 
0.14214 0.141975 0.141714 0.141374 0.140965 0.1405 0.139985 0.139426 0.138828 
0.13819 0.137512 0.13679 0.136019 0.135192 0.134302 0.133338 0.132292 0.131155 
0.12992 0.128584 0.127147 0.135503 0.136998 0.138245 0.139262 0.140067 0.140678 
0.141112 0.141389 0.141527 0.141544 0.141458 0.141284 0.141037 0.140726 0.140363 
0.139954 0.139503 0.139013 0.138483 0.137911 0.137292 0.136618 0.135882 0.135073 
0.134182 0.133196 0.132107 0.130904 0.129583 0.128143 0.134775 0.13626 0.137509 
0.138537 0.139361 0.139997 0.140466 0.140784 0.140971 0.141045 0.141022 0.140918 
0.140745 0.140516 0.140237 0.139915 0.139555 0.139156 0.138717 0.138234 0.137702 
0.137113 0.136455 0.135718 0.13489 0.133958 0.132911 0.131737 0.13043 0.128987 
0.134197 0.135675 0.136923 0.137957 0.138793 0.139447 0.139939 0.140288 0.140511 
0.140628 0.140654 0.140605 0.140492 0.140327 0.140117 0.139867 0.139581 0.139257 
0.138895 0.138489 0.138032 0.137514 0.136925 0.136251 0.135479 0.134595 0.133585 
0.132438 0.131145 0.1297 0.133752 0.135223 0.136469 0.137504 0.138345 0.139009 
0.139516 0.139884 0.140133 0.140281 0.140343 0.140335 0.140269 0.140154 0.139999 
0.139808 0.139582 0.139322 0.139024 0.138682 0.138289 0.137834 0.137304 0.136686 
0.135964 0.135124 0.134149 0.133027 0.131747 0.130302 0.133423 0.134886 0.136127 
0.13716 0.138001 0.138668 0.139181 0.13956 0.139823 0.139991 0.140078 0.1401 
0.140069 0.139993 0.139881 0.139736 0.13956 0.139352 0.139108 0.138821 0.138483 
0.138083 0.137606 0.137038 0.136362 0.135561 0.134619 0.133521 0.132254 0.13081 
0.133193 0.13465 0.135884 0.13691 0.137745 0.138408 0.138919 0.1393 0.139569 
0.139747 0.13985 0.139892 0.139886 0.139839 0.13976 0.139652 0.139516 0.139351 
0.139152 0.138912 0.138622 0.13827 0.137841 0.137319 0.136686 0.135923 0.135012 
0.133937 0.132684 0.131243 0.133051 0.1345 0.135725 0.13674 0.137563 0.138216 
0.138718 0.139093 0.139361 0.139541 0.13965 0.139704 0.139714 0.139689 0.139634 
0.139555 0.139451 0.139321 0.13916 0.138961 0.138713 0.138405 0.13802 0.137541 
0.136949 0.136223 0.135344 0.134293 0.133054 0.131616 0.132985 0.134426 0.135638 
0.136638 0.137445 0.13808 0.138567 0.138928 0.139186 0.139362 0.139471 0.13953 
0.139549 0.139537 0.139501 0.139444 0.139365 0.139264 0.139136 0.138972 0.138763 
0.138495 0.138152 0.137715 0.137163 0.136475 0.135628 0.134602 0.133379 0.131946 
0.132986 0.134418 0.135615 0.136595 0.137379 0.13799 0.138454 0.138795 0.139038 
0.139202 0.139305 0.139362 0.139385 0.139382 0.139358 0.139317 0.13926 0.139183 
0.139082 0.13895 0.138776 0.138546 0.138243 0.137848 0.137338 0.136689 0.135877 
0.134878 0.133673 0.132247 0.133048 0.13447 0.135649 0.136603 0.137357 0.137937 
0.138371 0.138686 0.138906 0.139054 0.139145 0.139197 0.139219 0.13922 0.139204 
0.139176 0.139134 0.139078 0.139002 0.138898 0.138757 0.138564 0.138301 0.137949 
0.137482 0.136876 0.136102 0.135134 0.13395 0.132533 0.133168 0.134577 0.135732 
0.136655 0.137372 0.137913 0.13831 0.138592 0.138785 0.13891 0.138987 0.139029 
0.139046 0.139048 0.139037 0.139018 0.13899 0.13895 0.138896 0.138818 0.138708 
0.138551 0.13833 0.138022 0.137603 0.137043 0.136313 0.135381 0.134223 0.132816 
0.133345 0.134739 0.135864 0.136746 0.137416 0.137911 0.138263 0.138505 0.138665 
0.138765 0.138823 0.138853 0.138864 0.138864 0.138856 0.138843 0.138825 0.138801 
0.138765 0.138711 0.138631 0.13851 0.138331 0.138072 0.137705 0.137198 0.136519 
0.135631 0.134504 0.133112 0.133584 0.134958 0.136044 0.136873 0.137486 0.137922 
0.138221 0.138418 0.138541 0.138612 0.13865 0.138666 0.13867 0.138666 0.138659 
0.138651 0.138641 0.138629 0.13861 0.138578 0.138526 0.138441 0.138306 0.138098 
0.137789 0.137346 0.136727 0.135894 0.134807 0.133434 0.133892 0.135239 0.136272 
0.137033 0.137572 0.137938 0.138175 0.13832 0.138403 0.138445 0.138462 0.138465 
0.138461 0.138454 0.138447 0.138442 0.138438 0.138435 0.13843 0.138418 0.138393 
0.138342 0.138252 0.1381 0.137857 0.137486 0.136944 0.13618 0.135146 0.1338 
0.134284 0.135592 0.136551 0.137221 0.137666 0.137947 0.138114 0.138204 0.138246 
0.13826 0.138258 0.138249 0.138238 0.138228 0.138221 0.138218 0.138219 0.138223 
0.138229 0.138233 0.13823 0.138212 0.138165 0.138071 0.137901 0.137617 0.137169 
0.136498 0.135539 0.134232 0.134794 0.136038 0.136884 0.137426 0.137751 0.137932 
0.138022 0.138058 0.138063 0.138052 0.138035 0.138018 0.138002 0.137991 0.137984 
0.137983 0.137987 0.137995 0.138007 0.138022 0.138037 0.138045 0.138038 0.138001 
0.137909 0.137726 0.1374 0.136857 0.136011 0.134768 0.135492 0.136607 0.137261 
0.137615 0.137788 0.137858 0.137874 0.137862 0.137839 0.137814 0.137791 0.137772 
0.137757 0.137747 0.137742 0.137741 0.137745 0.137754 0.137768 0.137786 0.137808 
0.137833 0.137854 0.137865 0.137849 0.137778 0.137605 0.137251 0.136596 0.135482 
0.136359 0.137169 0.137532 0.137675 0.137716 0.137712 0.137691 0.137666 0.137642 
0.137622 0.137606 0.137594 0.137585 0.13758 0.137577 0.137577 0.137579 0.137585 
0.137593 0.137605 0.137621 0.13764 0.137664 0.137689 0.13771 0.137714 0.137673 
0.13753 0.137166 0.136357 0.336703 0.340748 0.345251 0.350486 0.358465 0.354524 
0.353494 0.358873 0.359876 0.348496 0.333139 0.310354 0.27181 0.213387 0.120103 
0.0210221 0.0167761 0.0179211 0.0195486 0.0207803 0.0216569 0.0222838 0.0227232 0.0229943 
0.0231213 0.0231403 0.0230687 0.0229909 0.0229493 0.0228774 0.329977 0.333891 0.338458 
0.343441 0.349699 0.350603 0.346362 0.349892 0.351737 0.343745 0.330273 0.309183 
0.274848 0.218204 0.129883 0.0241422 0.0199371 0.0209392 0.022304 0.02334 0.0240984 
0.0246581 0.0250655 0.0253293 0.0254703 0.0255168 0.0254727 0.0253729 0.0253273 0.0252507 
0.323548 0.327009 0.331734 0.336343 0.341199 0.346164 0.341101 0.344613 0.343366 
0.33884 0.326235 0.307887 0.276402 0.220775 0.135937 0.0271418 0.0225886 0.0229323 
0.0237365 0.0243803 0.024888 0.0252895 0.0256012 0.0258152 0.0259305 0.0259452 0.0258418 
0.0256444 0.0255036 0.0253768 0.317094 0.320437 0.32441 0.329039 0.332705 0.338533 
0.335573 0.336287 0.338116 0.332799 0.320117 0.30485 0.275734 0.224148 0.142665 
0.0314215 0.0257469 0.0249878 0.0250417 0.0252017 0.0253997 0.0255951 0.0257688 0.0258948 
0.0259439 0.0258833 0.0256953 0.0254081 0.0251651 0.024948 0.310357 0.313273 0.317 
0.320962 0.324412 0.329311 0.327878 0.324469 0.326447 0.324479 0.314902 0.297357 
0.272385 0.227091 0.152449 0.0381759 0.0301239 0.027694 0.0268092 0.0264194 0.0262622 
0.0262067 0.0261983 0.0261932 0.0261383 0.0259752 0.0256909 0.0253141 0.0249689 0.0246474 
0.302976 0.305729 0.308913 0.312031 0.31542 0.318905 0.321485 0.313887 0.315151 
0.314312 0.307995 0.291236 0.269094 0.230077 0.166675 0.0484933 0.0361018 0.0312553 
0.0292001 0.0281463 0.0275332 0.0271365 0.0268689 0.0266665 0.0264593 0.0261723 0.0257759 
0.0252862 0.0248189 0.0243537 0.294927 0.298395 0.300281 0.30328 0.305922 0.3088 
0.313411 0.306605 0.30382 0.304552 0.30026 0.285861 0.264181 0.233274 0.183187 
0.062706 0.0435061 0.0355144 0.0320391 0.0300852 0.0287923 0.0278754 0.0272137 0.0267071 
0.026269 0.0258271 0.025287 0.0246446 0.0240266 0.0233676 0.287154 0.290348 0.292622 
0.294831 0.297243 0.299323 0.303217 0.301681 0.292847 0.292377 0.291566 0.279749 
0.259952 0.231686 0.197964 0.0833256 0.0551975 0.0432491 0.0376388 0.0339861 0.0313292 
0.0293848 0.0279606 0.026872 0.0259906 0.0252602 0.0244618 0.0235733 0.0227582 0.0219219 
0.076685 0.0770412 0.0770313 0.0766621 0.0759462 0.0748955 0.0735236 0.0718468 0.0698836 
0.067655 0.0651838 0.0624949 0.0596148 0.0565716 0.0533948 0.0501153 0.0467652 0.043378 
0.0399881 0.0366318 0.0333465 0.0301717 0.027149 0.0243225 0.0217386 0.0194465 0.0174968 
0.0159397 0.0148254 0.0141962 0.0791945 0.0795259 0.0794747 0.0790459 0.0782491 0.0770965 
0.0756031 0.0737866 0.0716672 0.0692678 0.0666132 0.0637304 0.0606483 0.0573971 0.0540086 
0.050516 0.0469533 0.0433558 0.0397599 0.036203 0.0327241 0.0293636 0.0261643 0.0231713 
0.0204327 0.0179999 0.015927 0.0142691 0.0130801 0.0124075 0.0809034 0.0812289 0.0811547 
0.0806866 0.0798344 0.0786112 0.0770331 0.0751188 0.0728902 0.0703713 0.0675889 0.0645716 
0.0613499 0.0579558 0.0544228 0.0507857 0.0470799 0.0433421 0.0396098 0.0359213 0.0323162 
0.0288355 0.0255224 0.0224222 0.0195839 0.0170599 0.0149068 0.013183 0.0119471 0.0112524 
0.0831219 0.0834426 0.083341 0.082823 0.0818995 0.0805846 0.0788958 0.0768536 0.0744815 
0.0718059 0.0688556 0.0656615 0.0622565 0.0586751 0.054953 0.0511272 0.0472354 0.0433161 
0.0394084 0.0355521 0.0317879 0.0281574 0.0247043 0.0214744 0.018517 0.0158856 0.0136386 
0.0118382 0.0105485 0.00983091 0.0854281 0.0857434 0.085612 0.0850405 0.0840406 0.0826281 
0.0808216 0.0786438 0.0761202 0.0732794 0.0701526 0.0667735 0.0631774 0.0594015 0.0554843 
0.051465 0.0473837 0.0432812 0.0391984 0.0351766 0.0312575 0.0274837 0.0238988 0.0205487 
0.0174826 0.0147538 0.0124217 0.0105511 0.00921126 0.00847162 0.0879676 0.0882769 0.0881126 
0.0874815 0.0863967 0.0848751 0.0829376 0.0806086 0.0779162 0.0748917 0.0715691 0.0679848 
0.0641775 0.0601872 0.0560555 0.0518245 0.0475373 0.0432369 0.0389666 0.0347694 0.0306886 
0.0267672 0.0230495 0.0195807 0.0164093 0.0135878 0.0111753 0.00923803 0.00784949 0.0070881 
0.0907148 0.0910176 0.0908168 0.09012 0.0889416 0.0873002 0.0852187 0.0827241 0.0798471 
0.076622 0.0730859 0.0692788 0.0652424 0.0610205 0.0566579 0.0522003 0.0476936 0.043184 
0.0387173 0.0343386 0.0300929 0.0260242 0.0221769 0.0185959 0.015328 0.0124241 0.00994145 
0.00794573 0.00651322 0.00573146 0.0937072 0.0940027 0.0937616 0.0929921 0.0917103 0.0899368 
0.0876969 0.0850201 0.0819403 0.0784952 0.0747254 0.0706746 0.0663885 0.0619147 0.0573018 
0.0525994 0.047857 0.043124 0.0384494 0.0338809 0.0294652 0.0252479 0.0212737 0.0175868 
0.0142326 0.0112589 0.00871972 0.00667774 0.00520904 0.00440954 0.0969701 0.0972572 0.0969715 
0.0961218 0.094726 0.0928071 0.0903928 0.0875159 0.0842137 0.0805276 0.0765023 0.0721856 
0.0676275 0.0628799 0.0579959 0.0530291 0.0480332 0.0430616 0.0381663 0.0333985 0.0288071 
0.0244394 0.020341 0.0165558 0.0131273 0.0101001 0.00752302 0.00545309 0.00396161 0.00314975 
0.100539 0.100816 0.100481 0.0995429 0.0980214 0.0959423 0.0933364 0.0902399 0.0866939 
0.082744 0.0784394 0.0738325 0.0689782 0.0639331 0.0587551 0.0535025 0.0482338 0.0430063 
0.0378762 0.0328981 0.0281239 0.0236033 0.0193829 0.015507 0.0120176 0.00895608 0.00636553 
0.0042943 0.00280275 0.00198984 0.104449 0.104716 0.104326 0.10329 0.10163 0.0993753 
0.0965591 0.0932219 0.0894091 0.0851709 0.0805616 0.0756385 0.0704619 0.0650939 0.0595975 
0.0540363 0.0484737 0.0429718 0.0375913 0.0323905 0.0274248 0.0227464 0.0184041 0.0144427 
0.010904 0.00782671 0.00524884 0.00320969 0.00175338 0.000966429 0.108739 0.108993 0.108543 
0.107399 0.105588 0.10314 0.100093 0.0964932 0.0923892 0.0878369 0.0828961 0.0776299 
0.0721043 0.0663875 0.0605482 0.054656 0.0487796 0.0429865 0.0373422 0.0319092 0.0267468 
0.0219105 0.0174512 0.0134153 0.00984477 0.00677724 0.00424763 0.00228892 0.000927885 0.000237645 
0.113443 0.113683 0.113166 0.111904 0.109926 0.107266 0.103968 0.100081 0.0956594 
0.0907653 0.0854645 0.0798264 0.0739236 0.0678307 0.0616232 0.0553768 0.0491666 0.0430657 
0.0371451 0.0314721 0.0261104 0.0211187 0.0165505 0.0124538 0.00887109 0.00583889 0.00338919 
0.00155001 0.000332575 8.50217e-05 0.118592 0.118816 0.118224 0.116832 0.114671 0.11178 
0.108206 0.104005 0.099237 0.0939705 0.0882778 0.0822355 0.0759233 0.069423 0.0628173 
0.0561889 0.0496194 0.0431885 0.0369729 0.0310452 0.0254733 0.0203196 0.0156402 0.0114845 