# vtk DataFile Version 5.1
vtk output
ASCII
DATASET UNSTRUCTURED_GRID
POINTS 4929 double
0.1016 1.5 0.28099998832 0.1016 1.45 0.25999999046 0.1016 1.4 0.23600000143 
0.1016 1.35 0.21099999547 0.1016 1.3 0.20100000501 0.1016 1.25 0.16500000656 
0.1016 1.2 0.14900000393 0.1016 1.15 0.13099999726 0.1016 1.1 0.12700000405 
0.1016 1.05 0.125 0.1016 1 0.093000002205 0.1016 0.95 0.067000001669 
0.1016 0.9 0.045000001788 0.1016 0.85 0.034000001848 0.1016 0.8 0.028000000864 
0.1016 0.75 0.025000000373 0.1016 0.7 0.044058129191 0.1016 0.65 0.070433147252 
0.1016 0.6 0.09648257494 0.1016 0.55 0.12507975101 0.1016 0.5 0.15407636762 
0.1016 0.45 0.18182496727 0.1016 0.4 0.20970889926 0.1016 0.35 0.23818907142 
0.1016 0.3 0.26254275441 0.1016 0.25 0.27623543143 0.1016 0.2 0.2801887095 
0.1016 0.15 0.27855038643 0.1016 0.1 0.26756572723 0.1016 0.05 0.22187276185 
0.1016 0 0.12328904867 5.08 1.5 0.28700000048 5.08 1.45 0.28700000048 
5.08 1.4 0.28700000048 5.08 1.35 0.28700000048 5.08 1.3 0.28700000048 
5.08 1.25 0.28700000048 5.08 1.2 0.28700000048 5.08 1.15 0.28700000048 
5.08 1.1 0.28700000048 5.08 1.05 0.28700000048 5.08 1 0.28700000048 
5.08 0.95 0.28700000048 5.08 0.9 0.28700000048 5.08 0.85 0.28700000048 
5.08 0.8 0.28700000048 5.08 0.75 0.28700000048 5.08 0.7 0.28700000048 
5.08 0.65 0.28700000048 5.08 0.6 0.28700000048 5.08 0.55 0.28700000048 
5.08 0.5 0.28700000048 5.08 0.45 0.28700000048 5.08 0.4 0.28700000048 
5.08 0.35 0.28700000048 5.08 0.3 0.28700000048 5.08 0.25 0.28700000048 
5.08 0.2 0.28700000048 5.08 0.15 0.28700000048 5.08 0.1 0.28700000048 
5.08 0.05 0.28700000048 5.08 0 0.28700000048 0.12737462728 1.5 0.28042718768 
0.12737462728 1.45 0.26958322525 0.12737462728 1.4 0.24622510374 0.12737462728 1.35 0.21888443828 
0.12737462728 1.3 0.2066898793 0.12737462728 1.25 0.17308999598 0.12737462728 1.2 0.15343038738 
0.12737462728 1.15 0.1336863935 0.12737462728 1.1 0.12678776681 0.12737462728 1.05 0.11909794807 
0.12737462728 1 0.10070821643 0.12737462728 0.95 0.079532891512 0.12737462728 0.9 0.056582219899 
0.12737462728 0.85 0.038052659482 0.12737462728 0.8 0.030367512256 0.12737462728 0.75 0.028310723603 
0.12737462728 0.7 0.044225990772 0.12737462728 0.65 0.068478241563 0.12737462728 0.6 0.091173432767 
0.12737462728 0.55 0.1195602417 0.12737462728 0.5 0.14868426323 0.12737462728 0.45 0.17677389085 
0.12737462728 0.4 0.20553925633 0.12737462728 0.35 0.23608642817 0.12737462728 0.3 0.26294034719 
0.12737462728 0.25 0.27703362703 0.12737462728 0.2 0.28043156862 0.12737462728 0.15 0.28190365434 
0.12737462728 0.1 0.27863574028 0.12737462728 0.05 0.24999776483 0.12737462728 0 0.12281348556 
0.15441581276 1.5 0.27901610732 0.15441581276 1.45 0.27716097236 0.15441581276 1.4 0.2567242384 
0.15441581276 1.35 0.22673384845 0.15441581276 1.3 0.21315133572 0.15441581276 1.25 0.18190729618 
0.15441581276 1.2 0.16197873652 0.15441581276 1.15 0.1387437731 0.15441581276 1.1 0.12951609492 
0.15441581276 1.05 0.11548787355 0.15441581276 1 0.10849896818 0.15441581276 0.95 0.092863172293 
0.15441581276 0.9 0.07214679569 0.15441581276 0.85 0.048317637295 0.15441581276 0.8 0.039055276662 
0.15441581276 0.75 0.038141530007 0.15441581276 0.7 0.04964042455 0.15441581276 0.65 0.071353696287 
0.15441581276 0.6 0.091595128179 0.15441581276 0.55 0.119369708 0.15441581276 0.5 0.1471323669 
0.15441581276 0.45 0.1751562655 0.15441581276 0.4 0.20420090854 0.15441581276 0.35 0.23501980305 
0.15441581276 0.3 0.26285743713 0.15441581276 0.25 0.27686312795 0.15441581276 0.2 0.27884212136 
0.15441581276 0.15 0.28279325366 0.15441581276 0.1 0.28304031491 0.15441581276 0.05 0.283110708 
0.15441581276 0 0.14485383034 0.18278579477 1.5 0.27916291356 0.18278579477 1.45 0.27902269363 
0.18278579477 1.4 0.26667118073 0.18278579477 1.35 0.23716130853 0.18278579477 1.3 0.21590660512 
0.18278579477 1.25 0.1948992759 0.18278579477 1.2 0.17621158063 0.18278579477 1.15 0.14965434372 
0.18278579477 1.1 0.13756345212 0.18278579477 1.05 0.12288504839 0.18278579477 1 0.11560480297 
0.18278579477 0.95 0.10466721654 0.18278579477 0.9 0.088109783828 0.18278579477 0.85 0.067213967443 
0.18278579477 0.8 0.054575558752 0.18278579477 0.75 0.055037934333 0.18278579477 0.7 0.059607721865 
0.18278579477 0.65 0.0771336779 0.18278579477 0.6 0.10056013614 0.18278579477 0.55 0.12529577315 
0.18278579477 0.5 0.14971448481 0.18278579477 0.45 0.17795661092 0.18278579477 0.4 0.20740869641 
0.18278579477 0.35 0.23559315503 0.18278579477 0.3 0.26096737385 0.18278579477 0.25 0.27482873201 
0.18278579477 0.2 0.27641943097 0.18278579477 0.15 0.27972862124 0.18278579477 0.1 0.28242689371 
0.18278579477 0.05 0.28353244066 0.18278579477 0 0.22615532577 0.21254987001 1.5 0.27892774343 
0.21254987001 1.45 0.27880933881 0.21254987001 1.4 0.27411806583 0.21254987001 1.35 0.24955645204 
0.21254987001 1.3 0.22513796389 0.21254987001 1.25 0.20983821154 0.21254987001 1.2 0.19176670909 
0.21254987001 1.15 0.16461597383 0.21254987001 1.1 0.14973814785 0.21254987001 1.05 0.13274395466 
0.21254987001 1 0.12342774123 0.21254987001 0.95 0.1147923097 0.21254987001 0.9 0.10273194313 
0.21254987001 0.85 0.087812170386 0.21254987001 0.8 0.074917145073 0.21254987001 0.75 0.076999895275 
0.21254987001 0.7 0.077974960208 0.21254987001 0.65 0.089020214975 0.21254987001 0.6 0.11223744601 
0.21254987001 0.55 0.13573920727 0.21254987001 0.5 0.15765924752 0.21254987001 0.45 0.18473041058 
0.21254987001 0.4 0.21234373748 0.21254987001 0.35 0.23857034743 0.21254987001 0.3 0.26064679027 
0.21254987001 0.25 0.27168673277 0.21254987001 0.2 0.27326014638 0.21254987001 0.15 0.2758140564 
0.21254987001 0.1 0.27682480216 0.21254987001 0.05 0.27985927463 0.21254987001 0 0.28473773599 
0.24377654385 1.5 0.27832347155 0.24377654385 1.45 0.2775965035 0.24377654385 1.4 0.27661255002 
0.24377654385 1.35 0.26372471452 0.24377654385 1.3 0.24294556677 0.24377654385 1.25 0.22582532465 
0.24377654385 1.2 0.20347118378 0.24377654385 1.15 0.18246825039 0.24377654385 1.1 0.16203744709 
0.24377654385 1.05 0.14196285605 0.24377654385 1 0.13201959431 0.24377654385 0.95 0.1240157336 
0.24377654385 0.9 0.1138356626 0.24377654385 0.85 0.10568276793 0.24377654385 0.8 0.096475996077 
0.24377654385 0.75 0.099761486053 0.24377654385 0.7 0.10501015931 0.24377654385 0.65 0.10741432011 
0.24377654385 0.6 0.12508746982 0.24377654385 0.55 0.1498311162 0.24377654385 0.5 0.1711461693 
0.24377654385 0.45 0.1951430589 0.24377654385 0.4 0.21784681082 0.24377654385 0.35 0.24469207227 
0.24377654385 0.3 0.26369473338 0.24377654385 0.25 0.26797902584 0.24377654385 0.2 0.27139851451 
0.24377654385 0.15 0.27271574736 0.24377654385 0.1 0.27432498336 0.24377654385 0.05 0.2768586278 
0.24377654385 0 0.28628197312 0.27653768798 1.5 0.27604544163 0.27653768798 1.45 0.2760515511 
0.27653768798 1.4 0.2763954103 0.27653768798 1.35 0.27075749636 0.27653768798 1.3 0.25993260741 
0.27653768798 1.25 0.2400932312 0.27653768798 1.2 0.21540209651 0.27653768798 1.15 0.19640290737 
0.27653768798 1.1 0.17315770686 0.27653768798 1.05 0.15504287183 0.27653768798 1 0.14305333793 
0.27653768798 0.95 0.13481521606 0.27653768798 0.9 0.12335604429 0.27653768798 0.85 0.11948463321 
0.27653768798 0.8 0.11363232881 0.27653768798 0.75 0.11953126639 0.27653768798 0.7 0.12651862204 
0.27653768798 0.65 0.13049499691 0.27653768798 0.6 0.14815351367 0.27653768798 0.55 0.16819497943 
0.27653768798 0.5 0.18740519881 0.27653768798 0.45 0.20837374032 0.27653768798 0.4 0.22920872271 
0.27653768798 0.35 0.25223955512 0.27653768798 0.3 0.26683187485 0.27653768798 0.25 0.26817780733 
0.27653768798 0.2 0.27072063088 0.27653768798 0.15 0.27235037088 0.27653768798 0.1 0.2736902535 
0.27653768798 0.05 0.27366358042 0.27653768798 0 0.27867996693 0.31090870586 1.5 0.27416908741 
0.31090870586 1.45 0.27480497956 0.31090870586 1.4 0.27478861809 0.31090870586 1.35 0.27141174674 
0.31090870586 1.3 0.2705283165 0.31090870586 1.25 0.25385409594 0.31090870586 1.2 0.22876237333 
0.31090870586 1.15 0.20955169201 0.31090870586 1.1 0.18647253513 0.31090870586 1.05 0.17163932323 
0.31090870586 1 0.15664711595 0.31090870586 0.95 0.14827872813 0.31090870586 0.9 0.13506239653 
0.31090870586 0.85 0.13427150249 0.31090870586 0.8 0.12812814116 0.31090870586 0.75 0.13410742581 
0.31090870586 0.7 0.13981504738 0.31090870586 0.65 0.1523103714 0.31090870586 0.6 0.17386728525 
0.31090870586 0.55 0.18833456933 0.31090870586 0.5 0.20521615446 0.31090870586 0.45 0.22375075519 
0.31090870586 0.4 0.24456912279 0.31090870586 0.35 0.26038727164 0.31090870586 0.3 0.26919201016 
0.31090870586 0.25 0.27017745376 0.31090870586 0.2 0.27101573348 0.31090870586 0.15 0.27290540934 
0.31090870586 0.1 0.27386876941 0.31090870586 0.05 0.27300480008 0.31090870586 0 0.27565985918 
0.34696870625 1.5 0.27555927634 0.34696870625 1.45 0.27406427264 0.34696870625 1.4 0.27404111624 
0.34696870625 1.35 0.27356234193 0.34696870625 1.3 0.27206686139 0.34696870625 1.25 0.26955679059 
0.34696870625 1.2 0.24508737028 0.34696870625 1.15 0.22578968108 0.34696870625 1.1 0.20771208405 
0.34696870625 1.05 0.18791350722 0.34696870625 1 0.17358469963 0.34696870625 0.95 0.16440400481 
0.34696870625 0.9 0.1554723829 0.34696870625 0.85 0.15608821809 0.34696870625 0.8 0.14856527746 
0.34696870625 0.75 0.14950177073 0.34696870625 0.7 0.15244790912 0.34696870625 0.65 0.17216257751 
0.34696870625 0.6 0.19023559988 0.34696870625 0.55 0.20753657818 0.34696870625 0.5 0.22436927259 
0.34696870625 0.45 0.24007093906 0.34696870625 0.4 0.25883373618 0.34696870625 0.35 0.26756197214 
0.34696870625 0.3 0.26993146539 0.34696870625 0.25 0.27091091871 0.34696870625 0.2 0.27102223039 
0.34696870625 0.15 0.27220615745 0.34696870625 0.1 0.27315440774 0.34696870625 0.05 0.27300679684 
0.34696870625 0 0.27419903874 0.3848006853 1.5 0.27619233727 0.3848006853 1.45 0.27468720078 
0.3848006853 1.4 0.27466383576 0.3848006853 1.35 0.27354541421 0.3848006853 1.3 0.27301460505 
0.3848006853 1.25 0.27366960049 0.3848006853 1.2 0.26314097643 0.3848006853 1.15 0.24503950775 
[...]
CELL_DATA 4740
FIELD FieldData 7
B_Stress_n_p_m2 1 4740 float
0.312518 0.305018 0.295577 0.289933 0.285417 0.279583 0.277561 0.277226 0.277435 
0.278774 0.275287 0.267743 0.251657 0.230025 0.202542 0.142 0.103927 0.0828921 
0.0705633 0.0624374 0.0567031 0.052595 0.0497471 0.0476645 0.04561 0.0434932 0.0421903 
0.0420155 0.0419746 0.0360876 0.312951 0.308699 0.297379 0.288293 0.283465 0.277387 
0.272701 0.270471 0.268411 0.26831 0.268011 0.261763 0.246846 0.226566 0.202007 
0.155175 0.119651 0.0974176 0.0829153 0.072853 0.0654624 0.0599355 0.0557642 0.0523762 
0.0490175 0.0456697 0.0435249 0.0431915 0.0441163 0.0397812 0.310688 0.310711 0.300567 
0.28754 0.282792 0.277761 0.271779 0.26702 0.263434 0.260445 0.260137 0.25437 
0.241248 0.221948 0.199044 0.161961 0.130753 0.109222 0.093893 0.0827875 0.0744968 
0.0682464 0.0633964 0.059224 0.0550485 0.0510278 0.0482334 0.0474557 0.0480032 0.0486854 
0.307478 0.309775 0.305074 0.291809 0.283913 0.27967 0.273637 0.266089 0.260076 
0.255104 0.251954 0.245725 0.234286 0.217302 0.196143 0.166481 0.138791 0.118471 
0.103594 0.092089 0.0833213 0.076671 0.0715416 0.0667416 0.0616647 0.0571366 0.053807 
0.0523414 0.0522688 0.054908 0.303091 0.306385 0.307877 0.299651 0.288755 0.281656 
0.274835 0.26531 0.257003 0.249829 0.244075 0.236489 0.226197 0.211928 0.19353 
0.169585 0.145332 0.126488 0.112406 0.101121 0.0921739 0.0853104 0.079914 0.0745629 
0.0685678 0.0633427 0.059553 0.057466 0.0564927 0.0574536 0.297558 0.301332 0.30548 
0.305018 0.295184 0.283901 0.273947 0.263981 0.254231 0.245124 0.237417 0.228224 
0.218174 0.205902 0.190604 0.171046 0.151515 0.134874 0.121562 0.110782 0.101912 
0.0950729 0.0890659 0.0830092 0.0762066 0.0700476 0.0658818 0.0631623 0.0614241 0.0606637 
0.29174 0.295956 0.300398 0.303859 0.300328 0.287302 0.274607 0.263694 0.252479 
0.242577 0.233147 0.223303 0.213088 0.201576 0.187949 0.171922 0.156981 0.143603 
0.131993 0.121572 0.112968 0.106184 0.0993869 0.0919153 0.0841691 0.077358 0.0726288 
0.069405 0.0671121 0.0654905 0.28745 0.291506 0.295555 0.29904 0.301579 0.293144 
0.279503 0.267336 0.254378 0.243806 0.233522 0.224145 0.213725 0.202741 0.189506 
0.17569 0.163597 0.15318 0.143371 0.133662 0.125569 0.118078 0.110011 0.100745 
0.0919892 0.0848181 0.0795404 0.0759247 0.0732812 0.0714217 0.284198 0.287499 0.290711 
0.29403 0.29677 0.297197 0.287335 0.275452 0.262921 0.251186 0.240786 0.231118 
0.220849 0.210513 0.198177 0.185472 0.174021 0.164794 0.155115 0.146601 0.138498 
0.129198 0.119253 0.108689 0.0993819 0.0921907 0.086665 0.0828011 0.0799455 0.0781141 
0.27934 0.282606 0.285459 0.287797 0.289748 0.292856 0.291796 0.28513 0.275538 
0.264723 0.253398 0.242227 0.231682 0.220929 0.209895 0.198066 0.186224 0.175864 
0.166351 0.157794 0.14836 0.137623 0.12589 0.115087 0.106153 0.0993168 0.0939363 
0.0900355 0.0871146 0.0852912 0.27297 0.276414 0.279089 0.281099 0.28242 0.28407 
0.287136 0.286881 0.283431 0.276812 0.267021 0.254844 0.242229 0.230632 0.219279 
0.207327 0.195905 0.185286 0.175473 0.165476 0.154616 0.142726 0.130816 0.120727 
0.112441 0.105979 0.100979 0.097156 0.0943038 0.0924736 0.26736 0.270689 0.272859 
0.274851 0.276038 0.276755 0.278298 0.279758 0.280094 0.277814 0.273327 0.26427 
0.251935 0.239929 0.227317 0.215113 0.204292 0.194003 0.183194 0.171392 0.159377 
0.146836 0.1361 0.126909 0.119115 0.112706 0.107886 0.104096 0.101401 0.0996145 
0.266102 0.268942 0.270863 0.272463 0.273759 0.27441 0.275014 0.275685 0.275273 
0.273478 0.271095 0.266279 0.259322 0.24848 0.237146 0.226088 0.214643 0.203018 
0.191125 0.178321 0.165133 0.153667 0.143868 0.135242 0.127866 0.121451 0.116397 
0.112545 0.109808 0.108124 0.269534 0.271777 0.273808 0.275575 0.276829 0.277712 
0.27806 0.277946 0.277095 0.274932 0.271085 0.267088 0.261431 0.254443 0.245952 
0.235721 0.22555 0.213576 0.200365 0.187498 0.175533 0.164831 0.155263 0.146925 
0.139495 0.133179 0.127873 0.123779 0.120639 0.119134 0.270969 0.272854 0.275091 
0.276958 0.278321 0.279182 0.279367 0.278771 0.277376 0.274962 0.271224 0.266602 
0.261117 0.25483 0.247324 0.238692 0.229131 0.218521 0.207231 0.196033 0.185371 
0.175383 0.166187 0.157916 0.150613 0.144349 0.139072 0.134782 0.131522 0.130046 
0.266966 0.268939 0.271072 0.272776 0.273955 0.274555 0.274477 0.273604 0.2719 
0.269396 0.265968 0.261485 0.256223 0.250099 0.243099 0.235436 0.226816 0.217654 
0.20829 0.198847 0.189546 0.180649 0.172344 0.164733 0.15797 0.152093 0.14711 
0.142988 0.139858 0.138296 0.261106 0.263433 0.265413 0.266898 0.267826 0.268163 
0.267855 0.266843 0.265092 0.262594 0.259303 0.255187 0.250331 0.244732 0.238427 
0.231511 0.223974 0.216016 0.207852 0.19964 0.191558 0.183791 0.176485 0.169745 
0.163669 0.158314 0.153714 0.149883 0.146912 0.145155 0.255647 0.258181 0.260091 
0.261438 0.262215 0.262404 0.261979 0.260911 0.259181 0.256775 0.253682 0.249904 
0.245479 0.240432 0.234805 0.228663 0.222069 0.215148 0.208047 0.200908 0.193875 
0.187083 0.18065 0.174668 0.169216 0.164351 0.160118 0.156544 0.153695 0.151789 
0.250522 0.253081 0.254953 0.256227 0.256926 0.257049 0.256588 0.255533 0.253879 
0.251626 0.248774 0.245339 0.241349 0.236838 0.23185 0.226443 0.220686 0.214675 
0.208519 0.202328 0.196215 0.190284 0.184628 0.179327 0.174447 0.170041 0.166152 
0.162811 0.160072 0.158107 0.245654 0.248182 0.250025 0.251266 0.251938 0.25205 
0.251611 0.250625 0.249095 0.247032 0.244448 0.241363 0.237806 0.233811 0.229423 
0.224694 0.219687 0.214478 0.209151 0.203791 0.198485 0.193315 0.188355 0.183668 
0.17931 0.175328 0.17176 0.168634 0.166002 0.164008 0.241067 0.243554 0.245377 
0.246609 0.247288 0.247433 0.247059 0.246179 0.244807 0.242961 0.240658 0.237922 
0.234785 0.23128 0.227448 0.223338 0.219002 0.214502 0.209903 0.205272 0.200675 
0.196176 0.191832 0.187695 0.183809 0.180212 0.176937 0.174011 0.17148 0.169465 
0.236786 0.239233 0.241044 0.242286 0.242998 0.243203 0.242923 0.242176 0.240983 
0.239366 0.237348 0.234955 0.232218 0.22917 0.22585 0.222299 0.218562 0.214688 
0.21073 0.206738 0.202763 0.198854 0.195055 0.191406 0.18794 0.18469 0.181683 
0.178938 0.176499 0.174465 0.232831 0.235242 0.23705 0.238315 0.239076 0.23936 
0.239191 0.238593 0.237589 0.236205 0.234467 0.232403 0.230042 0.227417 0.224562 
0.221514 0.218309 0.214989 0.211593 0.20816 0.20473 0.201338 0.198018 0.194799 
0.191708 0.188767 0.185997 0.183416 0.181059 0.179007 0.229217 0.231596 0.233406 
0.234702 0.235523 0.235896 0.235848 0.235405 0.234592 0.233438 0.231969 0.230214 
0.228202 0.225963 0.223529 0.220929 0.218197 0.215363 0.212459 0.209516 0.206561 
0.203621 0.20072 0.197879 0.195117 0.192449 0.18989 0.187453 0.185169 0.183099 
0.225949 0.2283 0.230117 0.231449 0.232335 0.232801 0.232876 0.232586 0.23196 
0.231025 0.22981 0.228342 0.226649 0.224759 0.222701 0.2205 0.218184 0.215777 
0.213304 0.210786 0.208245 0.205699 0.203163 0.200652 0.198177 0.195748 0.193375 
0.191065 0.188843 0.186757 0.223027 0.225352 0.227179 0.228549 0.2295 0.230059 
0.230254 0.230112 0.229662 0.228932 0.22795 0.226744 0.225339 0.223763 0.222038 
0.220189 0.218238 0.216203 0.214105 0.211957 0.209775 0.20757 0.205351 0.203126 
0.200901 0.198681 0.196469 0.19427 0.192102 0.19 0.220443 0.222746 0.224582 
0.22599 0.227004 0.227651 0.227959 0.227955 0.227668 0.227125 0.226355 0.225384 
0.224236 0.222936 0.221506 0.219965 0.218332 0.216621 0.214847 0.213019 0.211147 
0.209237 0.207292 0.205315 0.203307 0.201267 0.199195 0.197092 0.19497 0.192855 
0.218184 0.220468 0.222314 0.223757 0.224829 0.225557 0.225967 0.226088 0.225947 
0.225573 0.224991 0.224228 0.223307 0.22225 0.221076 0.219803 0.218445 0.217014 
0.215519 0.213967 0.212363 0.210706 0.208997 0.207234 0.205412 0.203528 0.201578 
0.199558 0.197476 0.195348 0.216234 0.2185 0.220355 0.221829 0.222953 0.223752 
0.224254 0.224485 0.224474 0.224247 0.22383 0.223248 0.222523 0.221676 0.220724 
0.219682 0.218561 0.21737 0.216115 0.2148 0.213424 0.211985 0.210479 0.208899 
0.207239 0.205489 0.203643 0.201695 0.199647 0.19751 0.214571 0.216822 0.218684 
0.220185 0.221354 0.222215 0.222794 0.22312 0.22322 0.223119 0.222844 0.222417 
0.221861 0.221194 0.220431 0.219586 0.218667 0.217681 0.216632 0.215518 0.214338 
0.213086 0.211753 0.210331 0.208809 0.207175 0.20542 0.203534 0.201515 0.19937 
0.213175 0.215412 0.217279 0.218802 0.220006 0.220918 0.221563 0.221968 0.22216 
0.222165 0.222009 0.221714 0.2213 0.220784 0.220182 0.219503 0.218755 0.217944 
0.217068 0.216127 0.215113 0.21402 0.212837 0.21155 0.210147 0.208614 0.206937 
0.205104 0.203112 0.20096 0.212021 0.214246 0.216116 0.217654 0.218887 0.219838 
0.220535 0.221003 0.22127 0.221363 0.221304 0.221117 0.220821 0.220432 0.219963 
0.219424 0.21882 0.218155 0.217426 0.216631 0.215759 0.214802 0.213747 0.212577 
0.211277 0.209831 0.208222 0.206437 0.204468 0.202312 0.211086 0.213299 0.215169 
0.216718 0.21797 0.218951 0.219686 0.220203 0.220529 0.22069 0.220709 0.220609 
0.220409 0.220123 0.219765 0.219341 0.218857 0.218315 0.21771 0.217038 0.216287 
0.215447 0.214501 0.213432 0.212222 0.210852 0.209304 0.207562 0.205614 0.203455 
0.210345 0.212547 0.214415 0.215969 0.217233 0.218232 0.218994 0.219546 0.219915 
0.220127 0.220206 0.220175 0.220051 0.219848 0.219579 0.21925 0.218866 0.218425 
0.217924 0.217356 0.216709 0.215969 0.215118 0.214137 0.213007 0.211705 0.210211 
0.208507 0.206579 0.204419 0.209776 0.211968 0.213831 0.215384 0.216652 0.217661 
0.218437 0.21901 0.219408 0.219656 0.21978 0.2198 0.219734 0.219597 0.219399 
0.219147 0.218844 0.218488 0.218074 0.217594 0.217035 0.216382 0.215615 0.214712 
0.213653 0.212412 0.210968 0.209299 0.207391 0.205231 0.209359 0.211541 0.213396 
0.214943 0.216207 0.217215 0.217995 0.218577 0.21899 0.219261 0.219414 0.219471 
0.219449 0.219362 0.21922 0.219029 0.218792 0.218506 0.218166 0.217761 0.217278 
0.216701 0.216008 0.215176 0.214181 0.212997 0.2116 0.209966 0.208077 0.20592 
0.209074 0.211246 0.21309 0.214625 0.215877 0.216875 0.217649 0.21823 0.218646 
0.218927 0.219097 0.219178 0.219186 0.219136 0.219037 0.218895 0.218711 0.218483 
0.218204 0.217864 0.217448 0.216938 0.216312 0.215545 0.214611 0.213482 0.21213 
0.210529 0.208661 0.206508 0.208906 0.211066 0.212895 0.214413 0.215646 0.216626 
0.217383 0.217951 0.218361 0.218641 0.218816 0.218909 0.218937 0.218913 0.218846 
0.218742 0.218601 0.21842 0.218194 0.21791 0.217553 0.217105 0.216541 0.215836 
0.214961 0.213885 0.212578 0.211013 0.209166 0.207019 0.208839 0.210988 0.212798 
0.214292 0.215499 0.21645 0.217182 0.217727 0.21812 0.218389 0.218561 0.218657 
0.218695 0.218688 0.218644 0.218569 0.218462 0.218322 0.21814 0.217905 0.217602 
0.217211 0.216707 0.216063 0.215246 0.214225 0.212965 0.211436 0.209613 0.207474 
0.208864 0.211 0.212787 0.21425 0.215421 0.216336 0.217031 0.217545 0.217911 
0.218161 0.218321 0.218413 0.218454 0.218456 0.218428 0.218374 0.218295 0.218188 
0.218045 0.217855 0.217602 0.217266 0.21682 0.216236 0.21548 0.214515 0.213307 
0.211819 0.210022 0.207893 0.208972 0.211093 0.212852 0.214277 0.215403 0.21627 
0.21692 0.217392 0.217724 0.217947 0.218088 0.218169 0.218207 0.218212 0.218195 
0.218157 0.218101 0.218022 0.217913 0.217764 0.217558 0.217274 0.216887 0.216366 
0.215673 0.214771 0.213619 0.212177 0.210411 0.208296 0.209162 0.211264 0.212987 
0.214364 0.215434 0.216242 0.216836 0.217258 0.217547 0.217737 0.217854 0.217919 
0.217948 0.217954 0.217942 0.217916 0.217877 0.217822 0.217744 0.217632 0.217471 
0.217241 0.216914 0.216458 0.215836 0.215003 0.213915 0.212527 0.210799 0.2087 
0.209432 0.211512 0.21319 0.214505 0.215505 0.216243 0.216769 0.217131 0.217371 
0.217522 0.21761 0.217656 0.217675 0.217676 0.217667 0.21765 0.217626 0.217591 
0.21754 0.217463 0.217346 0.217168 0.216903 0.216518 0.215973 0.21522 0.214207 
0.212884 0.211203 0.209126 0.209791 0.21184 0.21346 0.214697 0.21561 0.216261 
0.216707 0.217001 0.217185 0.217292 0.21735 0.217375 0.217381 0.217377 0.217369 
0.217358 0.217345 0.217327 0.2173 0.217255 0.21718 0.217054 0.216854 0.216546 
0.216087 0.215427 0.214506 0.213264 0.211642 0.209594 0.210251 0.212259 0.213801 
0.214936 0.215739 0.216284 0.216637 0.216854 0.216978 0.217041 0.217067 0.217071 
0.217065 0.217056 0.217047 0.21704 0.217036 0.217032 0.217026 0.217009 0.216972 
0.216898 0.216764 0.216538 0.216177 0.215626 0.214818 0.21368 0.212138 0.21013 
0.210834 0.212784 0.214215 0.215213 0.215876 0.216295 0.216543 0.216678 0.216741 
0.216761 0.216758 0.216744 0.216728 0.216714 0.216704 0.216701 0.216703 0.216709 
0.216718 0.216725 0.216721 0.216695 0.216626 0.216486 0.216234 0.215812 0.215146 
0.214146 0.212715 0.210766 0.211592 0.213446 0.214708 0.215515 0.215999 0.216269 
0.216402 0.216455 0.216462 0.216446 0.21642 0.216394 0.216372 0.216355 0.216345 
0.216343 0.216349 0.216362 0.216381 0.216404 0.216425 0.216438 0.216429 0.216374 
0.216238 0.215966 0.215481 0.214673 0.213411 0.211558 0.212627 0.214289 0.215264 
0.21579 0.216048 0.216152 0.216175 0.216157 0.216123 0.216086 0.216051 0.216022 
0.216 0.215985 0.215977 0.215977 0.215983 0.215996 0.216017 0.216045 0.216078 
0.216114 0.216147 0.216164 0.21614 0.216035 0.215777 0.21525 0.214275 0.212614 
0.213915 0.215121 0.215662 0.215875 0.215936 0.21593 0.215898 0.215861 0.215825 
0.215795 0.215771 0.215753 0.21574 0.215732 0.215728 0.215728 0.215732 0.21574 
0.215752 0.21577 0.215793 0.215823 0.215858 0.215896 0.215927 0.215933 0.215872 
0.215659 0.215117 0.213912 0.306343 0.312435 0.317558 0.322081 0.326424 0.33151 
0.337307 0.340638 0.33546 0.324739 0.310101 0.287017 0.256436 0.209512 0.128559 
0.0337649 0.0257032 0.0256449 0.026694 0.0274292 0.0276796 0.0275038 0.0270911 0.0266416 
0.0263639 0.0264177 0.0268383 0.0276929 0.0291293 0.0301253 0.306096 0.309198 0.313673 
0.318351 0.321837 0.323912 0.328729 0.332405 0.331836 0.324293 0.308918 0.287605 
0.260066 0.216745 0.13972 0.0378243 0.0288662 0.02829 0.0289259 0.029428 0.0296526 
0.0295679 0.0292674 0.0289045 0.0286565 0.0286339 0.0288695 0.0294908 0.0307176 0.031664 
0.307703 0.305993 0.310232 0.314216 0.316334 0.315688 0.318951 0.323101 0.325201 
0.321323 0.306369 0.287471 0.260494 0.213961 0.140937 0.0401162 0.0309627 0.0296289 
0.0295493 0.0295702 0.0295911 0.0295082 0.0293007 0.0290444 0.0288572 0.0287906 0.0288579 
0.0292374 0.030238 0.0312076 0.308299 0.303437 0.30521 0.309801 0.309764 0.307882 
0.309611 0.31426 0.317999 0.315433 0.302636 0.286013 0.260167 0.211717 0.140425 
0.0432989 0.0336636 0.0312142 0.0302282 0.0296277 0.0293084 0.029114 0.0289329 0.0287628 
0.0286546 0.0285964 0.0285596 0.028721 0.02948 0.0304594 0.306438 0.30047 0.300032 
0.304064 0.302832 0.301245 0.301753 0.307311 0.311763 0.309079 0.297837 0.283567 
0.260245 0.214865 0.147539 0.0503865 0.0383629 0.0339654 0.0317727 0.0304111 0.029639 
0.0292266 0.0289944 0.0288745 0.0288499 0.028844 0.0287707 0.0287476 0.0292165 0.0301345 
0.304729 0.29785 0.296068 0.298642 0.296202 0.295248 0.295943 0.3006 0.306494 
0.302969 0.292733 0.280298 0.260196 0.220854 0.161463 0.0619459 0.0454289 0.0381841 
0.0344212 0.0321207 0.03076 0.0299998 0.0296087 0.0294639 0.0294725 0.0295043 0.0294412 
0.0293084 0.0294187 0.0300428 0.306236 0.298102 0.293795 0.294763 0.291177 0.289642 
0.290443 0.293483 0.299503 0.296545 0.287679 0.276392 0.258801 0.226704 0.177805 
0.077276 0.054563 0.0438346 0.0381884 0.0347238 0.0325536 0.031215 0.0304453 0.0300715 
0.0299116 0.0298191 0.0297351 0.0296368 0.0294645 0.0293503 0.309505 0.301189 0.293971 
0.292022 0.287727 0.284336 0.284069 0.285585 0.289322 0.288514 0.281982 0.272366 
0.255833 0.230077 0.192838 0.097674 0.0679456 0.0532972 0.045296 0.0401952 0.0367422 
0.0343617 0.0327667 0.0317124 0.0309063 0.0302484 0.0299007 0.0299052 0.0298135 0.0282591 
0.109204 0.109725 0.109791 0.10941 0.108597 0.107365 0.105729 0.103707 0.10132 
0.0985932 0.0955517 0.0922249 0.088644 0.084843 0.0808579 0.0767272 0.0724919 0.0681952 
0.0638831 0.0596039 0.0554088 0.0513517 0.0474892 0.0438799 0.0405847 0.0376647 0.0351796 
0.0331854 0.0317346 0.0308672 0.111945 0.112439 0.112461 0.112017 0.111119 0.109779 
0.108014 0.105844 0.10329 0.100379 0.0971379 0.0935983 0.0897932 0.0857585 0.0815324 
0.0771553 0.0726702 0.0681224 0.0635596 0.0590323 0.0545937 0.0502998 0.0462098 0.0423856 
0.0388913 0.0357926 0.0331545 0.0310387 0.0295005 0.0285831 0.11379 0.114277 0.114276 
0.113793 0.112838 0.111427 0.109576 0.107306 0.10464 0.101604 0.0982291 0.0945464 
0.0905908 0.0863994 0.0820117 0.0774696 0.072817 0.0681005 0.063369 0.058674 0.0540699 
0.0496141 0.0453673 0.0413935 0.0377595 0.0345344 0.0317875 0.0295852 0.0279878 0.0270435 
0.116148 0.11663 0.116601 0.116068 0.115043 0.11354 0.111578 0.109178 0.106366 
0.10317 0.0996206 0.0957525 0.091602 0.0872082 0.0826125 0.0778585 0.072992 0.0680613 
0.0631168 0.0582116 0.0534017 0.0487462 0.0443077 0.0401524 0.0363501 0.0329737 0.0300973 
0.0277932 0.0261279 0.0251559 0.118557 0.119033 0.118976 0.118391 0.117292 0.115693 
0.113616 0.111082 0.108119 0.104758 0.10103 0.096972 0.0926229 0.0880235 0.0832173 
0.0782499 0.073169 0.0680245 0.0628686 0.0577559 0.0527438 0.0478927 0.043267 0.0389347 
0.0349683 0.031444 0.0284405 0.0260356 0.0243025 0.0233025 0.121154 0.121625 0.121536 
0.120895 0.119715 0.118012 0.115809 0.11313 0.110003 0.106462 0.10254 0.0982768 
0.0937131 0.0888923 0.0838602 0.0786647 0.0733557 0.0679851 0.0626067 0.0572768 0.0520543 
0.0470011 0.0421827 0.0376691 0.0335348 0.0298592 0.0267252 0.0242166 0.0224133 0.0213843 
0.123899 0.124364 0.124241 0.123539 0.122272 0.120458 0.118121 0.115286 0.111984 
0.108251 0.104123 0.0996425 0.0948521 0.0897982 0.0845292 0.0790955 0.0735494 0.0679449 
0.062338 0.0567864 0.0513506 0.0460937 0.0410824 0.0363879 0.0320865 0.0282601 0.0249956 
0.0223823 0.0205074 0.0194486 0.126812 0.127269 0.12711 0.126343 0.124983 0.123049 
0.120567 0.117565 0.114077 0.110138 0.105791 0.101079 0.0960476 0.090747 0.0852282 
0.0795444 0.0737506 0.0679032 0.0620603 0.0562815 0.0506287 0.0451662 0.0399616 0.0350869 
0.0306197 0.0266437 0.0232493 0.020531 0.0185836 0.0174941 0.129899 0.130349 0.130151 
0.129313 0.127852 0.12579 0.123153 0.119972 0.116284 0.112127 0.107546 0.102587 
0.0973005 0.0917391 0.0859572 0.0800111 0.0739587 0.0678593 0.0617732 0.0557621 0.0498894 
0.0442204 0.0388235 0.0337712 0.0291415 0.0250193 0.0214976 0.0186754 0.0166551 0.0155342 
0.133175 0.133617 0.133376 0.132462 0.130894 0.128693 0.12589 0.122518 0.118615 
0.114224 0.109394 0.104173 0.0986154 0.0927778 0.0867182 0.0804964 0.0741736 0.0678121 
0.061475 0.0552262 0.0491306 0.0432548 0.0376676 0.0324415 0.0276543 0.0233914 0.0197468 
0.0168235 0.0147312 0.0135785 0.136656 0.137089 0.136803 0.135807 0.134122 0.131773 
0.128791 0.125213 0.121081 0.116441 0.111343 0.105843 0.0999975 0.093867 0.0875138 
0.0810016 0.0743955 0.067761 0.0611644 0.0546719 0.0483505 0.0422677 0.036493 0.0310985 
0.0261612 0.0217653 0.0180053 0.0149862 0.012824 0.0116399 0.140362 0.140785 0.140448 
0.139364 0.137554 0.135045 0.131872 0.128073 0.123695 0.118787 0.113404 0.107606 
0.101454 0.095012 0.0883479 0.0815293 0.0746255 0.0677058 0.06084 0.0540972 0.0475465 
0.0412571 0.0352985 0.0297424 0.0246642 0.0201464 0.0162815 0.0131749 0.0109473 0.00973268 
0.144311 0.144723 0.144333 0.143154 0.141209 0.138528 0.135148 0.131112 0.12647 
0.121276 0.115588 0.109472 0.102993 0.09622 0.089226 0.0820835 0.0748661 0.0676478 
0.0605019 0.0535012 0.0467172 0.0402209 0.0340824 0.0283728 0.0231655 0.0185398 0.0145847 
0.0114031 0.00911772 0.00787487 0.148527 0.148927 0.148478 0.147196 0.145105 0.142239 
0.138638 0.134348 0.129423 0.123922 0.11791 0.111453 0.104625 0.0975006 0.0901564 
0.0826707 0.0751225 0.0675904 0.0601523 0.0528847 0.0458623 0.0391583 0.0328439 0.0269897 
0.0216669 0.0169507 0.0129247 0.00968623 0.00735528 0.00608855 0.153031 0.153416 0.152905 
0.151512 0.149264 0.1462 0.142361 0.137799 0.132572 0.126744 0.120383 0.113564 
0.106365 0.098866 0.09115 0.083301 0.0754035 0.0675413 0.0597974 0.0522526 0.0449855 
0.038072 0.031585 0.025595 0.0201715 0.0153852 0.0113128 0.00804233 0.00568509 0.00440254 