# vtk DataFile Version 5.1
vtk output
ASCII
DATASET UNSTRUCTURED_GRID
POINTS 4929 double
0.1016 1.5 0.0051008639857 0.1016 1.45 0.002049474977 0.1016 1.4 0.00506520411 
0.1016 1.35 0.0041106543504 0.1016 1.3 0.0081110065803 0.1016 1.25 0.012290794402 
0.1016 1.2 0.019966604188 0.1016 1.15 0.025094944984 0.1016 1.1 0.025078719482 
0.1016 1.05 0.022677920759 0.1016 1 0.032476659864 0.1016 0.95 0.032933618873 
0.1016 0.9 0.033451445401 0.1016 0.85 0.035705879331 0.1016 0.8 0.041013989598 
0.1016 0.75 0.042368419468 0.1016 0.7 0.0461948663 0.1016 0.65 0.04613398388 
0.1016 0.6 0.037831872702 0.1016 0.55 0.028481155634 0.1016 0.5 0.029335644096 
0.1016 0.45 0.038272794336 0.1016 0.4 0.042588032782 0.1016 0.35 0.038786359131 
0.1016 0.3 0.028780227527 0.1016 0.25 0.029886942357 0.1016 0.2 0.03069373779 
0.1016 0.15 0.029957069084 0.1016 0.1 0.028933888301 0.1016 0.05 0.025441842154 
0.1016 0 0.018521258608 5.08 1.5 0.28700000048 5.08 1.45 0.28700000048 
5.08 1.4 0.28700000048 5.08 1.35 0.28700000048 5.08 1.3 0.28700000048 
5.08 1.25 0.28700000048 5.08 1.2 0.28700000048 5.08 1.15 0.28700000048 
5.08 1.1 0.28700000048 5.08 1.05 0.28700000048 5.08 1 0.28700000048 
5.08 0.95 0.28700000048 5.08 0.9 0.28700000048 5.08 0.85 0.28700000048 
5.08 0.8 0.28700000048 5.08 0.75 0.28700000048 5.08 0.7 0.28700000048 
5.08 0.65 0.28700000048 5.08 0.6 0.28700000048 5.08 0.55 0.28700000048 
5.08 0.5 0.28700000048 5.08 0.45 0.28700000048 5.08 0.4 0.28700000048 
5.08 0.35 0.28700000048 5.08 0.3 0.28700000048 5.08 0.25 0.28700000048 
5.08 0.2 0.28700000048 5.08 0.15 0.28700000048 5.08 0.1 0.28700000048 
5.08 0.05 0.28700000048 5.08 0 0.28700000048 0.12737462728 1.5 0.011451257393 
0.12737462728 1.45 0.00984613318 0.12737462728 1.4 0.016588030383 0.12737462728 1.35 0.011641266756 
0.12737462728 1.3 0.017542758957 0.12737462728 1.25 0.01878144592 0.12737462728 1.2 0.027895325795 
0.12737462728 1.15 0.031796194613 0.12737462728 1.1 0.032221138477 0.12737462728 1.05 0.023695688695 
0.12737462728 1 0.041573602706 0.12737462728 0.95 0.03687749058 0.12737462728 0.9 0.038044746965 
0.12737462728 0.85 0.038931146264 0.12737462728 0.8 0.047997388989 0.12737462728 0.75 0.047483872622 
0.12737462728 0.7 0.054482486099 0.12737462728 0.65 0.055736739188 0.12737462728 0.6 0.045881677419 
0.12737462728 0.55 0.033524759114 0.12737462728 0.5 0.034645531327 0.12737462728 0.45 0.047515962273 
0.12737462728 0.4 0.05206381157 0.12737462728 0.35 0.049057785422 0.12737462728 0.3 0.033144999295 
0.12737462728 0.25 0.039312172681 0.12737462728 0.2 0.040407545865 0.12737462728 0.15 0.040404133499 
0.12737462728 0.1 0.040028110147 0.12737462728 0.05 0.037931066006 0.12737462728 0 0.02696220018 
0.15441581276 1.5 0.024581767619 0.15441581276 1.45 0.023404693231 0.15441581276 1.4 0.035583559424 
0.15441581276 1.35 0.025790696964 0.15441581276 1.3 0.034478094429 0.15441581276 1.25 0.031578402966 
0.15441581276 1.2 0.042406018823 0.15441581276 1.15 0.041982013732 0.15441581276 1.1 0.044908802956 
0.15441581276 1.05 0.029528331012 0.15441581276 1 0.055659845471 0.15441581276 0.95 0.044131867588 
0.15441581276 0.9 0.046721477062 0.15441581276 0.85 0.044853691012 0.15441581276 0.8 0.058754697442 
0.15441581276 0.75 0.05611462146 0.15441581276 0.7 0.067158289254 0.15441581276 0.65 0.069076478481 
0.15441581276 0.6 0.059271514416 0.15441581276 0.55 0.045579686761 0.15441581276 0.5 0.0452407673 
0.15441581276 0.45 0.061100706458 0.15441581276 0.4 0.064114749432 0.15441581276 0.35 0.062812045217 
0.15441581276 0.3 0.041434425861 0.15441581276 0.25 0.052921805531 0.15441581276 0.2 0.054407063872 
0.15441581276 0.15 0.055379431695 0.15441581276 0.1 0.054260164499 0.15441581276 0.05 0.054096866399 
0.15441581276 0 0.040675673634 0.18278579477 1.5 0.04745914042 0.18278579477 1.45 0.043291855603 
0.18278579477 1.4 0.058280989528 0.18278579477 1.35 0.05116384849 0.18278579477 1.3 0.055820345879 
0.18278579477 1.25 0.054032497108 0.18278579477 1.2 0.062894128263 0.18278579477 1.15 0.056048449129 
0.18278579477 1.1 0.05830706656 0.18278579477 1.05 0.051329091191 0.18278579477 1 0.065608106554 
0.18278579477 0.95 0.060743782669 0.18278579477 0.9 0.057821117342 0.18278579477 0.85 0.057748928666 
0.18278579477 0.8 0.070550128818 0.18278579477 0.75 0.072372853756 0.18278579477 0.7 0.084011338651 
0.18278579477 0.65 0.084593951702 0.18278579477 0.6 0.077550582588 0.18278579477 0.55 0.068241775036 
0.18278579477 0.5 0.063042886555 0.18278579477 0.45 0.077231936157 0.18278579477 0.4 0.080177843571 
0.18278579477 0.35 0.07473833859 0.18278579477 0.3 0.061985559762 0.18278579477 0.25 0.066438697278 
0.18278579477 0.2 0.074512161314 0.18278579477 0.15 0.075036033988 0.18278579477 0.1 0.07223932445 
0.18278579477 0.05 0.069996744394 0.18278579477 0 0.064606405795 0.21254987001 1.5 0.073715373874 
0.21254987001 1.45 0.06491599232 0.21254987001 1.4 0.081843391061 0.21254987001 1.35 0.0784175843 
0.21254987001 1.3 0.079659342766 0.21254987001 1.25 0.078597694635 0.21254987001 1.2 0.086772561073 
0.21254987001 1.15 0.074046291411 0.21254987001 1.1 0.074916370213 0.21254987001 1.05 0.075056038797 
0.21254987001 1 0.080048762262 0.21254987001 0.95 0.083277255297 0.21254987001 0.9 0.075530864298 
0.21254987001 0.85 0.078369900584 0.21254987001 0.8 0.09133811295 0.21254987001 0.75 0.093518510461 
0.21254987001 0.7 0.10418599099 0.21254987001 0.65 0.10377533734 0.21254987001 0.6 0.098720289767 
0.21254987001 0.55 0.091760829091 0.21254987001 0.5 0.083800815046 0.21254987001 0.45 0.097987323999 
0.21254987001 0.4 0.099998392165 0.21254987001 0.35 0.091131366789 0.21254987001 0.3 0.084255695343 
0.21254987001 0.25 0.085289493203 0.21254987001 0.2 0.096293322742 0.21254987001 0.15 0.096342325211 
0.21254987001 0.1 0.092459186912 0.21254987001 0.05 0.090692438185 0.21254987001 0 0.089766062796 
0.24377654385 1.5 0.10012881458 0.24377654385 1.45 0.087072230875 0.24377654385 1.4 0.1009119153 
0.24377654385 1.35 0.10549413413 0.24377654385 1.3 0.10179160535 0.24377654385 1.25 0.10261013359 
0.24377654385 1.2 0.1095129028 0.24377654385 1.15 0.09800721705 0.24377654385 1.1 0.092703267932 
0.24377654385 1.05 0.099017865956 0.24377654385 1 0.097250528634 0.24377654385 0.95 0.11153569818 
0.24377654385 0.9 0.09705363214 0.24377654385 0.85 0.10663700104 0.24377654385 0.8 0.11960224062 
0.24377654385 0.75 0.1181210503 0.24377654385 0.7 0.12507902086 0.24377654385 0.65 0.12651593983 
0.24377654385 0.6 0.12026075274 0.24377654385 0.55 0.11022412777 0.24377654385 0.5 0.10594630241 
0.24377654385 0.45 0.12194273621 0.24377654385 0.4 0.12395484 0.24377654385 0.35 0.11261679977 
0.24377654385 0.3 0.10575274378 0.24377654385 0.25 0.11046814173 0.24377654385 0.2 0.1177938804 
0.24377654385 0.15 0.11784746498 0.24377654385 0.1 0.11337774247 0.24377654385 0.05 0.11531123519 
0.24377654385 0 0.11131079495 0.27653768798 1.5 0.13091342151 0.27653768798 1.45 0.11118394136 
0.27653768798 1.4 0.12018386275 0.27653768798 1.35 0.13214677572 0.27653768798 1.3 0.12749637663 
0.27653768798 1.25 0.1251757592 0.27653768798 1.2 0.13225674629 0.27653768798 1.15 0.12300894409 
0.27653768798 1.1 0.11948722601 0.27653768798 1.05 0.12347470969 0.27653768798 1 0.1203879118 
0.27653768798 0.95 0.13370445371 0.27653768798 0.9 0.11954210699 0.27653768798 0.85 0.13193181157 
0.27653768798 0.8 0.14198091626 0.27653768798 0.75 0.14203239977 0.27653768798 0.7 0.14657789469 
0.27653768798 0.65 0.14975823462 0.27653768798 0.6 0.13891389966 0.27653768798 0.55 0.13036052883 
0.27653768798 0.5 0.13041193783 0.27653768798 0.45 0.14530676603 0.27653768798 0.4 0.14810104668 
0.27653768798 0.35 0.13711825013 0.27653768798 0.3 0.13248060644 0.27653768798 0.25 0.13735964894 
0.27653768798 0.2 0.14223642647 0.27653768798 0.15 0.14374123514 0.27653768798 0.1 0.13347238302 
0.27653768798 0.05 0.13199786842 0.27653768798 0 0.13392473757 0.31090870586 1.5 0.16003118455 
0.31090870586 1.45 0.13863104582 0.31090870586 1.4 0.14442402124 0.31090870586 1.35 0.15735737979 
0.31090870586 1.3 0.15417864919 0.31090870586 1.25 0.14703935385 0.31090870586 1.2 0.15778958797 
0.31090870586 1.15 0.15059837699 0.31090870586 1.1 0.15079344809 0.31090870586 1.05 0.14915341139 
0.31090870586 1 0.14536586404 0.31090870586 0.95 0.15846510231 0.31090870586 0.9 0.14899712801 
0.31090870586 0.85 0.1583058387 0.31090870586 0.8 0.1615229696 0.31090870586 0.75 0.16521050036 
0.31090870586 0.7 0.16787049174 0.31090870586 0.65 0.17231547832 0.31090870586 0.6 0.15851344168 
0.31090870586 0.55 0.15460930765 0.31090870586 0.5 0.15479564667 0.31090870586 0.45 0.16631856561 
0.31090870586 0.4 0.17065066099 0.31090870586 0.35 0.16236953437 0.31090870586 0.3 0.16172729433 
0.31090870586 0.25 0.16438269615 0.31090870586 0.2 0.16892538965 0.31090870586 0.15 0.17194961011 
0.31090870586 0.1 0.15607187152 0.31090870586 0.05 0.14904627204 0.31090870586 0 0.15790654719 
0.34696870625 1.5 0.17580699921 0.34696870625 1.45 0.17000454664 0.34696870625 1.4 0.17637221515 
0.34696870625 1.35 0.17722898722 0.34696870625 1.3 0.17967090011 0.34696870625 1.25 0.17115367949 
0.34696870625 1.2 0.18683505058 0.34696870625 1.15 0.18195839226 0.34696870625 1.1 0.17719975114 
0.34696870625 1.05 0.1733148545 0.34696870625 1 0.17093542218 0.34696870625 0.95 0.19175061584 
0.34696870625 0.9 0.19455139339 0.34696870625 0.85 0.18954505026 0.34696870625 0.8 0.18979814649 
0.34696870625 0.75 0.1907158792 0.34696870625 0.7 0.18993453681 0.34696870625 0.65 0.1921697855 
0.34696870625 0.6 0.18480412662 0.34696870625 0.55 0.18225993216 0.34696870625 0.5 0.17682880163 
0.34696870625 0.45 0.18617415428 0.34696870625 0.4 0.19262395799 0.34696870625 0.35 0.18794059753 
0.34696870625 0.3 0.18942664564 0.34696870625 0.25 0.18929900229 0.34696870625 0.2 0.19736672938 
0.34696870625 0.15 0.19470654428 0.34696870625 0.1 0.186554268 0.34696870625 0.05 0.18083846569 
0.34696870625 0 0.18196603656 0.3848006853 1.5 0.19157588482 0.3848006853 1.45 0.1948005259 
[...]
CELL_DATA 4740
FIELD FieldData 7
B_Stress_n_p_m2 1 4740 float
0.0472288 0.0588478 0.0627817 0.0702373 0.0742156 0.0767222 0.078209 0.0787907 0.0778587 
0.0788855 0.078879 0.0785081 0.0784176 0.0795088 0.0801163 0.0811676 0.0822072 0.0820214 
0.0808824 0.0809535 0.08312 0.0853053 0.0861756 0.0845494 0.0835742 0.0817629 0.0774693 
0.0695876 0.0659254 0.0539511 0.139278 0.0291333 0.0560898 0.0691509 0.0751584 0.0805102 
0.08341 0.0864947 0.0854139 0.087428 0.0880103 0.0876419 0.0873621 0.0890363 0.0899546 
0.091542 0.0935218 0.0946415 0.0941501 0.0930422 0.0940601 0.0941472 0.0940144 0.0899906 
0.0866179 0.0826247 0.0763835 0.0622299 0.0314749 0.158552 0.0816196 0.0464052 0.062911 
0.0731633 0.0790718 0.0825508 0.0840261 0.0854264 0.0858466 0.0855969 0.0867831 0.0854101 
0.0854638 0.0863674 0.0881128 0.0897508 0.0915459 0.0927223 0.0928365 0.0917251 0.092213 
0.0928441 0.092394 0.0907613 0.0874415 0.0850563 0.079432 0.067903 0.0502883 0.092556 
0.0733713 0.0611205 0.0712033 0.0793274 0.0850236 0.0884576 0.0895338 0.0899582 0.0913014 
0.0913034 0.0923351 0.0911581 0.0914704 0.0926725 0.0943526 0.0963196 0.0981589 0.0991513 
0.0994398 0.0987338 0.098716 0.0988658 0.097543 0.095657 0.0929403 0.0899204 0.0848782 
0.0758228 0.0664134 0.0819648 0.0811678 0.0741695 0.0812047 0.0875192 0.0924488 0.0960993 
0.0975819 0.0976545 0.0991619 0.0998716 0.100869 0.100227 0.100964 0.102991 0.104807 
0.106495 0.108339 0.108731 0.108597 0.108306 0.108455 0.108522 0.106343 0.103437 
0.100995 0.097423 0.0928214 0.0856735 0.0805266 0.089557 0.0904684 0.0872917 0.092599 
0.0980102 0.101487 0.105251 0.107263 0.108261 0.109204 0.110301 0.110886 0.111017 
0.111468 0.113973 0.116439 0.118037 0.119758 0.119477 0.11881 0.118443 0.119195 
0.119679 0.117282 0.114002 0.111292 0.108063 0.103707 0.0974001 0.0932688 0.0973081 
0.103538 0.101901 0.105464 0.110558 0.11297 0.116707 0.119575 0.121353 0.122341 
0.123286 0.124821 0.12593 0.12544 0.127045 0.128976 0.130898 0.132699 0.132495 
0.131155 0.13031 0.131267 0.132092 0.13004 0.127047 0.124383 0.12167 0.117445 
0.111967 0.106976 0.106865 0.118904 0.118601 0.121343 0.125838 0.128244 0.13146 
0.135262 0.13692 0.138189 0.139649 0.143043 0.146592 0.146066 0.14638 0.145766 
0.146681 0.148157 0.148465 0.147205 0.145684 0.145891 0.147044 0.145959 0.14337 
0.140694 0.138533 0.134359 0.13006 0.125263 0.122657 0.134735 0.136744 0.141173 
0.145638 0.149666 0.152484 0.155893 0.157179 0.158571 0.160884 0.165088 0.169969 
0.1718 0.17222 0.170426 0.168416 0.168288 0.167698 0.167442 0.166572 0.165723 
0.167051 0.167846 0.166077 0.16306 0.160668 0.157254 0.152431 0.149348 0.147517 
0.156798 0.158756 0.163197 0.169855 0.175955 0.18125 0.183718 0.184202 0.186286 
0.187527 0.19136 0.195528 0.197661 0.199426 0.200412 0.196706 0.193419 0.191967 
0.190727 0.191717 0.191277 0.191791 0.194209 0.194217 0.192003 0.188687 0.186092 
0.180786 0.177811 0.178547 0.186634 0.186677 0.188875 0.194072 0.200388 0.20665 
0.210805 0.211284 0.212877 0.21402 0.214355 0.216584 0.218094 0.219434 0.221939 
0.220311 0.217279 0.215781 0.214049 0.214675 0.215061 0.214444 0.215002 0.21619 
0.215531 0.212404 0.210494 0.206931 0.203591 0.206501 0.211612 0.210098 0.211624 
0.212791 0.216492 0.218664 0.222592 0.224302 0.224246 0.226735 0.224799 0.224505 
0.224963 0.225449 0.22614 0.226765 0.227503 0.227501 0.228163 0.227152 0.226838 
0.225743 0.223182 0.223151 0.222242 0.220778 0.218853 0.218103 0.216437 0.21945 
0.221072 0.219075 0.220097 0.221237 0.222315 0.223171 0.223385 0.225169 0.225806 
0.225515 0.226275 0.22543 0.224446 0.224163 0.224821 0.225517 0.226373 0.228371 
0.229494 0.22936 0.227735 0.226125 0.224465 0.222588 0.221396 0.220406 0.218698 
0.218372 0.218884 0.219697 0.226394 0.224363 0.225216 0.225954 0.227449 0.228606 
0.229624 0.230737 0.231529 0.231475 0.231964 0.231863 0.231515 0.231266 0.231799 
0.232507 0.23278 0.23392 0.234317 0.233956 0.232542 0.231245 0.229679 0.227937 
0.226781 0.225186 0.223387 0.222249 0.222032 0.221525 0.233401 0.232121 0.234162 
0.236078 0.23809 0.240011 0.241896 0.24371 0.245284 0.246041 0.246796 0.247355 
0.247667 0.247703 0.247874 0.248396 0.248388 0.248535 0.248412 0.248026 0.246837 
0.245433 0.243851 0.241547 0.239593 0.237265 0.234814 0.231805 0.229521 0.227927 
0.232499 0.235601 0.238588 0.24147 0.24385 0.24612 0.248282 0.250316 0.252132 
0.253693 0.254722 0.255459 0.256085 0.256484 0.256559 0.256681 0.256866 0.25653 
0.256011 0.255308 0.254499 0.2532 0.251482 0.249443 0.246899 0.244238 0.241444 
0.238452 0.235109 0.232297 0.232728 0.235903 0.238771 0.24143 0.243777 0.245925 
0.24789 0.249667 0.251222 0.252533 0.253516 0.254249 0.25481 0.255185 0.255362 
0.255453 0.255459 0.255194 0.254728 0.254055 0.253181 0.251975 0.25044 0.248609 
0.246434 0.244043 0.24145 0.238648 0.235629 0.232805 0.233283 0.236357 0.239158 
0.24171 0.243994 0.246044 0.247877 0.249495 0.25089 0.252052 0.252971 0.253675 
0.254199 0.254552 0.254748 0.254816 0.254751 0.254498 0.254057 0.253415 0.252555 
0.251432 0.250032 0.248358 0.246404 0.244204 0.241769 0.239101 0.236222 0.233227 
0.233712 0.236784 0.239568 0.242071 0.244299 0.246272 0.248008 0.249517 0.250805 
0.251875 0.252733 0.253398 0.253891 0.254225 0.254411 0.254461 0.25437 0.254117 
0.253691 0.25308 0.252263 0.251215 0.249921 0.248371 0.24656 0.244494 0.242174 
0.239597 0.23677 0.233708 0.234062 0.237135 0.239898 0.24236 0.244534 0.24644 
0.248096 0.249518 0.250719 0.251714 0.252513 0.253134 0.253594 0.253904 0.254075 
0.254112 0.254012 0.253765 0.253358 0.252779 0.25201 0.25103 0.249823 0.248375 
0.246673 0.244711 0.24248 0.239972 0.237181 0.234107 0.23436 0.23743 0.240173 
0.242599 0.244726 0.246574 0.248164 0.249516 0.250648 0.251579 0.252325 0.252904 
0.253331 0.253617 0.253772 0.2538 0.253698 0.25346 0.253074 0.252528 0.251804 
0.250884 0.24975 0.248382 0.246766 0.244884 0.242723 0.240268 0.237507 0.234433 
0.234612 0.237679 0.240405 0.242801 0.244888 0.246687 0.248221 0.249515 0.25059 
0.251468 0.252168 0.252708 0.253104 0.253369 0.253509 0.25353 0.253429 0.253201 
0.252836 0.252321 0.251639 0.250771 0.249697 0.248395 0.246845 0.245027 0.242921 
0.240507 0.23777 0.2347 0.234826 0.237891 0.240601 0.242971 0.245023 0.24678 
0.248269 0.249514 0.250541 0.251373 0.252033 0.252539 0.252908 0.253152 0.253279 
0.253295 0.253197 0.25298 0.252636 0.252149 0.251504 0.250681 0.249657 0.248409 
0.246913 0.245145 0.243082 0.240702 0.237986 0.234919 0.23501 0.238072 0.240768 
0.243116 0.245137 0.246859 0.248308 0.249511 0.250497 0.25129 0.251914 0.25239 
0.252735 0.252961 0.253078 0.25309 0.252995 0.25279 0.252464 0.252004 0.251391 
0.250606 0.249624 0.248421 0.24697 0.245243 0.243216 0.240863 0.238164 0.2351 
0.235171 0.23823 0.240913 0.24324 0.245235 0.246925 0.248339 0.249507 0.250456 
0.251215 0.251809 0.252258 0.252581 0.252792 0.252899 0.252908 0.252818 0.252623 
0.252314 0.251877 0.251294 0.250542 0.249597 0.248432 0.247018 0.245326 0.243329 
0.240999 0.238314 0.235254 0.235314 0.238369 0.241041 0.24335 0.245321 0.246982 
0.248365 0.2495 0.250417 0.251146 0.251712 0.252137 0.252442 0.252639 0.252738 
0.252745 0.252658 0.252473 0.252181 0.251765 0.251207 0.250485 0.249573 0.248441 
0.247059 0.245398 0.243427 0.241117 0.238445 0.235388 0.235444 0.238497 0.241157 
0.243449 0.245397 0.247032 0.248386 0.249491 0.250379 0.25108 0.25162 0.252024 
0.252311 0.252496 0.252589 0.252594 0.252511 0.252336 0.252058 0.251662 0.251128 
0.250433 0.249549 0.248448 0.247096 0.245462 0.243514 0.241223 0.238562 0.235509 
0.235568 0.238616 0.241266 0.24354 0.245467 0.247077 0.248403 0.24948 0.25034 
0.251015 0.251532 0.251916 0.252187 0.252361 0.252447 0.252451 0.252372 0.252206 
0.251942 0.251564 0.251053 0.250383 0.249527 0.248453 0.247129 0.245521 0.243596 
0.241322 0.238672 0.235623 0.235688 0.238732 0.241371 0.243628 0.245533 0.247118 
0.248417 0.249466 0.2503 0.250949 0.251444 0.251809 0.252065 0.252228 0.252309 
0.252312 0.252237 0.25208 0.251829 0.251469 0.250979 0.250334 0.249504 0.248458 
0.247161 0.245578 0.243674 0.241417 0.238779 0.235734 0.235808 0.238847 0.241475 
0.243715 0.245598 0.247157 0.248429 0.249451 0.250257 0.250881 0.251354 0.2517 
0.251942 0.252095 0.25217 0.252172 0.252102 0.251954 0.251716 0.251374 0.250905 
0.250284 0.249481 0.248462 0.247192 0.245634 0.243752 0.241513 0.238886 0.235846 
0.235931 0.238966 0.241581 0.243803 0.245662 0.247196 0.24844 0.249432 0.250211 
0.25081 0.25126 0.251588 0.251816 0.251959 0.252029 0.25203 0.251964 0.251825 
0.251601 0.251276 0.250829 0.250233 0.249456 0.248466 0.247223 0.245692 0.243833 
0.241612 0.238997 0.235962 0.236061 0.23909 0.241692 0.243894 0.245729 0.247234 
0.248449 0.249412 0.250162 0.250735 0.251162 0.251471 0.251684 0.251817 0.251881 
0.251883 0.251821 0.251691 0.251481 0.251174 0.250749 0.250179 0.249431 0.248469 
0.247256 0.245752 0.243918 0.241716 0.239115 0.236086 0.2362 0.239222 0.24181 
0.24399 0.245799 0.247274 0.248457 0.249388 0.250108 0.250653 0.251057 0.251346 
0.251544 0.251667 0.251726 0.251727 0.25167 0.25155 0.251354 0.251066 0.250665 
0.250121 0.249403 0.248473 0.247291 0.245817 0.244009 0.241829 0.239242 0.236219 
0.236351 0.239366 0.241937 0.244094 0.245873 0.247316 0.248464 0.249361 0.250049 
0.250565 0.250943 0.251212 0.251395 0.251507 0.251561 0.251562 0.25151 0.251399 
0.251218 0.250951 0.250574 0.250059 0.249372 0.248476 0.247329 0.245888 0.244109 
0.241952 0.239381 0.236366 0.236516 0.239523 0.242076 0.244207 0.245954 0.24736 
0.24847 0.24933 0.249983 0.250468 0.25082 0.251068 0.251234 0.251335 0.251384 
0.251384 0.251337 0.251237 0.251072 0.250826 0.250475 0.249991 0.249339 0.24848 
0.24737 0.245965 0.244218 0.242087 0.239534 0.236527 0.236699 0.239696 0.242229 
0.24433 0.246041 0.247407 0.248475 0.249295 0.24991 0.250362 0.250686 0.250911 
0.25106 0.25115 0.251193 0.251193 0.251152 0.251062 0.250914 0.25069 0.250367 
0.249916 0.249302 0.248483 0.247414 0.246049 0.244339 0.242238 0.239705 0.236707 
0.236902 0.239889 0.242398 0.244466 0.246136 0.247457 0.248479 0.249254 0.249829 
0.250245 0.250539 0.25074 0.250871 0.25095 0.250987 0.250987 0.250951 0.250873 
0.250743 0.250542 0.250249 0.249834 0.249259 0.248485 0.247462 0.246142 0.244472 
0.242405 0.239895 0.236909 0.237131 0.240105 0.242587 0.244616 0.24624 0.24751 
0.248481 0.249207 0.249738 0.250115 0.250377 0.250553 0.250666 0.250733 0.250763 
0.250764 0.250733 0.250668 0.250555 0.25038 0.250118 0.249741 0.249211 0.248485 
0.247514 0.246244 0.244621 0.242592 0.240109 0.237135 0.237389 0.240348 0.242799 
0.244784 0.246354 0.247566 0.24848 0.249152 0.249634 0.249971 0.250199 0.250349 
0.250443 0.250497 0.250522 0.250522 0.250497 0.250444 0.25035 0.250201 0.249973 
0.249637 0.249155 0.248483 0.247569 0.246357 0.244787 0.242802 0.240351 0.237392 
0.237682 0.240623 0.243038 0.24497 0.246478 0.247625 0.248475 0.249087 0.249516 
0.249809 0.250002 0.250124 0.250199 0.250241 0.250259 0.250259 0.250241 0.2502 
0.250125 0.250003 0.24981 0.249518 0.249089 0.248477 0.247628 0.246481 0.244973 
0.24304 0.240626 0.237685 0.238018 0.240938 0.243308 0.245178 0.246614 0.247686 
0.248463 0.249009 0.249381 0.249627 0.249783 0.249878 0.249933 0.249962 0.249975 
0.249975 0.249963 0.249933 0.249878 0.249783 0.249628 0.249382 0.24901 0.248464 
0.247688 0.246616 0.24518 0.243309 0.24094 0.23802 0.238406 0.2413 0.243615 
0.245411 0.246762 0.247746 0.24844 0.248914 0.249225 0.249421 0.249539 0.249607 
0.249643 0.24966 0.249667 0.249667 0.249661 0.249643 0.249607 0.24954 0.249422 
0.249225 0.248915 0.248441 0.247747 0.246763 0.245412 0.243616 0.241301 0.238408 
0.238859 0.241719 0.243966 0.245671 0.24692 0.247803 0.248404 0.248797 0.249042 
0.249188 0.249268 0.249309 0.249327 0.249333 0.249335 0.249335 0.249333 0.249327 
0.249309 0.249269 0.249188 0.249043 0.248797 0.248404 0.247803 0.246921 0.245672 
0.243967 0.24172 0.23886 0.239395 0.24221 0.244369 0.24596 0.247085 0.247849 
0.248345 0.248651 0.248829 0.248923 0.248967 0.248982 0.248983 0.24898 0.248977 
0.248977 0.24898 0.248983 0.248982 0.248967 0.248923 0.248829 0.248651 0.248345 
0.24785 0.247086 0.24596 0.24437 0.24221 0.239395 0.240036 0.24279 0.244833 
0.246277 0.247251 0.247876 0.248254 0.248468 0.248576 0.248622 0.248631 0.248624 
0.248612 0.2486 0.248594 0.248594 0.2486 0.248612 0.248625 0.248632 0.248622 
0.248577 0.248468 0.248255 0.247876 0.247251 0.246277 0.244833 0.24279 0.240036 
0.240818 0.243483 0.245363 0.246615 0.247402 0.247866 0.248118 0.248238 0.24828 
0.248281 0.248263 0.248238 0.248216 0.248199 0.24819 0.24819 0.248199 0.248216 
0.248239 0.248263 0.248281 0.24828 0.248238 0.248118 0.247866 0.247402 0.246615 
0.245363 0.243483 0.240818 0.241809 0.244328 0.245966 0.246956 0.247512 0.247794 
0.247915 0.247946 0.247931 0.247898 0.247859 0.247824 0.247796 0.247777 0.247767 
0.247767 0.247777 0.247796 0.247824 0.24786 0.247898 0.247931 0.247946 0.247915 
0.247794 0.247512 0.246957 0.245966 0.244328 0.241809 0.243135 0.245369 0.24661 
0.247235 0.247512 0.247604 0.247605 0.247566 0.247516 0.247466 0.247422 0.247387 
0.247362 0.247345 0.247337 0.247337 0.247345 0.247362 0.247387 0.247422 0.247466 
0.247516 0.247566 0.247605 0.247604 0.247512 0.247235 0.24661 0.245369 0.243135 
0.244767 0.246362 0.24703 0.247269 0.247321 0.247299 0.247253 0.247204 0.24716 
0.247124 0.247096 0.247076 0.247062 0.247053 0.247048 0.247048 0.247053 0.247062 
0.247076 0.247096 0.247124 0.24716 0.247204 0.247253 0.247299 0.247321 0.247269 
0.24703 0.246362 0.244767 620.365 1120.95 1311.75 1448.71 1535.91 1588.43 
1612.68 1611.52 1601.12 1592.97 1589.74 1585.47 1577.07 1566.89 1561.71 
1561.71 1564 1575.14 1594.18 1602.07 1595.97 1592.65 1593.09 1589.19 
1568.06 1522.28 1433.76 1281.14 1074.96 585.849 492.626 1004.83 1224.2 
1363.55 1448.96 1495.03 1515.15 1518.65 1512.91 1504.89 1498.63 1494.27 
1489.5 1485.27 1483.24 1483.12 1486.53 1495.48 1507.54 1516.47 1520.4 
1523.05 1527.13 1525.76 1507.96 1462.97 1373.1 1223.29 994.355 484.801 
450.737 902.396 1135.62 1280.34 1364.77 1406.92 1424.83 1430.35 1428.06 
1421.11 1414.33 1410.23 1408.05 1407.55 1408.27 1409.23 1412.79 1419.32 
1427.47 1437.38 1447.82 1456.57 1464.1 1465.13 1449.54 1405.61 1315.45 
1162.53 920.626 462.94 439.109 830.736 1064.93 1210.25 1293.28 1333.9 
1351.55 1358.15 1358.27 1353.13 1347.52 1344.16 1343.83 1345.74 1348.76 
1351.24 1354.59 1358.81 1364.43 1374.78 1389.16 1402.69 1412.51 1414.43 
1399.41 1356.37 1267.61 1114.7 870.796 466.894 432.239 796.092 1017.88 
1156.32 1236.23 1276.25 1294.7 1301.95 1303.47 1300.48 1296.78 1294.32 
1295.33 1299.06 1304.08 1308.28 1311.78 1313.98 1317.3 1327.53 1344.6 
1361.73 1372.63 1373.8 1358.42 1316.73 1231.83 1086.19 853.9 472.786 
422.827 786.864 988.954 1116.35 1192.16 1232.29 1252.37 1260.27 1262.1 
1261.73 1260.05 1258.25 1260.13 1265.62 1272.35 1278.57 1283.03 1283.61 
1284.2 1293.66 1312.93 1332.85 1343.64 1342.03 1325.52 1285.32 1205.52 
1071.62 859.029 473.042 414.82 784.748 969.604 1088.36 1160.74 1201.87 
1224.15 1232.91 1233.42 1236.44 1236.34 1234.66 1236.72 1244.3 1252.34 
1261.01 1267.53 1267.03 1264.24 1272.23 1293.65 1315.86 1325.87 1319.25 
1301.26 1262.21 1186.53 1061.92 866.667 470.704 450.284 796.693 962.618 
1079.21 1148.54 1190.03 1213.48 1222.55 1219.1 1226.12 1226.49 1223.94 
1225.2 1235.64 1244.65 1256.2 1265.81 1264.47 1257.24 1263.17 1287.96 
1313.52 1323.85 1311.09 1292.89 1256.15 1183.49 1061.01 885.911 513.335 
0.0634283 0.0642278 0.0651291 0.0661267 0.0672119 0.0683747 0.0696029 0.0708826 0.0721986 
0.0735349 0.0748749 0.076202 0.0774999 0.0787527 0.0799454 0.081064 0.0820957 0.0830286 
0.0838525 0.0845583 0.0851381 0.0855851 0.0858939 0.0860598 0.086079 0.0859485 0.0856659 
0.0852291 0.0846357 0.083884 0.0628414 0.0636506 0.0645698 0.0655936 0.0667136 0.0679188 
0.0691958 0.0705297 0.071904 0.0733013 0.0747039 0.076094 0.0774541 0.0787674 0.0800181 
0.0811914 0.0822738 0.0832533 0.0841192 0.0848623 0.0854747 0.0859498 0.0862821 0.0864674 
0.0865021 0.0863836 0.0861096 0.0856785 0.0850889 0.0843397 0.0624311 0.0632455 0.0641773 
0.0652208 0.0663671 0.0676044 0.0689185 0.0702932 0.0717111 0.0731537 0.0746022 0.0760379 
0.0774424 0.0787982 0.0800888 0.0812989 0.0824147 0.0834238 0.0843156 0.0850807 0.0857114 
0.0862014 0.0865455 0.0867397 0.0867807 0.0866664 0.0863949 0.0859649 0.0853751 0.0846246 
0.0619288 0.0627481 0.0636945 0.0647616 0.0659397 0.067216 0.0685751 0.0699996 0.0714708 
0.0729689 0.0744738 0.0759657 0.0774251 0.0788335 0.0801736 0.0814295 0.0825869 0.0836333 
0.0845575 0.0853505 0.0860046 0.0865136 0.0868727 0.0870783 0.0871277 0.0870189 0.0867506 
0.0863217 0.0857315 0.0849792 0.0614239 0.0622486 0.0632101 0.0643017 0.0655126 0.066829 
0.0682344 0.06971 0.0712357 0.0727904 0.0743527 0.0759015 0.0774162 0.0788774 0.0802669 
0.0815682 0.0827665 0.083849 0.0848044 0.0856237 0.0862994 0.0868255 0.0871978 0.0874129 
0.0874688 0.0873639 0.0870974 0.0866688 0.0860774 0.085323 0.0608944 0.0617246 0.0627022 
0.0638198 0.0650656 0.0664247 0.0678792 0.069409 0.0709925 0.0726072 0.0742302 0.0758391 
0.0774121 0.0789287 0.08037 0.0817187 0.0829595 0.0840791 0.0850665 0.0859124 0.0866096 
0.0871526 0.0875373 0.0877613 0.0878227 0.0877208 0.0874553 0.0870261 0.0864331 0.0856761 
0.0603493 0.0611854 0.06218 0.0633248 0.0646072 0.066011 0.067517 0.0691035 0.0707473 
0.0724244 0.0741105 0.0757816 0.0774149 0.0789887 0.080483 0.08188 0.0831638 0.0843209 
0.08534 0.0862119 0.0869297 0.0874884 0.0878843 0.0881155 0.0881811 0.0880809 0.0878151 
0.0873844 0.086789 0.0860291 0.0597872 0.0606297 0.0616421 0.0628156 0.0641364 0.0655871 
0.0671469 0.0687927 0.0704995 0.0722417 0.0739934 0.0757292 0.0774249 0.0790576 0.0806066 
0.082053 0.0833805 0.0845752 0.0856258 0.0865232 0.0872608 0.0878338 0.0882396 0.0884766 
0.0885448 0.0884447 0.0881774 0.087744 0.0871455 0.0863823 0.0592093 0.0600584 0.0610896 
0.0622931 0.0636542 0.0651539 0.06677 0.0684776 0.07025 0.0720599 0.0738797 0.0756826 
0.0774428 0.0791363 0.0807412 0.082238 0.0836098 0.0848423 0.085924 0.0868461 0.0876023 
0.0881883 0.0886022 0.0888432 0.0889122 0.0888105 0.0885402 0.088103 0.0875005 0.0867336 
0.0586156 0.0594717 0.0605226 0.0617576 0.0631607 0.0647117 0.0663865 0.0681584 0.0699992 
0.0718794 0.07377 0.0756423 0.0774691 0.0792252 0.0808875 0.0824358 0.0838523 0.0851226 
0.0862351 0.0871811 0.0879545 0.088552 0.0889721 0.0892151 0.0892829 0.0891778 0.0889027 
0.0884603 0.0878529 0.0870818 0.0580062 0.0588699 0.0599414 0.0612093 0.0626563 0.0642606 
0.0659966 0.0678355 0.0697472 0.0717006 0.0736645 0.0756086 0.0775043 0.0793249 0.0810461 
0.0826468 0.0841087 0.0854168 0.0865596 0.0875284 0.0883178 0.0889248 0.0893491 0.089592 
0.0896563 0.0895456 0.0892639 0.0888148 0.0882014 0.0874257 0.0573815 0.058253 0.0593461 
0.0606483 0.0621411 0.0638009 0.0656004 0.0675091 0.0694945 0.0715237 0.0735635 0.075582 
0.0775488 0.0794358 0.0812175 0.0828716 0.0843794 0.0857255 0.086898 0.0878886 0.0886924 
0.0893071 0.0897333 0.0899736 0.090032 0.0899134 0.0896229 0.0891654 0.0885449 0.0877639 
0.0567416 0.0576213 0.0587369 0.0600748 0.0616151 0.0633328 0.0651983 0.0671792 0.0692411 
0.0713488 0.0734674 0.0755628 0.077603 0.0795584 0.0814022 0.083111 0.0846654 0.0860493 
0.087251 0.0882624 0.0890788 0.0896991 0.0901248 0.0903597 0.0904095 0.0902803 0.0899788 
0.0895111 0.0888821 0.0880953 0.0560866 0.056975 0.058114 0.059489 0.0610787 0.0628562 
0.0647902 0.066846 0.0689871 0.0711761 0.0733761 0.0755512 0.0776673 0.0796931 0.0816007 
0.0833655 0.084967 0.086389 0.0876194 0.0886502 0.0894775 0.0901011 0.0905235 0.0907503 
0.0907883 0.0906457 0.0903306 0.0898506 0.0892118 0.0884183 0.0554172 0.0563146 0.0574779 
0.0588913 0.0605322 0.0623716 0.0643764 0.0665096 0.0687326 0.0710058 0.0732901 0.0755473 
0.0777418 0.0798404 0.0818136 0.0836357 0.0852852 0.0867453 0.0880038 0.0890528 0.0898892 
0.0905135 0.0909298 0.0911451 0.0911681 0.0910089 0.0906773 0.0901827 0.0895324 0.0887316 
0.0547336 0.0556405 0.0568289 0.0582821 0.0599758 0.0618792 0.063957 0.0661703 0.0684778 