# vtk DataFile Version 5.1
vtk output
ASCII
DATASET UNSTRUCTURED_GRID
POINTS 693 double
0.1016 1.5 0 0.1016 1.3125 0 0.1016 1.125 0 
0.1016 0.9375 0 0.1016 0.75 0 0.1016 0.5625 0 
0.1016 0.375 0 0.1016 0.1875 0 0.1016 0 0 
5.08 1.5 0 5.08 1.3125 0 5.08 1.125 0 
5.08 0.9375 0 5.08 0.75 0 5.08 0.5625 0 
5.08 0.375 0 5.08 0.1875 0 5.08 0 0 
0.300736 1.5 0 0.300736 1.3125 0 0.300736 1.125 0 
0.300736 0.9375 0 0.300736 0.75 0 0.300736 0.5625 0 
0.300736 0.375 0 0.300736 0.1875 0 0.300736 0 0 
0.499872 1.5 0 0.499872 1.3125 0 0.499872 1.125 0 
0.499872 0.9375 0 0.499872 0.75 0 0.499872 0.5625 0 
0.499872 0.375 0 0.499872 0.1875 0 0.499872 0 0 
0.699008 1.5 0 0.699008 1.3125 0 0.699008 1.125 0 
0.699008 0.9375 0 0.699008 0.75 0 0.699008 0.5625 0 
0.699008 0.375 0 0.699008 0.1875 0 0.699008 0 0 
0.898144 1.5 0 0.898144 1.3125 0 0.898144 1.125 0 
0.898144 0.9375 0 0.898144 0.75 0 0.898144 0.5625 0 
0.898144 0.375 0 0.898144 0.1875 0 0.898144 0 0 
1.09728 1.5 0 1.09728 1.3125 0 1.09728 1.125 0 
1.09728 0.9375 0 1.09728 0.75 0 1.09728 0.5625 0 
1.09728 0.375 0 1.09728 0.1875 0 1.09728 0 0 
1.296416 1.5 0 1.296416 1.3125 0 1.296416 1.125 0 
1.296416 0.9375 0 1.296416 0.75 0 1.296416 0.5625 0 
1.296416 0.375 0 1.296416 0.1875 0 1.296416 0 0 
1.495552 1.5 0 1.495552 1.3125 0 1.495552 1.125 0 
1.495552 0.9375 0 1.495552 0.75 0 1.495552 0.5625 0 
1.495552 0.375 0 1.495552 0.1875 0 1.495552 0 0 
1.694688 1.5 0 1.694688 1.3125 0 1.694688 1.125 0 
1.694688 0.9375 0 1.694688 0.75 0 1.694688 0.5625 0 
1.694688 0.375 0 1.694688 0.1875 0 1.694688 0 0 
1.893824 1.5 0 1.893824 1.3125 0 1.893824 1.125 0 
1.893824 0.9375 0 1.893824 0.75 0 1.893824 0.5625 0 
1.893824 0.375 0 1.893824 0.1875 0 1.893824 0 0 
2.09296 1.5 0 2.09296 1.3125 0 2.09296 1.125 0 
2.09296 0.9375 0 2.09296 0.75 0 2.09296 0.5625 0 
2.09296 0.375 0 2.09296 0.1875 0 2.09296 0 0 
2.292096 1.5 0 2.292096 1.3125 0 2.292096 1.125 0 
2.292096 0.9375 0 2.292096 0.75 0 2.292096 0.5625 0 
2.292096 0.375 0 2.292096 0.1875 0 2.292096 0 0 
2.491232 1.5 0 2.491232 1.3125 0 2.491232 1.125 0 
2.491232 0.9375 0 2.491232 0.75 0 2.491232 0.5625 0 
2.491232 0.375 0 2.491232 0.1875 0 2.491232 0 0 
2.690368 1.5 0 2.690368 1.3125 0 2.690368 1.125 0 
2.690368 0.9375 0 2.690368 0.75 0 2.690368 0.5625 0 
2.690368 0.375 0 2.690368 0.1875 0 2.690368 0 0 
2.889504 1.5 0 2.889504 1.3125 0 2.889504 1.125 0 
2.889504 0.9375 0 2.889504 0.75 0 2.889504 0.5625 0 
2.889504 0.375 0 2.889504 0.1875 0 2.889504 0 0 
3.08864 1.5 0 3.08864 1.3125 0 3.08864 1.125 0 
3.08864 0.9375 0 3.08864 0.75 0 3.08864 0.5625 0 
3.08864 0.375 0 3.08864 0.1875 0 3.08864 0 0 
3.287776 1.5 0 3.287776 1.3125 0 3.287776 1.125 0 
3.287776 0.9375 0 3.287776 0.75 0 3.287776 0.5625 0 
3.287776 0.375 0 3.287776 0.1875 0 3.287776 0 0 
3.486912 1.5 0 3.486912 1.3125 0 3.486912 1.125 0 
3.486912 0.9375 0 3.486912 0.75 0 3.486912 0.5625 0 
3.486912 0.375 0 3.486912 0.1875 0 3.486912 0 0 
3.686048 1.5 0 3.686048 1.3125 0 3.686048 1.125 0 
3.686048 0.9375 0 3.686048 0.75 0 3.686048 0.5625 0 
3.686048 0.375 0 3.686048 0.1875 0 3.686048 0 0 
3.885184 1.5 0 3.885184 1.3125 0 3.885184 1.125 0 
3.885184 0.9375 0 3.885184 0.75 0 3.885184 0.5625 0 
3.885184 0.375 0 3.885184 0.1875 0 3.885184 0 0 
4.08432 1.5 0 4.08432 1.3125 0 4.08432 1.125 0 
4.08432 0.9375 0 4.08432 0.75 0 4.08432 0.5625 0 
4.08432 0.375 0 4.08432 0.1875 0 4.08432 0 0 
4.283456 1.5 0 4.283456 1.3125 0 4.283456 1.125 0 
4.283456 0.9375 0 4.283456 0.75 0 4.283456 0.5625 0 
4.283456 0.375 0 4.283456 0.1875 0 4.283456 0 0 
4.482592 1.5 0 4.482592 1.3125 0 4.482592 1.125 0 
4.482592 0.9375 0 4.482592 0.75 0 4.482592 0.5625 0 
4.482592 0.375 0 4.482592 0.1875 0 4.482592 0 0 
4.681728 1.5 0 4.681728 1.3125 0 4.681728 1.125 0 
4.681728 0.9375 0 4.681728 0.75 0 4.681728 0.5625 0 
4.681728 0.375 0 4.681728 0.1875 0 4.681728 0 0 
4.880864 1.5 0 4.880864 1.3125 0 4.880864 1.125 0 
4.880864 0.9375 0 4.880864 0.75 0 4.880864 0.5625 0 
4.880864 0.375 0 4.880864 0.1875 0 4.880864 0 0 
-0.1 1.5 0 -0.1 1.3125 0 -0.1 1.125 0 
-0.1 0.9375 0 -0.1 0.75 0 -0.1 0.5625 0 
-0.1 0.375 0 -0.1 0.1875 0 -0.1 0 0 
-10.16 1.5 0 -10.16 1.3125 0 -10.16 1.125 0 
-10.16 0.9375 0 -10.16 0.75 0 -10.16 0.5625 0 
-10.16 0.375 0 -10.16 0.1875 0 -10.16 0 0 
-9.9588 1.5 0 -9.9588 1.3125 0 -9.9588 1.125 0 
-9.9588 0.9375 0 -9.9588 0.75 0 -9.9588 0.5625 0 
-9.9588 0.375 0 -9.9588 0.1875 0 -9.9588 0 0 
-9.7576 1.5 0 -9.7576 1.3125 0 -9.7576 1.125 0 
-9.7576 0.9375 0 -9.7576 0.75 0 -9.7576 0.5625 0 
-9.7576 0.375 0 -9.7576 0.1875 0 -9.7576 0 0 
-9.5564 1.5 0 -9.5564 1.3125 0 -9.5564 1.125 0 
-9.5564 0.9375 0 -9.5564 0.75 0 -9.5564 0.5625 0 
-9.5564 0.375 0 -9.5564 0.1875 0 -9.5564 0 0 
-9.3552 1.5 0 -9.3552 1.3125 0 -9.3552 1.125 0 
-9.3552 0.9375 0 -9.3552 0.75 0 -9.3552 0.5625 0 
-9.3552 0.375 0 -9.3552 0.1875 0 -9.3552 0 0 
-9.154 1.5 0 -9.154 1.3125 0 -9.154 1.125 0 
-9.154 0.9375 0 -9.154 0.75 0 -9.154 0.5625 0 
-9.154 0.375 0 -9.154 0.1875 0 -9.154 0 0 
-8.9528 1.5 0 -8.9528 1.3125 0 -8.9528 1.125 0 
-8.9528 0.9375 0 -8.9528 0.75 0 -8.9528 0.5625 0 
-8.9528 0.375 0 -8.9528 0.1875 0 -8.9528 0 0 
-8.7516 1.5 0 -8.7516 1.3125 0 -8.7516 1.125 0 
-8.7516 0.9375 0 -8.7516 0.75 0 -8.7516 0.5625 0 
-8.7516 0.375 0 -8.7516 0.1875 0 -8.7516 0 0 
-8.5504 1.5 0 -8.5504 1.3125 0 -8.5504 1.125 0 
-8.5504 0.9375 0 -8.5504 0.75 0 -8.5504 0.5625 0 
-8.5504 0.375 0 -8.5504 0.1875 0 -8.5504 0 0 
-8.3492 1.5 0 -8.3492 1.3125 0 -8.3492 1.125 0 
-8.3492 0.9375 0 -8.3492 0.75 0 -8.3492 0.5625 0 
-8.3492 0.375 0 -8.3492 0.1875 0 -8.3492 0 0 
-8.148 1.5 0 -8.148 1.3125 0 -8.148 1.125 0 
-8.148 0.9375 0 -8.148 0.75 0 -8.148 0.5625 0 
-8.148 0.375 0 -8.148 0.1875 0 -8.148 0 0 
-7.9468 1.5 0 -7.9468 1.3125 0 -7.9468 1.125 0 
-7.9468 0.9375 0 -7.9468 0.75 0 -7.9468 0.5625 0 
-7.9468 0.375 0 -7.9468 0.1875 0 -7.9468 0 0 
-7.7456 1.5 0 -7.7456 1.3125 0 -7.7456 1.125 0 
-7.7456 0.9375 0 -7.7456 0.75 0 -7.7456 0.5625 0 
-7.7456 0.375 0 -7.7456 0.1875 0 -7.7456 0 0 
-7.5444 1.5 0 -7.5444 1.3125 0 -7.5444 1.125 0 
-7.5444 0.9375 0 -7.5444 0.75 0 -7.5444 0.5625 0 
-7.5444 0.375 0 -7.5444 0.1875 0 -7.5444 0 0 
-7.3432 1.5 0 -7.3432 1.3125 0 -7.3432 1.125 0 
-7.3432 0.9375 0 -7.3432 0.75 0 -7.3432 0.5625 0 
-7.3432 0.375 0 -7.3432 0.1875 0 -7.3432 0 0 
-7.142 1.5 0 -7.142 1.3125 0 -7.142 1.125 0 
-7.142 0.9375 0 -7.142 0.75 0 -7.142 0.5625 0 
-7.142 0.375 0 -7.142 0.1875 0 -7.142 0 0 
-6.9408 1.5 0 -6.9408 1.3125 0 -6.9408 1.125 0 
-6.9408 0.9375 0 -6.9408 0.75 0 -6.9408 0.5625 0 
-6.9408 0.375 0 -6.9408 0.1875 0 -6.9408 0 0 
-6.7396 1.5 0 -6.7396 1.3125 0 -6.7396 1.125 0 
-6.7396 0.9375 0 -6.7396 0.75 0 -6.7396 0.5625 0 
-6.7396 0.375 0 -6.7396 0.1875 0 -6.7396 0 0 
-6.5384 1.5 0 -6.5384 1.3125 0 -6.5384 1.125 0 
-6.5384 0.9375 0 -6.5384 0.75 0 -6.5384 0.5625 0 
-6.5384 0.375 0 -6.5384 0.1875 0 -6.5384 0 0 
-6.3372 1.5 0 -6.3372 1.3125 0 -6.3372 1.125 0 
-6.3372 0.9375 0 -6.3372 0.75 0 -6.3372 0.5625 0 
-6.3372 0.375 0 -6.3372 0.1875 0 -6.3372 0 0 
-6.136 1.5 0 -6.136 1.3125 0 -6.136 1.125 0 
-6.136 0.9375 0 -6.136 0.75 0 -6.136 0.5625 0 
-6.136 0.375 0 -6.136 0.1875 0 -6.136 0 0 
-5.9348 1.5 0 -5.9348 1.3125 0 -5.9348 1.125 0 
-5.9348 0.9375 0 -5.9348 0.75 0 -5.9348 0.5625 0 
-5.9348 0.375 0 -5.9348 0.1875 0 -5.9348 0 0 
-5.7336 1.5 0 -5.7336 1.3125 0 -5.7336 1.125 0 
-5.7336 0.9375 0 -5.7336 0.75 0 -5.7336 0.5625 0 
-5.7336 0.375 0 -5.7336 0.1875 0 -5.7336 0 0 
-5.5324 1.5 0 -5.5324 1.3125 0 -5.5324 1.125 0 
-5.5324 0.9375 0 -5.5324 0.75 0 -5.5324 0.5625 0 
-5.5324 0.375 0 -5.5324 0.1875 0 -5.5324 0 0 
-5.3312 1.5 0 -5.3312 1.3125 0 -5.3312 1.125 0 
-5.3312 0.9375 0 -5.3312 0.75 0 -5.3312 0.5625 0 
-5.3312 0.375 0 -5.3312 0.1875 0 -5.3312 0 0 
-5.13 1.5 0 -5.13 1.3125 0 -5.13 1.125 0 
-5.13 0.9375 0 -5.13 0.75 0 -5.13 0.5625 0 
-5.13 0.375 0 -5.13 0.1875 0 -5.13 0 0 
-4.9288 1.5 0 -4.9288 1.3125 0 -4.9288 1.125 0 
-4.9288 0.9375 0 -4.9288 0.75 0 -4.9288 0.5625 0 
-4.9288 0.375 0 -4.9288 0.1875 0 -4.9288 0 0 
-4.7276 1.5 0 -4.7276 1.3125 0 -4.7276 1.125 0 
-4.7276 0.9375 0 -4.7276 0.75 0 -4.7276 0.5625 0 
-4.7276 0.375 0 -4.7276 0.1875 0 -4.7276 0 0 
-4.5264 1.5 0 -4.5264 1.3125 0 -4.5264 1.125 0 
-4.5264 0.9375 0 -4.5264 0.75 0 -4.5264 0.5625 0 
-4.5264 0.375 0 -4.5264 0.1875 0 -4.5264 0 0 
-4.3252 1.5 0 -4.3252 1.3125 0 -4.3252 1.125 0 
-4.3252 0.9375 0 -4.3252 0.75 0 -4.3252 0.5625 0 
-4.3252 0.375 0 -4.3252 0.1875 0 -4.3252 0 0 
-4.124 1.5 0 -4.124 1.3125 0 -4.124 1.125 0 
-4.124 0.9375 0 -4.124 0.75 0 -4.124 0.5625 0 
-4.124 0.375 0 -4.124 0.1875 0 -4.124 0 0 
-3.9228 1.5 0 -3.9228 1.3125 0 -3.9228 1.125 0 
-3.9228 0.9375 0 -3.9228 0.75 0 -3.9228 0.5625 0 
-3.9228 0.375 0 -3.9228 0.1875 0 -3.9228 0 0 
-3.7216 1.5 0 -3.7216 1.3125 0 -3.7216 1.125 0 
-3.7216 0.9375 0 -3.7216 0.75 0 -3.7216 0.5625 0 
-3.7216 0.375 0 -3.7216 0.1875 0 -3.7216 0 0 
-3.5204 1.5 0 -3.5204 1.3125 0 -3.5204 1.125 0 
-3.5204 0.9375 0 -3.5204 0.75 0 -3.5204 0.5625 0 
-3.5204 0.375 0 -3.5204 0.1875 0 -3.5204 0 0 
-3.3192 1.5 0 -3.3192 1.3125 0 -3.3192 1.125 0 
-3.3192 0.9375 0 -3.3192 0.75 0 -3.3192 0.5625 0 
-3.3192 0.375 0 -3.3192 0.1875 0 -3.3192 0 0 
-3.118 1.5 0 -3.118 1.3125 0 -3.118 1.125 0 
-3.118 0.9375 0 -3.118 0.75 0 -3.118 0.5625 0 
-3.118 0.375 0 -3.118 0.1875 0 -3.118 0 0 
-2.9168 1.5 0 -2.9168 1.3125 0 -2.9168 1.125 0 
-2.9168 0.9375 0 -2.9168 0.75 0 -2.9168 0.5625 0 
-2.9168 0.375 0 -2.9168 0.1875 0 -2.9168 0 0 
-2.7156 1.5 0 -2.7156 1.3125 0 -2.7156 1.125 0 
-2.7156 0.9375 0 -2.7156 0.75 0 -2.7156 0.5625 0 
-2.7156 0.375 0 -2.7156 0.1875 0 -2.7156 0 0 
-2.5144 1.5 0 -2.5144 1.3125 0 -2.5144 1.125 0 
-2.5144 0.9375 0 -2.5144 0.75 0 -2.5144 0.5625 0 
-2.5144 0.375 0 -2.5144 0.1875 0 -2.5144 0 0 
-2.3132 1.5 0 -2.3132 1.3125 0 -2.3132 1.125 0 
-2.3132 0.9375 0 -2.3132 0.75 0 -2.3132 0.5625 0 
-2.3132 0.375 0 -2.3132 0.1875 0 -2.3132 0 0 
-2.112 1.5 0 -2.112 1.3125 0 -2.112 1.125 0 
-2.112 0.9375 0 -2.112 0.75 0 -2.112 0.5625 0 
-2.112 0.375 0 -2.112 0.1875 0 -2.112 0 0 
-1.9108 1.5 0 -1.9108 1.3125 0 -1.9108 1.125 0 
[...]
CELL_DATA 608
FIELD FieldData 7
B_Stress_n_p_m2 1 608 float
1.32839 1.34056 1.29491 0.985581 0.298777 0.140773 0.165167 0.17115 1.00534 
1.00216 0.933019 0.747301 0.480297 0.285289 0.172802 0.202461 0.793507 0.786818 
0.718061 0.579172 0.403043 0.294288 0.228753 0.215108 0.663215 0.659813 0.609898 
0.524493 0.424405 0.349016 0.297998 0.281896 0.582258 0.582538 0.548478 0.493599 
0.431348 0.379908 0.342124 0.326174 0.531532 0.534918 0.513221 0.478289 0.438467 
0.403324 0.375378 0.360723 0.499301 0.504843 0.491731 0.469484 0.443553 0.419442 
0.398725 0.385427 0.478618 0.485558 0.478223 0.464127 0.447083 0.430463 0.414956 
0.402777 0.465255 0.473049 0.469513 0.46068 0.44942 0.43788 0.42608 0.41478 
0.456598 0.464871 0.463783 0.458351 0.450894 0.442806 0.433636 0.423027 0.451 
0.459499 0.459946 0.456704 0.451761 0.44603 0.438738 0.42869 0.447412 0.455958 
0.457327 0.455482 0.452204 0.448098 0.44217 0.4326 0.445156 0.45362 0.455499 
0.454528 0.452356 0.449382 0.444474 0.435335 0.443791 0.452075 0.454183 0.453742 
0.452306 0.450135 0.446018 0.437292 0.44303 0.451052 0.453198 0.453062 0.452114 
0.450526 0.447051 0.438742 0.442686 0.450373 0.452426 0.452445 0.451822 0.450669 
0.44774 0.439868 0.442638 0.449917 0.451786 0.451864 0.451457 0.450637 0.448195 
0.440796 0.442805 0.449602 0.451225 0.451303 0.451039 0.450481 0.448487 0.441613 
0.443139 0.449373 0.450707 0.45075 0.450581 0.450233 0.44866 0.442379 0.443609 
0.449187 0.450209 0.4502 0.450094 0.449913 0.448742 0.443136 0.444198 0.449012 
0.449716 0.449653 0.44959 0.449539 0.448744 0.443914 0.444892 0.448821 0.449218 
0.449111 0.449075 0.449118 0.448669 0.444734 0.445685 0.448582 0.448705 0.448577 
0.448559 0.448655 0.448506 0.445608 0.446523 0.448277 0.448205 0.448096 0.448089 
0.448186 0.448247 0.446495 0.447217 0.447968 0.447858 0.4478 0.447798 0.447854 
0.44796 0.447211 1.69089 1.66175 1.46202 0.519355 669.955 341.665 394.9 
240.312 0.815803 0.791574 0.718892 0.61252 0.487811 0.361944 0.252719 0.182394 
0.829108 0.802903 0.727193 0.616696 0.487766 0.357922 0.24563 0.173027 0.839174 
0.811602 0.733455 0.619855 0.487753 0.355057 0.240539 0.166416 0.850277 0.82127 
0.740403 0.623358 0.487715 0.351842 0.234818 0.159068 0.862048 0.831524 0.747745 
0.627042 0.487665 0.348502 0.228942 0.151598 0.874481 0.842352 0.75548 0.630905 
0.487603 0.345029 0.222888 0.143958 0.887587 0.853761 0.763611 0.634949 0.487534 
0.341433 0.216682 0.136181 0.901385 0.865763 0.772146 0.639179 0.487461 0.33772 
0.210337 0.128288 0.915905 0.878383 0.781102 0.643601 0.487383 0.33389 0.203861 
0.120296 0.931184 0.891653 0.7905 0.648225 0.487304 0.329943 0.19726 0.112224 
0.94727 0.905611 0.800366 0.653064 0.487223 0.325876 0.190539 0.104092 0.964215 
0.920302 0.810729 0.658131 0.48714 0.321685 0.183702 0.0959192 0.982078 0.935777 
0.821626 0.663442 0.487058 0.317365 0.176753 0.0877302 1.00093 0.952091 0.833095 
0.669014 0.486976 0.31291 0.169693 0.0795521 1.02083 0.969306 0.845178 0.674869 
0.486895 0.308316 0.162528 0.0714168 1.04187 0.98749 0.857922 0.681027 0.48682 
0.303576 0.155261 0.0633618 1.06412 1.00671 0.871378 0.687515 0.486752 0.298687 
0.147899 0.0554313 1.08768 1.02705 0.885599 0.694358 0.486696 0.293646 0.140449 
0.0476779 1.11263 1.04858 0.90064 0.701583 0.48666 0.288455 0.132923 0.040164 
1.13906 1.07136 0.916554 0.709219 0.486652 0.283117 0.125335 0.032964 1.16703 
1.09548 0.933389 0.717288 0.486681 0.277642 0.117707 0.0261662 1.19661 1.12097 
0.951182 0.725808 0.486757 0.272046 0.110067 0.0198764 1.22783 1.14786 0.969945 
0.734778 0.486881 0.266349 0.102453 0.0142188 1.26066 1.17613 0.989653 0.744165 
0.487044 0.260575 0.0949145 0.0093175 1.29503 1.2057 1.01022 0.753887 0.487194 
0.254728 0.0875424 0.00541308 1.33075 1.23641 1.03148 0.76378 0.487215 0.248743 
0.0802879 0.00241292 1.36756 1.26798 1.05316 0.773562 0.486898 0.242589 0.0735243 
0.000903567 1.40507 1.30006 1.0748 0.782742 0.485733 0.235816 0.0669161 0.000242451 
1.44286 1.33216 1.09585 0.790616 0.482911 0.227717 0.0602106 0.000376565 1.48052 
1.36388 1.11573 0.796387 0.477362 0.217089 0.0520965 0.00114195 1.51786 1.39497 
1.13414 0.79959 0.468409 0.203067 0.0412357 0.000870281 1.55489 1.42546 1.15115 
0.800409 0.45655 0.18683 0.0331849 0.000467872 1.59176 1.45556 1.16706 0.799282 
0.442613 0.169541 0.0275236 0.000276352 1.62871 1.48555 1.18217 0.796479 0.426957 
0.151446 0.0240428 0.000550744 1.66601 1.51571 1.19675 0.792111 0.409668 0.13396 
0.0212329 0.00143992 1.70389 1.54632 1.21102 0.786211 0.390681 0.117163 0.0191674 
0.00290193 1.74257 1.57763 1.22518 0.778731 0.369857 0.101324 0.01776 0.00505514 
1.78219 1.60987 1.23941 0.769521 0.346961 0.086713 0.0169598 0.00792741 1.82285 
1.64318 1.25383 0.758364 0.321728 0.0736532 0.0167146 0.0115601 1.86455 1.67771 
1.26858 0.744996 0.29385 0.0625129 0.0169428 0.0159585 1.90719 1.71347 1.28375 
0.729084 0.263155 0.0537878 0.0176061 0.021213 1.95049 1.75042 1.29947 0.71026 
0.231124 0.0465665 0.0186814 0.0275298 1.99394 1.78833 1.31589 0.688024 0.198085 
0.0410818 0.0201643 0.0350893 2.03649 1.82667 1.33329 0.661958 0.164726 0.0374149 
0.0219923 0.0439385 2.07588 1.86412 1.352 0.632106 0.132232 0.0359164 0.024296 
0.0542653 2.10841 1.89777 1.37132 0.5984 0.102119 0.0373339 0.027886 0.0662225 
2.12987 1.92354 1.38901 0.558705 0.0726006 0.0394396 0.030666 0.0752162 2.1335 
1.93798 1.40946 0.52062 0.0447371 0.0415988 0.0310286 0.0814668 2.09551 1.92989 
1.45379 0.549149 0.0523281 0.0870801 0.0794334 0.131298 1.96228 1.85946 1.51422 
0.685553 0.0852622 0.085438 0.170549 0.138169 
Froude 1 608 float
0.263915 0.265222 0.260679 0.227008 0.124539 0.0852981 0.0922028 0.0939839 0.229061 
0.228719 0.220574 0.197102 0.157578 0.121318 0.0943626 0.102147 0.203211 0.202351 
0.193207 0.173358 0.144437 0.123321 0.108669 0.105379 0.185613 0.185128 0.177914 
0.164888 0.148216 0.134336 0.124084 0.120681 0.173815 0.17385 0.168642 0.15992 
0.14943 0.140187 0.132998 0.129856 0.166009 0.166532 0.163087 0.157399 0.150662 
0.144463 0.139343 0.136592 0.160857 0.161743 0.159607 0.155929 0.151534 0.147335 
0.143632 0.141214 0.157462 0.158597 0.157381 0.155027 0.152136 0.149265 0.14654 
0.144371 0.15523 0.156523 0.155927 0.154442 0.152531 0.15055 0.148499 0.146515 
0.153765 0.15515 0.154962 0.154045 0.152779 0.151395 0.149814 0.147969 0.152809 
0.154241 0.154312 0.153762 0.152922 0.151945 0.150694 0.148957 0.152191 0.153637 
0.153865 0.153551 0.152994 0.152295 0.151281 0.149635 0.1518 0.153236 0.153551 
0.153385 0.153016 0.15251 0.151673 0.150105 0.151561 0.152968 0.153323 0.153248 
0.153003 0.152634 0.151933 0.15044 0.151425 0.15279 0.153152 0.153128 0.152967 
0.152697 0.152106 0.150686 0.151361 0.15267 0.153017 0.153019 0.152913 0.152717 
0.15222 0.150875 0.151348 0.152587 0.152904 0.152916 0.152847 0.152708 0.152293 
0.151031 0.151372 0.152529 0.152804 0.152817 0.152772 0.152677 0.152339 0.151167 
0.151424 0.152486 0.152712 0.152719 0.15269 0.152631 0.152364 0.151294 0.1515 
0.15245 0.152623 0.152621 0.152603 0.152572 0.152373 0.151419 0.151596 0.152416 
0.152535 0.152524 0.152513 0.152505 0.15237 0.151548 0.15171 0.152379 0.152446 
0.152428 0.152422 0.152429 0.152353 0.151683 0.151841 0.152334 0.152355 0.152333 
0.15233 0.152346 0.15232 0.151828 0.151979 0.152277 0.152265 0.152247 0.152246 
0.152262 0.152272 0.151974 0.152092 0.152221 0.152203 0.152193 0.152193 0.152202 
0.152219 0.152091 0.2988 0.296514 0.278762 0.166416 0.0238432 0.0169516 0.0182244 
0.0142084 0.20865 0.205527 0.195862 0.180789 0.161336 0.13897 0.116122 0.0986497 
0.21034 0.206987 0.196986 0.181402 0.161328 0.138196 0.114482 0.0960844 0.211611 
0.208104 0.197831 0.181865 0.161325 0.137641 0.11329 0.0942305 0.213006 0.209339 
0.198765 0.182378 0.161318 0.137016 0.111934 0.0921268 0.214475 0.210642 0.199748 
0.182916 0.16131 0.136364 0.110525 0.0899377 0.216017 0.212009 0.20078 0.183479 
0.161301 0.135684 0.109054 0.0876423 0.217631 0.213441 0.201858 0.184067 0.16129 
0.134976 0.107526 0.0852427 0.219318 0.214938 0.202985 0.184681 0.16128 0.134241 
0.105941 0.0827361 0.221081 0.216502 0.204162 0.185321 0.161269 0.133479 0.104298 
0.0801186 0.222921 0.218135 0.20539 0.185989 0.161258 0.13269 0.102598 0.0773852 
0.224843 0.21984 0.206672 0.186686 0.161248 0.131872 0.100837 0.0745299 0.226851 
0.221622 0.208011 0.187413 0.161238 0.131025 0.0990134 0.071546 0.228949 0.223484 
0.20941 0.188173 0.161229 0.130146 0.0971251 0.0684256 0.231144 0.225431 0.210874 
0.188968 0.161221 0.129233 0.0951688 0.0651605 0.233441 0.227469 0.212406 0.189801 
0.161214 0.128286 0.0931414 0.0617412 0.235845 0.229604 0.214011 0.190674 0.161209 
0.127302 0.0910393 0.0581578 0.238363 0.23184 0.215695 0.19159 0.161206 0.126279 
0.0888592 0.0543993 0.241002 0.234184 0.21746 0.192552 0.161206 0.125216 0.0865974 
0.0504544 0.243767 0.236641 0.219314 0.193565 0.161211 0.124113 0.0842508 0.0463114 
0.246664 0.239217 0.22126 0.19463 0.161222 0.122968 0.081817 0.0419587 0.249695 
0.241914 0.223302 0.195751 0.161241 0.121784 0.079295 0.0373861 0.252864 0.244735 
0.225441 0.196928 0.161269 0.120562 0.0766859 0.0325874 0.256167 0.247678 0.227677 
0.198162 0.161307 0.119306 0.073994 0.0275651 0.259597 0.250736 0.230004 0.199447 
0.161353 0.11802 0.0712285 0.0223168 0.263141 0.253897 0.232409 0.20077 0.161398 
0.116704 0.0684158 0.0170124 0.266777 0.25714 0.234871 0.202109 0.161424 0.115342 
0.0655297 0.01136 0.270473 0.260434 0.237355 0.203426 0.161395 0.113923 0.0627194 
0.00695285 0.274188 0.263737 0.239811 0.204656 0.161224 0.112339 0.0598446 0.0036022 
0.277879 0.267002 0.242174 0.205707 0.160776 0.110408 0.056776 0.00448997 0.281509 
0.270188 0.244385 0.206477 0.159865 0.107812 0.0528176 0.00781974 0.285061 0.273272 
0.246412 0.206908 0.15837 0.104279 0.0469925 0.00682682 0.288537 0.276262 0.24827 
0.207027 0.156361 0.100028 0.0421575 0.00500574 0.291955 0.27918 0.249994 0.206892 
0.153963 0.0952916 0.0383945 0.00384723 0.295341 0.282056 0.251619 0.206538 0.151221 
0.0900662 0.0358858 0.00543131 0.298717 0.284918 0.253177 0.205979 0.148133 0.0847102 
0.0337247 0.00878237 0.302108 0.287793 0.254692 0.205218 0.144665 0.0792245 0.0320435 
0.0124681 0.30553 0.290704 0.256188 0.204247 0.140761 0.0736776 0.0308456 0.0164566 
0.308997 0.29367 0.257681 0.203044 0.136341 0.0681616 0.0301439 0.020609 0.312514 
0.296705 0.259187 0.201574 0.131295 0.0628219 0.0299264 0.0248879 0.316081 0.299817 
0.260718 0.199798 0.125484 0.0578785 0.0301314 0.0292431 0.319686 0.303007 0.262284 
0.197662 0.118756 0.05369 0.030717 0.0337171 0.323304 0.306266 0.263896 0.195103 
0.111301 0.0499586 0.0316428 0.0384126 0.326892 0.309571 0.265568 0.192035 0.103046 
0.0469269 0.0328767 0.0433696 0.33036 0.312874 0.267328 0.188373 0.0939763 0.0447863 
0.034337 0.0485344 0.333521 0.316055 0.269203 0.184092 0.0842065 0.0438831 0.0360937 
0.0539411 0.336078 0.318862 0.271115 0.179134 0.0740085 0.0447441 0.0386729 0.0595931 
0.337699 0.32095 0.272828 0.173101 0.0624075 0.0459899 0.0405584 0.0635112 0.337834 
0.32204 0.274795 0.167124 0.0489952 0.0472331 0.0408007 0.0660986 0.334481 0.321154 
0.279108 0.171825 0.0530364 0.0683885 0.0653426 0.0839743 0.322982 0.314716 0.284736 
0.192273 0.0677279 0.0676763 0.0957857 0.0860511 
Vel_Mag_m_p_s 1 608 float
0.488294 0.490434 0.481999 0.42089 0.232154 0.159529 0.172978 0.175965 0.425285 
0.424591 0.40979 0.367026 0.294649 0.227207 0.176881 0.191453 0.378102 0.376507 
0.359774 0.323261 0.269833 0.230665 0.20342 0.197258 0.345825 0.344944 0.331709 
0.307702 0.27689 0.251164 0.232126 0.225771 0.324125 0.32421 0.314635 0.298537 
0.27914 0.262014 0.248676 0.242815 0.309743 0.310733 0.304396 0.293891 0.281431 
0.269949 0.260452 0.255322 0.300243 0.301908 0.297982 0.291187 0.283057 0.275278 
0.26841 0.263899 0.293984 0.29611 0.293878 0.28953 0.284181 0.278864 0.273806 
0.269761 0.289868 0.292288 0.291202 0.28846 0.284925 0.281252 0.277445 0.273742 
0.287172 0.289763 0.28943 0.287736 0.285394 0.282829 0.27989 0.276446 0.285416 
0.288094 0.288238 0.287224 0.285671 0.283858 0.281531 0.278289 0.284287 0.286989 
0.287422 0.286845 0.285814 0.284516 0.282631 0.279556 0.283575 0.286259 0.286853 
0.286549 0.285866 0.284926 0.283368 0.28044 0.283146 0.285777 0.286443 0.286306 
0.285854 0.285168 0.283862 0.281072 0.282908 0.285459 0.286137 0.286095 0.285797 
0.285295 0.284194 0.28154 0.282803 0.285248 0.285898 0.285905 0.285708 0.285344 
0.284416 0.281905 0.282792 0.285108 0.2857 0.285725 0.285597 0.285338 0.284564 
0.282205 0.28285 0.285013 0.285527 0.285552 0.285469 0.285292 0.28466 0.282471 
0.282961 0.284945 0.285367 0.285381 0.285328 0.285218 0.284719 0.282719 0.283116 
0.28489 0.285214 0.285211 0.285178 0.28512 0.284749 0.282965 0.283307 0.284839 
0.285062 0.285042 0.285022 0.285006 0.284754 0.283217 0.283533 0.284782 0.284908 
0.284874 0.284863 0.284876 0.284734 0.283483 0.28379 0.28471 0.284749 0.284709 
0.284703 0.284734 0.284687 0.283765 0.284061 0.284618 0.284595 0.28456 0.284558 
0.284589 0.284608 0.284052 0.284286 0.284524 0.284488 0.284469 0.284469 0.284487 
0.284521 0.284284 0.549941 0.544906 0.510527 0.304033 0.0437272 0.0312964 0.0336464 
0.0262548 0.380977 0.375279 0.357637 0.330122 0.294607 0.25377 0.212052 0.180148 
0.384076 0.37796 0.359699 0.331247 0.294594 0.252356 0.209055 0.17546 0.386402 
0.380003 0.361246 0.332096 0.294591 0.251345 0.206878 0.172076 0.388951 0.382261 
0.362953 0.333033 0.294579 0.250204 0.204403 0.168234 0.391634 0.38464 0.364749 
0.334015 0.294564 0.249014 0.201829 0.164237 0.394447 0.387135 0.36663 0.335042 
0.294545 0.247769 0.199142 0.160044 0.397391 0.389747 0.368596 0.336113 0.294523 
0.246474 0.19635 0.155661 0.400466 0.392475 0.370649 0.337229 0.2945 0.245129 
0.193453 0.151082 0.403675 0.395323 0.37279 0.338392 0.294475 0.243734 0.19045 
0.146299 0.407025 0.398295 0.375022 0.339602 0.294448 0.242287 0.18734 0.141305 
0.410521 0.401396 0.377351 0.340864 0.294421 0.240787 0.184119 0.136087 0.414172 
0.404633 0.379782 0.34218 0.294392 0.23923 0.180784 0.130634 0.417984 0.408015 
0.38232 0.343553 0.294363 0.237615 0.177329 0.124932 0.421968 0.411549 0.384972 
0.344986 0.294333 0.235938 0.173748 0.118964 0.426134 0.415245 0.387746 0.346486 
0.294303 0.234195 0.170037 0.112715 0.430493 0.419112 0.39065 0.348055 0.294274 
0.232382 0.166189 0.106166 0.435055 0.42316 0.393691 0.3497 0.294245 0.230498 
0.162197 0.0992978 0.439831 0.4274 0.396878 0.351425 0.29422 0.228538 0.158054 
0.0920891 0.444832 0.431842 0.400221 0.353237 0.294199 0.226501 0.153756 0.0845189 
0.450066 0.436493 0.403726 0.355141 0.294186 0.224387 0.149298 0.0765666 0.45554 
0.441359 0.4074 0.35714 0.294182 0.222197 0.144677 0.0682136 0.461256 0.446445 
0.411245 0.359238 0.294191 0.219936 0.139896 0.0594495 0.467211 0.451745 0.415261 
0.361432 0.294212 0.217609 0.134963 0.050279 0.473391 0.45725 0.419435 0.363713 
0.294244 0.215224 0.129895 0.0406985 0.479772 0.462936 0.423746 0.366058 0.294271 
0.212782 0.12474 0.0310185 0.486316 0.468766 0.428156 0.368428 0.294257 0.210252 
0.119451 0.0207079 0.492967 0.474686 0.432604 0.370756 0.29414 0.207619 0.114299 
0.0126709 0.499655 0.480624 0.437 0.372925 0.293767 0.204684 0.109032 0.00656302 
0.506301 0.486497 0.441234 0.374774 0.292894 0.201125 0.103417 0.00817858 0.512843 
0.492231 0.445198 0.37612 0.291191 0.196365 0.0961915 0.0142416 0.519249 0.497789 
0.448837 0.376861 0.288438 0.189911 0.0855777 0.0124324 0.525525 0.503182 0.452175 
0.377043 0.284756 0.182156 0.0767695 0.00911552 0.531703 0.508453 0.455276 0.376767 
0.280369 0.17352 0.069914 0.00700556 0.537826 0.51365 0.458204 0.376098 0.275361 
0.163995 0.0653428 0.00988962 0.543936 0.518826 0.461009 0.375058 0.269723 0.154235 
0.0614049 0.0159907 0.550073 0.524028 0.46374 0.373651 0.263394 0.144239 0.0583409 
0.0227005 0.556269 0.529297 0.466435 0.371862 0.256273 0.134133 0.0561571 0.0299606 
0.562546 0.534666 0.469125 0.36965 0.248209 0.124083 0.0548764 0.0375181 0.568916 
0.54016 0.471838 0.366953 0.239008 0.114356 0.0544771 0.045305 0.575376 0.545794 
0.474594 0.363697 0.228412 0.105351 0.0548466 0.0532295 0.581907 0.551571 0.477413 
0.359784 0.216148 0.0977207 0.0559086 0.0613686 0.588466 0.557478 0.480317 0.355101 
0.20256 0.0909223 0.057589 0.0699094 0.59498 0.563476 0.483333 0.349489 0.187518 
0.0853977 0.0598292 0.0789238 0.601296 0.569483 0.486511 0.342794 0.170995 0.0814949 
0.0624801 0.088314 0.6071 0.575299 0.489906 0.334962 0.153197 0.0798437 0.0656682 
0.0981413 0.61188 0.580499 0.493399 0.325893 0.13462 0.081401 0.0703487 0.108412 
0.615064 0.584489 0.496598 0.314888 0.113503 0.0836639 0.0737687 0.115539 0.615726 
0.586781 0.500271 0.303943 0.0890931 0.0859226 0.0742007 0.120243 0.610521 0.58575 
0.508054 0.311993 0.0963128 0.12427 0.118665 0.152595 0.591427 0.575441 0.518609 
0.348331 0.122915 0.123152 0.173843 0.156621 
Water_Depth_m 1 608 float
0.34906 0.348664 0.348613 0.350526 0.354327 0.356668 0.358887 0.357445 0.351496 
0.351398 0.351948 0.353569 0.35652 0.357647 0.358283 0.358212 0.353009 0.35302 
0.353574 0.354552 0.355876 0.356738 0.357305 0.357295 0.353967 0.354011 0.35445 
0.355099 0.35587 0.356445 0.356846 0.356882 0.354579 0.354622 0.354932 0.355347 
0.35582 0.356201 0.356484 0.356523 0.354979 0.355013 0.355226 0.355495 0.355796 
0.356049 0.356245 0.356276 0.355247 0.355272 0.355416 0.355591 0.355787 0.355955 
0.356089 0.356111 0.355432 0.355449 0.355545 0.355661 0.355789 0.355901 0.355992 
0.356008 0.355563 0.355575 0.355639 0.355715 0.3558 0.355874 0.355936 0.355947 
0.35566 0.355668 0.355711 0.355761 0.355817 0.355867 0.355908 0.355915 0.355734 
0.35574 0.355768 0.355802 0.355839 0.355872 0.355899 0.355904 0.355794 0.355798 
0.355816 0.355839 0.355863 0.355885 0.355904 0.355907 0.355844 0.355846 0.355859 
0.355873 0.35589 0.355904 0.355917 0.355919 0.355887 0.355889 0.355897 0.355907 
0.355918 0.355927 0.355936 0.355937 0.355926 0.355927 0.355933 0.355939 0.355947 
0.355953 0.355959 0.355959 0.355962 0.355963 0.355967 0.355971 0.355976 0.35598 
0.355984 0.355984 0.355996 0.355997 0.356 0.356003 0.356006 0.356009 0.356011 
0.356011 0.356029 0.35603 0.356032 0.356034 0.356036 0.356038 0.35604 0.356039 
0.356062 0.356063 0.356063 0.356065 0.356066 0.356067 0.356069 0.356068 0.356093 
0.356094 0.356095 0.356095 0.356096 0.356097 0.356098 0.356098 0.356125 0.356126 
0.356125 0.356126 0.356127 0.356127 0.356128 0.356128 0.356156 0.356157 0.356156 
0.356156 0.356157 0.356157 0.356159 0.356158 0.356188 0.356188 0.356187 0.356187 
0.356187 0.356188 0.356189 0.356189 0.35622 0.356219 0.356217 0.356216 0.356216 
0.356218 0.35622 0.356221 0.356257 0.356248 0.356244 0.356243 0.356243 0.356245 
0.356249 0.356258 0.345409 0.344362 0.342006 0.340344 0.342955 0.347559 0.347565 
0.348172 0.339957 0.339967 0.339976 0.339991 0.340006 0.340021 0.340032 0.340042 
0.339982 0.339992 0.339995 0.340004 0.340012 0.34002 0.340023 0.340029 0.33999 
0.339999 0.340001 0.340009 0.340016 0.340024 0.340026 0.340034 0.339993 0.340003 
0.340004 0.340012 0.340017 0.340024 0.340026 0.340034 0.339994 0.340004 0.340004 
0.340011 0.340016 0.340023 0.340025 0.340032 0.33999 0.340001 0.340001 0.340008 
0.340013 0.340019 0.340021 0.340029 0.339984 0.339995 0.339995 0.340002 0.340006 
0.340013 0.340015 0.340023 0.339974 0.339985 0.339985 0.339992 0.339996 0.340003 
0.340005 0.340014 0.33996 0.339972 0.339972 0.339979 0.339984 0.339991 0.339993 
0.340002 0.339942 0.339955 0.339955 0.339962 0.339967 0.339975 0.339977 0.339986 
0.33992 0.339934 0.339934 0.339941 0.339947 0.339955 0.339958 0.339967 0.339894 
0.339909 0.339908 0.339916 0.339922 0.33993 0.339934 0.339943 0.339863 0.339878 
0.339878 0.339887 0.339893 0.339902 0.339906 0.339915 0.339827 0.339843 0.339842 
0.339852 0.339859 0.339868 0.339872 0.339882 0.339785 0.339802 0.339801 0.339811 
0.339819 0.339828 0.339834 0.339844 0.339737 0.339755 0.339754 0.339765 0.339772 
0.339783 0.339789 0.339799 0.339682 0.339701 0.339701 0.339711 0.33972 0.33973 
0.339737 0.339748 0.33962 0.339641 0.339639 0.339651 0.339659 0.33967 0.339678 
0.339689 0.33955 0.339572 0.339571 0.339582 0.339591 0.339602 0.339611 0.339622 