# vtk DataFile Version 5.1
vtk output
ASCII
DATASET UNSTRUCTURED_GRID
POINTS 9486 double
0.1016 1.5 0 0.1016 1.45 0 0.1016 1.4 0 
0.1016 1.35 0 0.1016 1.3 0 0.1016 1.25 0 
0.1016 1.2 0 0.1016 1.15 0 0.1016 1.1 0 
0.1016 1.05 0 0.1016 1 0 0.1016 0.95 0 
0.1016 0.9 0 0.1016 0.85 0 0.1016 0.8 0 
0.1016 0.75 0 0.1016 0.7 0 0.1016 0.65 0 
0.1016 0.6 0 0.1016 0.55 0 0.1016 0.5 0 
0.1016 0.45 0 0.1016 0.4 0 0.1016 0.35 0 
0.1016 0.3 0 0.1016 0.25 0 0.1016 0.2 0 
0.1016 0.15 0 0.1016 0.1 0 0.1016 0.05 0 
0.1016 0 0 5.08 1.5 0 5.08 1.45 0 
5.08 1.4 0 5.08 1.35 0 5.08 1.3 0 
5.08 1.25 0 5.08 1.2 0 5.08 1.15 0 
5.08 1.1 0 5.08 1.05 0 5.08 1 0 
5.08 0.95 0 5.08 0.9 0 5.08 0.85 0 
5.08 0.8 0 5.08 0.75 0 5.08 0.7 0 
5.08 0.65 0 5.08 0.6 0 5.08 0.55 0 
5.08 0.5 0 5.08 0.45 0 5.08 0.4 0 
5.08 0.35 0 5.08 0.3 0 5.08 0.25 0 
5.08 0.2 0 5.08 0.15 0 5.08 0.1 0 
5.08 0.05 0 5.08 0 0 0.151384 1.5 0 
0.151384 1.45 0 0.151384 1.4 0 0.151384 1.35 0 
0.151384 1.3 0 0.151384 1.25 0 0.151384 1.2 0 
0.151384 1.15 0 0.151384 1.1 0 0.151384 1.05 0 
0.151384 1 0 0.151384 0.95 0 0.151384 0.9 0 
0.151384 0.85 0 0.151384 0.8 0 0.151384 0.75 0 
0.151384 0.7 0 0.151384 0.65 0 0.151384 0.6 0 
0.151384 0.55 0 0.151384 0.5 0 0.151384 0.45 0 
0.151384 0.4 0 0.151384 0.35 0 0.151384 0.3 0 
0.151384 0.25 0 0.151384 0.2 0 0.151384 0.15 0 
0.151384 0.1 0 0.151384 0.05 0 0.151384 0 0 
0.201168 1.5 0 0.201168 1.45 0 0.201168 1.4 0 
0.201168 1.35 0 0.201168 1.3 0 0.201168 1.25 0 
0.201168 1.2 0 0.201168 1.15 0 0.201168 1.1 0 
0.201168 1.05 0 0.201168 1 0 0.201168 0.95 0 
0.201168 0.9 0 0.201168 0.85 0 0.201168 0.8 0 
0.201168 0.75 0 0.201168 0.7 0 0.201168 0.65 0 
0.201168 0.6 0 0.201168 0.55 0 0.201168 0.5 0 
0.201168 0.45 0 0.201168 0.4 0 0.201168 0.35 0 
0.201168 0.3 0 0.201168 0.25 0 0.201168 0.2 0 
0.201168 0.15 0 0.201168 0.1 0 0.201168 0.05 0 
0.201168 0 0 0.250952 1.5 0 0.250952 1.45 0 
0.250952 1.4 0 0.250952 1.35 0 0.250952 1.3 0 
0.250952 1.25 0 0.250952 1.2 0 0.250952 1.15 0 
0.250952 1.1 0 0.250952 1.05 0 0.250952 1 0 
0.250952 0.95 0 0.250952 0.9 0 0.250952 0.85 0 
0.250952 0.8 0 0.250952 0.75 0 0.250952 0.7 0 
0.250952 0.65 0 0.250952 0.6 0 0.250952 0.55 0 
0.250952 0.5 0 0.250952 0.45 0 0.250952 0.4 0 
0.250952 0.35 0 0.250952 0.3 0 0.250952 0.25 0 
0.250952 0.2 0 0.250952 0.15 0 0.250952 0.1 0 
0.250952 0.05 0 0.250952 0 0 0.300736 1.5 0 
0.300736 1.45 0 0.300736 1.4 0 0.300736 1.35 0 
0.300736 1.3 0 0.300736 1.25 0 0.300736 1.2 0 
0.300736 1.15 0 0.300736 1.1 0 0.300736 1.05 0 
0.300736 1 0 0.300736 0.95 0 0.300736 0.9 0 
0.300736 0.85 0 0.300736 0.8 0 0.300736 0.75 0 
0.300736 0.7 0 0.300736 0.65 0 0.300736 0.6 0 
0.300736 0.55 0 0.300736 0.5 0 0.300736 0.45 0 
0.300736 0.4 0 0.300736 0.35 0 0.300736 0.3 0 
0.300736 0.25 0 0.300736 0.2 0 0.300736 0.15 0 
0.300736 0.1 0 0.300736 0.05 0 0.300736 0 0 
0.35052 1.5 0 0.35052 1.45 0 0.35052 1.4 0 
0.35052 1.35 0 0.35052 1.3 0 0.35052 1.25 0 
0.35052 1.2 0 0.35052 1.15 0 0.35052 1.1 0 
0.35052 1.05 0 0.35052 1 0 0.35052 0.95 0 
0.35052 0.9 0 0.35052 0.85 0 0.35052 0.8 0 
0.35052 0.75 0 0.35052 0.7 0 0.35052 0.65 0 
0.35052 0.6 0 0.35052 0.55 0 0.35052 0.5 0 
0.35052 0.45 0 0.35052 0.4 0 0.35052 0.35 0 
0.35052 0.3 0 0.35052 0.25 0 0.35052 0.2 0 
0.35052 0.15 0 0.35052 0.1 0 0.35052 0.05 0 
0.35052 0 0 0.400304 1.5 0 0.400304 1.45 0 
0.400304 1.4 0 0.400304 1.35 0 0.400304 1.3 0 
0.400304 1.25 0 0.400304 1.2 0 0.400304 1.15 0 
0.400304 1.1 0 0.400304 1.05 0 0.400304 1 0 
0.400304 0.95 0 0.400304 0.9 0 0.400304 0.85 0 
0.400304 0.8 0 0.400304 0.75 0 0.400304 0.7 0 
0.400304 0.65 0 0.400304 0.6 0 0.400304 0.55 0 
0.400304 0.5 0 0.400304 0.45 0 0.400304 0.4 0 
0.400304 0.35 0 0.400304 0.3 0 0.400304 0.25 0 
0.400304 0.2 0 0.400304 0.15 0 0.400304 0.1 0 
0.400304 0.05 0 0.400304 0 0 0.450088 1.5 0 
0.450088 1.45 0 0.450088 1.4 0 0.450088 1.35 0 
0.450088 1.3 0 0.450088 1.25 0 0.450088 1.2 0 
0.450088 1.15 0 0.450088 1.1 0 0.450088 1.05 0 
0.450088 1 0 0.450088 0.95 0 0.450088 0.9 0 
0.450088 0.85 0 0.450088 0.8 0 0.450088 0.75 0 
0.450088 0.7 0 0.450088 0.65 0 0.450088 0.6 0 
0.450088 0.55 0 0.450088 0.5 0 0.450088 0.45 0 
0.450088 0.4 0 0.450088 0.35 0 0.450088 0.3 0 
0.450088 0.25 0 0.450088 0.2 0 0.450088 0.15 0 
0.450088 0.1 0 0.450088 0.05 0 0.450088 0 0 
0.499872 1.5 0 0.499872 1.45 0 0.499872 1.4 0 
0.499872 1.35 0 0.499872 1.3 0 0.499872 1.25 0 
0.499872 1.2 0 0.499872 1.15 0 0.499872 1.1 0 
0.499872 1.05 0 0.499872 1 0 0.499872 0.95 0 
0.499872 0.9 0 0.499872 0.85 0 0.499872 0.8 0 
0.499872 0.75 0 0.499872 0.7 0 0.499872 0.65 0 
0.499872 0.6 0 0.499872 0.55 0 0.499872 0.5 0 
0.499872 0.45 0 0.499872 0.4 0 0.499872 0.35 0 
0.499872 0.3 0 0.499872 0.25 0 0.499872 0.2 0 
0.499872 0.15 0 0.499872 0.1 0 0.499872 0.05 0 
0.499872 0 0 0.549656 1.5 0 0.549656 1.45 0 
0.549656 1.4 0 0.549656 1.35 0 0.549656 1.3 0 
0.549656 1.25 0 0.549656 1.2 0 0.549656 1.15 0 
0.549656 1.1 0 0.549656 1.05 0 0.549656 1 0 
0.549656 0.95 0 0.549656 0.9 0 0.549656 0.85 0 
0.549656 0.8 0 0.549656 0.75 0 0.549656 0.7 0 
0.549656 0.65 0 0.549656 0.6 0 0.549656 0.55 0 
0.549656 0.5 0 0.549656 0.45 0 0.549656 0.4 0 
0.549656 0.35 0 0.549656 0.3 0 0.549656 0.25 0 
0.549656 0.2 0 0.549656 0.15 0 0.549656 0.1 0 
0.549656 0.05 0 0.549656 0 0 0.59944 1.5 0 
0.59944 1.45 0 0.59944 1.4 0 0.59944 1.35 0 
0.59944 1.3 0 0.59944 1.25 0 0.59944 1.2 0 
0.59944 1.15 0 0.59944 1.1 0 0.59944 1.05 0 
0.59944 1 0 0.59944 0.95 0 0.59944 0.9 0 
0.59944 0.85 0 0.59944 0.8 0 0.59944 0.75 0 
0.59944 0.7 0 0.59944 0.65 0 0.59944 0.6 0 
0.59944 0.55 0 0.59944 0.5 0 0.59944 0.45 0 
0.59944 0.4 0 0.59944 0.35 0 0.59944 0.3 0 
0.59944 0.25 0 0.59944 0.2 0 0.59944 0.15 0 
0.59944 0.1 0 0.59944 0.05 0 0.59944 0 0 
0.649224 1.5 0 0.649224 1.45 0 0.649224 1.4 0 
0.649224 1.35 0 0.649224 1.3 0 0.649224 1.25 0 
0.649224 1.2 0 0.649224 1.15 0 0.649224 1.1 0 
0.649224 1.05 0 0.649224 1 0 0.649224 0.95 0 
0.649224 0.9 0 0.649224 0.85 0 0.649224 0.8 0 
0.649224 0.75 0 0.649224 0.7 0 0.649224 0.65 0 
0.649224 0.6 0 0.649224 0.55 0 0.649224 0.5 0 
0.649224 0.45 0 0.649224 0.4 0 0.649224 0.35 0 
0.649224 0.3 0 0.649224 0.25 0 0.649224 0.2 0 
0.649224 0.15 0 0.649224 0.1 0 0.649224 0.05 0 
0.649224 0 0 0.699008 1.5 0 0.699008 1.45 0 
0.699008 1.4 0 0.699008 1.35 0 0.699008 1.3 0 
0.699008 1.25 0 0.699008 1.2 0 0.699008 1.15 0 
0.699008 1.1 0 0.699008 1.05 0 0.699008 1 0 
0.699008 0.95 0 0.699008 0.9 0 0.699008 0.85 0 
0.699008 0.8 0 0.699008 0.75 0 0.699008 0.7 0 
0.699008 0.65 0 0.699008 0.6 0 0.699008 0.55 0 
0.699008 0.5 0 0.699008 0.45 0 0.699008 0.4 0 
0.699008 0.35 0 0.699008 0.3 0 0.699008 0.25 0 
0.699008 0.2 0 0.699008 0.15 0 0.699008 0.1 0 
0.699008 0.05 0 0.699008 0 0 0.748792 1.5 0 
0.748792 1.45 0 0.748792 1.4 0 0.748792 1.35 0 
0.748792 1.3 0 0.748792 1.25 0 0.748792 1.2 0 
0.748792 1.15 0 0.748792 1.1 0 0.748792 1.05 0 
0.748792 1 0 0.748792 0.95 0 0.748792 0.9 0 
0.748792 0.85 0 0.748792 0.8 0 0.748792 0.75 0 
0.748792 0.7 0 0.748792 0.65 0 0.748792 0.6 0 
0.748792 0.55 0 0.748792 0.5 0 0.748792 0.45 0 
0.748792 0.4 0 0.748792 0.35 0 0.748792 0.3 0 
0.748792 0.25 0 0.748792 0.2 0 0.748792 0.15 0 
0.748792 0.1 0 0.748792 0.05 0 0.748792 0 0 
0.798576 1.5 0 0.798576 1.45 0 0.798576 1.4 0 
0.798576 1.35 0 0.798576 1.3 0 0.798576 1.25 0 
0.798576 1.2 0 0.798576 1.15 0 0.798576 1.1 0 
0.798576 1.05 0 0.798576 1 0 0.798576 0.95 0 
0.798576 0.9 0 0.798576 0.85 0 0.798576 0.8 0 
0.798576 0.75 0 0.798576 0.7 0 0.798576 0.65 0 
0.798576 0.6 0 0.798576 0.55 0 0.798576 0.5 0 
0.798576 0.45 0 0.798576 0.4 0 0.798576 0.35 0 
0.798576 0.3 0 0.798576 0.25 0 0.798576 0.2 0 
0.798576 0.15 0 0.798576 0.1 0 0.798576 0.05 0 
0.798576 0 0 0.84836 1.5 0 0.84836 1.45 0 
0.84836 1.4 0 0.84836 1.35 0 0.84836 1.3 0 
0.84836 1.25 0 0.84836 1.2 0 0.84836 1.15 0 
0.84836 1.1 0 0.84836 1.05 0 0.84836 1 0 
0.84836 0.95 0 0.84836 0.9 0 0.84836 0.85 0 
0.84836 0.8 0 0.84836 0.75 0 0.84836 0.7 0 
0.84836 0.65 0 0.84836 0.6 0 0.84836 0.55 0 
0.84836 0.5 0 0.84836 0.45 0 0.84836 0.4 0 
0.84836 0.35 0 0.84836 0.3 0 0.84836 0.25 0 
0.84836 0.2 0 0.84836 0.15 0 0.84836 0.1 0 
0.84836 0.05 0 0.84836 0 0 0.898144 1.5 0 
0.898144 1.45 0 0.898144 1.4 0 0.898144 1.35 0 
0.898144 1.3 0 0.898144 1.25 0 0.898144 1.2 0 
0.898144 1.15 0 0.898144 1.1 0 0.898144 1.05 0 
0.898144 1 0 0.898144 0.95 0 0.898144 0.9 0 
0.898144 0.85 0 0.898144 0.8 0 0.898144 0.75 0 
0.898144 0.7 0 0.898144 0.65 0 0.898144 0.6 0 
0.898144 0.55 0 0.898144 0.5 0 0.898144 0.45 0 
0.898144 0.4 0 0.898144 0.35 0 0.898144 0.3 0 
0.898144 0.25 0 0.898144 0.2 0 0.898144 0.15 0 
0.898144 0.1 0 0.898144 0.05 0 0.898144 0 0 
0.947928 1.5 0 0.947928 1.45 0 0.947928 1.4 0 
0.947928 1.35 0 0.947928 1.3 0 0.947928 1.25 0 
0.947928 1.2 0 0.947928 1.15 0 0.947928 1.1 0 
0.947928 1.05 0 0.947928 1 0 0.947928 0.95 0 
0.947928 0.9 0 0.947928 0.85 0 0.947928 0.8 0 
0.947928 0.75 0 0.947928 0.7 0 0.947928 0.65 0 
0.947928 0.6 0 0.947928 0.55 0 0.947928 0.5 0 
0.947928 0.45 0 0.947928 0.4 0 0.947928 0.35 0 
0.947928 0.3 0 0.947928 0.25 0 0.947928 0.2 0 
0.947928 0.15 0 0.947928 0.1 0 0.947928 0.05 0 
0.947928 0 0 0.997712 1.5 0 0.997712 1.45 0 
0.997712 1.4 0 0.997712 1.35 0 0.997712 1.3 0 
0.997712 1.25 0 0.997712 1.2 0 0.997712 1.15 0 
0.997712 1.1 0 0.997712 1.05 0 0.997712 1 0 
0.997712 0.95 0 0.997712 0.9 0 0.997712 0.85 0 
0.997712 0.8 0 0.997712 0.75 0 0.997712 0.7 0 
0.997712 0.65 0 0.997712 0.6 0 0.997712 0.55 0 
0.997712 0.5 0 0.997712 0.45 0 0.997712 0.4 0 
0.997712 0.35 0 0.997712 0.3 0 0.997712 0.25 0 
0.997712 0.2 0 0.997712 0.15 0 0.997712 0.1 0 
0.997712 0.05 0 0.997712 0 0 1.047496 1.5 0 
1.047496 1.45 0 1.047496 1.4 0 1.047496 1.35 0 
1.047496 1.3 0 1.047496 1.25 0 1.047496 1.2 0 
1.047496 1.15 0 1.047496 1.1 0 1.047496 1.05 0 
1.047496 1 0 1.047496 0.95 0 1.047496 0.9 0 
1.047496 0.85 0 1.047496 0.8 0 1.047496 0.75 0 
1.047496 0.7 0 1.047496 0.65 0 1.047496 0.6 0 
1.047496 0.55 0 1.047496 0.5 0 1.047496 0.45 0 
1.047496 0.4 0 1.047496 0.35 0 1.047496 0.3 0 
1.047496 0.25 0 1.047496 0.2 0 1.047496 0.15 0 
[...]
CELL_DATA 9150
FIELD FieldData 7
B_Stress_n_p_m2 1 9150 float
1.35275 1.37066 1.3889 1.40769 1.42806 1.45051 1.47491 1.50022 1.52391 
1.54087 1.54187 1.51422 1.44257 1.26625 0.828828 0.308835 0.134081 0.111627 
0.0870416 0.0744411 0.0693799 0.0658688 0.063816 0.0624071 0.0611617 0.0612424 0.0586256 
0.0511188 0.0654507 0.0581581 1.2698 1.28651 1.30198 1.31662 1.33142 1.34678 
1.36261 1.37816 1.39162 1.3995 1.39598 1.37378 1.32329 1.21749 1.01625 
0.764611 0.540324 0.37498 0.276423 0.214789 0.172917 0.143457 0.121892 0.105417 
0.0916879 0.0801578 0.0716858 0.0550761 0.0403522 0.122979 1.19051 1.20597 1.2188 
1.22953 1.23904 1.24755 1.25483 1.26007 1.26162 1.25656 1.24035 1.2069 
1.14706 1.04414 0.883942 0.690491 0.528197 0.405096 0.315411 0.251106 0.204352 
0.169521 0.143057 0.122472 0.10596 0.0925895 0.0813484 0.069814 0.0634554 0.0783028 
1.11586 1.13011 1.1406 1.14795 1.15294 1.15566 1.15573 1.15233 1.14396 
1.12825 1.10185 1.06044 0.998226 0.907653 0.786155 0.64935 0.527014 0.425214 
0.344081 0.281605 0.2337 0.196651 0.167714 0.144814 0.126444 0.11166 0.0996461 
0.0899605 0.0849856 0.0862262 1.04649 1.0596 1.06812 1.07276 1.07421 1.07247 
1.06716 1.05752 1.04229 1.01969 0.987395 0.942667 0.882426 0.804066 0.709031 
0.60686 0.510734 0.426441 0.356091 0.299179 0.253632 0.217229 0.188069 0.164601 
0.145656 0.130434 0.118388 0.109319 0.10389 0.10195 0.982696 0.994778 1.00172 
1.00431 1.00316 0.998293 0.989357 0.975734 0.956477 0.930332 0.895815 0.851369 
0.795625 0.72815 0.651137 0.570471 0.493118 0.423253 0.362828 0.312015 0.269913 
0.23528 0.206887 0.183655 0.164714 0.14943 0.13739 0.128365 0.122281 0.119054 
0.924533 0.935703 0.941437 0.942553 0.939656 0.932773 0.921656 0.905853 0.884709 
0.857417 0.823114 0.781041 0.730791 0.672791 0.609028 0.543215 0.479472 0.42068 
0.368421 0.323161 0.28461 0.252121 0.22494 0.202342 0.183702 0.168535 0.156509 
0.147373 0.140864 0.137227 0.871868 0.882241 0.887076 0.887215 0.883242 0.875226 
0.863021 0.846338 0.824768 0.797845 0.765132 0.726361 0.681608 0.631573 0.577858 
0.522907 0.469328 0.41914 0.3736 0.333254 0.29812 0.267906 0.242178 0.220469 
0.202343 0.187442 0.175505 0.166301 0.159577 0.155795 0.824436 0.83412 0.838312 
0.837861 0.833331 0.824837 0.812324 0.795641 0.774574 0.748896 0.718452 0.68325 
0.643587 0.600188 0.554306 0.507621 0.461888 0.418551 0.378603 0.342578 0.31064 
0.282706 0.258551 0.23789 0.220435 0.205928 0.194178 0.184995 0.178183 0.174305 
0.781893 0.790985 0.794738 0.79399 0.789285 0.780775 0.768483 0.752367 0.732352 
0.70838 0.680464 0.648765 0.613659 0.57581 0.536194 0.496017 0.456515 0.418752 
0.383512 0.351283 0.32229 0.296567 0.274025 0.254507 0.237829 0.223819 0.212347 
0.203267 0.196447 0.19248 0.743852 0.752438 0.755907 0.755077 0.750465 0.742254 
0.730524 0.715316 0.696652 0.674582 0.649222 0.620805 0.58972 0.556547 0.522055 
0.48714 0.452708 0.419564 0.388334 0.359445 0.333143 0.309525 0.288585 0.270251 
0.25442 0.240984 0.22986 0.22095 0.214172 0.210119 0.70991 0.718064 0.721368 
0.720606 0.716269 0.708558 0.697597 0.683482 0.666303 0.646177 0.623275 0.59786 
0.570303 0.541105 0.510878 0.480308 0.450085 0.420829 0.393047 0.367109 0.343255 
0.321614 0.302229 0.285086 0.270137 0.257324 0.246603 0.23791 0.231208 0.227071 
0.679673 0.687458 0.690681 0.690089 0.686142 0.679051 0.668969 0.65603 0.640367 
0.622134 0.601533 0.578829 0.554368 0.528576 0.501951 0.475032 0.448356 0.422416 
0.397625 0.3743 0.352668 0.332867 0.314969 0.298997 0.284941 0.272777 0.262491 
0.254049 0.247445 0.243228 0.652761 0.660231 0.663435 0.663077 0.659586 0.653176 
0.644018 0.63227 0.618089 0.601651 0.583168 0.562899 0.541155 0.518305 0.494757 
0.470946 0.447302 0.424219 0.40204 0.381038 0.361418 0.343319 0.326828 0.311987 
0.298813 0.287306 0.277473 0.269302 0.262809 0.258516 0.628822 0.636022 0.639249 
0.639162 0.636158 0.63045 0.622218 0.611633 0.598864 0.584098 0.567546 0.549454 
0.530103 0.509809 0.488917 0.467781 0.446752 0.426154 0.406271 0.387338 0.369539 
0.353008 0.337834 0.324073 0.311755 0.300898 0.291522 0.283632 0.277259 0.272892 
0.607532 0.6145 0.617779 0.61798 0.615469 0.610456 0.603123 0.593647 0.582201 
0.568975 0.554173 0.538025 0.520785 0.502727 0.484143 0.46533 0.446576 0.428153 
0.410298 0.393214 0.377063 0.361969 0.348021 0.335279 0.323782 0.313558 0.304634 
0.297026 0.290776 0.286338 0.588597 0.595365 0.598712 0.599205 0.597179 0.592836 
0.586359 0.577922 0.567702 0.555882 0.54266 0.528248 0.512875 0.496781 0.480217 
0.463434 0.446675 0.430165 0.414108 0.398678 0.384018 0.370239 0.357426 0.34564 
0.334922 0.325304 0.31682 0.309489 0.303363 0.298857 0.571752 0.578348 0.581773 
0.582551 0.58099 0.577282 0.571607 0.564135 0.55504 0.544499 0.532699 0.519836 
0.506118 0.491757 0.47697 0.461972 0.446968 0.432152 0.417695 0.403748 0.390435 
0.377857 0.366091 0.355194 0.345208 0.336167 0.328104 0.321042 0.315036 0.310466 
0.55676 0.563207 0.566715 0.567767 0.566644 0.563531 0.558598 0.552014 0.543945 
0.534562 0.524041 0.512563 0.500315 0.487488 0.474271 0.460848 0.447398 0.434084 
0.421055 0.408439 0.396345 0.384861 0.374056 0.363983 0.354682 0.346183 0.33852 
0.331716 0.325825 0.321195 0.543413 0.54973 0.553322 0.554632 0.553917 0.551353 
0.547104 0.541331 0.534195 0.525858 0.516485 0.506245 0.495306 0.48384 0.472014 
0.459988 0.447917 0.435941 0.424188 0.412768 0.401776 0.391288 0.381364 0.372052 
0.363386 0.355394 0.348108 0.341548 0.335767 0.33108 0.531524 0.537727 0.541401 
0.542951 0.542614 0.540554 0.53693 0.531896 0.525604 0.51821 0.509868 0.500734 
0.490963 0.480707 0.470117 0.459333 0.448489 0.437707 0.427097 0.416754 0.406758 
0.397175 0.388058 0.379445 0.371367 0.363847 0.356913 0.350582 0.344905 0.340165 
0.520927 0.527031 0.530783 0.532555 0.532564 0.530965 0.52791 0.523545 0.518017 
0.511471 0.504054 0.495909 0.48718 0.478004 0.468514 0.458837 0.449088 0.439374 
0.429789 0.420415 0.41132 0.40256 0.394178 0.386207 0.378671 0.371589 0.364982 
0.358866 0.353285 0.348496 0.511478 0.517495 0.52132 0.523295 0.523619 0.52244 
0.5199 0.516141 0.5113 0.505518 0.49893 0.491671 0.483872 0.47566 0.467153 
0.458463 0.449693 0.440936 0.432272 0.423771 0.415491 0.407478 0.399767 0.392383 
0.385344 0.378666 0.372363 0.366446 0.360955 0.35612 0.503048 0.508988 0.512881 
0.515041 0.515652 0.514852 0.512778 0.509565 0.505343 0.500246 0.494402 0.487937 
0.48097 0.473619 0.46599 0.458183 0.45029 0.44239 0.434554 0.426841 0.419297 
0.411962 0.404862 0.398015 0.391433 0.385126 0.379103 0.373372 0.367965 0.363087 
0.495523 0.501395 0.50535 0.507678 0.508548 0.508091 0.506437 0.503715 0.500051 
0.495569 0.490392 0.484636 0.478415 0.471834 0.464991 0.457975 0.450867 0.443738 
0.436646 0.429643 0.422766 0.416046 0.409501 0.403144 0.396982 0.391016 0.385251 
0.37969 0.374361 0.369444 0.488803 0.494614 0.498627 0.501106 0.50221 0.502061 
0.500786 0.498505 0.495341 0.491411 0.486831 0.481712 0.476158 0.470267 0.464127 
0.457821 0.451418 0.44498 0.438559 0.432196 0.425923 0.41976 0.413721 0.407811 
0.402031 0.396378 0.390851 0.385448 0.38019 0.375237 0.482799 0.488557 0.492621 
0.495237 0.49655 0.496679 0.495743 0.493859 0.491143 0.487708 0.483664 0.479115 
0.474159 0.468885 0.463376 0.457705 0.451935 0.44612 0.440304 0.434519 0.428791 
0.423134 0.417555 0.412053 0.406622 0.401256 0.395947 0.390688 0.385496 0.380512 
0.477434 0.483144 0.487255 0.489993 0.491494 0.491872 0.49124 0.489711 0.487397 
0.484406 0.480841 0.476803 0.472382 0.467662 0.462719 0.457619 0.452418 0.447163 
0.441891 0.436629 0.431394 0.426196 0.421034 0.415904 0.410793 0.405689 0.40058 
0.395455 0.390324 0.38531 0.472638 0.478304 0.482457 0.485304 0.486974 0.487574 
0.487214 0.486004 0.484049 0.481455 0.478321 0.47474 0.470798 0.466575 0.46214 
0.457552 0.452863 0.448112 0.443331 0.438541 0.433753 0.428971 0.424189 0.419397 
0.414578 0.409714 0.404789 0.399786 0.394711 0.389671 0.468349 0.473977 0.478167 
0.481112 0.482931 0.48373 0.483614 0.482687 0.481055 0.478816 0.476066 0.472895 
0.469384 0.465606 0.461626 0.457499 0.45327 0.448973 0.444635 0.440272 0.435889 
0.431484 0.427048 0.422564 0.418012 0.413367 0.40861 0.403721 0.398697 0.393633 
0.464514 0.470107 0.47433 0.477361 0.479314 0.48029 0.48039 0.479718 0.478373 
0.476452 0.474046 0.471242 0.468116 0.464738 0.461168 0.457454 0.453639 0.449752 
0.445814 0.441836 0.43782 0.433758 0.429636 0.425433 0.421124 0.41668 0.412078 
0.407292 0.402317 0.397231 0.461085 0.466646 0.470898 0.474005 0.476077 0.47721 
0.477504 0.477057 0.475969 0.474331 0.472234 0.469758 0.466978 0.463958 0.460755 
0.457414 0.453971 0.450454 0.446877 0.443248 0.439564 0.435813 0.431977 0.42803 
0.423943 0.419684 0.415223 0.410533 0.405602 0.400496 0.458017 0.46355 0.467827 
0.471002 0.473178 0.474451 0.474916 0.474671 0.473811 0.472427 0.470605 0.468423 
0.465952 0.463254 0.460381 0.457375 0.454268 0.451083 0.447833 0.444519 0.441136 
0.437669 0.434093 0.43038 0.426496 0.422406 0.418075 0.413473 0.408583 0.40346 
0.455274 0.460781 0.46508 0.468314 0.470583 0.471979 0.472596 0.47253 0.471874 
0.470716 0.469139 0.46722 0.465026 0.462617 0.46004 0.457335 0.454531 0.451646 
0.448691 0.445663 0.442554 0.439343 0.436004 0.432505 0.428807 0.424872 0.420661 
0.416139 0.411288 0.40615 0.452822 0.458305 0.462622 0.465908 0.468258 0.469763 
0.470515 0.470608 0.470132 0.469175 0.467817 0.466134 0.464188 0.462037 0.459726 
0.457292 0.454761 0.452147 0.449459 0.44669 0.443829 0.440852 0.43773 0.434425 
0.430898 0.427105 0.423004 0.418558 0.413742 0.408591 0.45063 0.456091 0.460424 
0.463754 0.466176 0.467776 0.468647 0.46888 0.468565 0.467786 0.466624 0.46515 
0.463427 0.461508 0.459437 0.457246 0.45496 0.452592 0.450144 0.447611 0.444975 
0.442211 0.439286 0.43616 0.432789 0.429127 0.425128 0.420751 0.415969 0.410807 
0.448671 0.454112 0.458458 0.461827 0.464311 0.465995 0.46697 0.467327 0.467153 
0.466534 0.465546 0.464259 0.462735 0.461023 0.459167 0.457195 0.455131 0.452984 
0.450755 0.448434 0.446003 0.443434 0.440689 0.437727 0.4345 0.430958 0.427053 
0.422741 0.41799 0.412818 0.446923 0.452345 0.456701 0.460104 0.46264 0.464397 
0.465464 0.465929 0.465881 0.465402 0.464569 0.463449 0.462102 0.460577 0.458913 
0.45714 0.455275 0.453328 0.451296 0.449169 0.446925 0.444533 0.441954 0.439142 
0.436047 0.432616 0.428798 0.424546 0.419824 0.414644 0.445362 0.450767 0.455131 
0.458562 0.461145 0.462964 0.46411 0.464671 0.464733 0.464378 0.463682 0.462712 
0.461523 0.460165 0.458675 0.457079 0.455394 0.453628 0.451775 0.449824 0.44775 
0.44552 0.443092 0.440418 0.437445 0.434117 0.430381 0.426184 0.42149 0.416303 
0.44397 0.449359 0.45373 0.457184 0.459805 0.461679 0.462894 0.463537 0.463696 
0.463451 0.462877 0.462038 0.460992 0.459783 0.458448 0.457012 0.45549 0.453887 
0.452197 0.450406 0.448487 0.446405 0.444116 0.44157 0.438709 0.435477 0.431816 
0.427672 0.423005 0.417812 0.442731 0.448105 0.452479 0.455952 0.458607 0.460526 
0.4618 0.462515 0.462759 0.46261 0.462144 0.461423 0.460502 0.459427 0.458232 
0.45694 0.455564 0.454109 0.452567 0.450921 0.449144 0.447198 0.445037 0.442608 
0.439852 0.436709 0.433118 0.429023 0.424381 0.419184 0.441628 0.446988 0.451365 
0.454853 0.457534 0.459492 0.460816 0.461594 0.461911 0.461847 0.461475 0.460858 
0.46005 0.459095 0.458024 0.456862 0.455619 0.454298 0.45289 0.451377 0.449729 
0.447907 0.445864 0.443544 0.440885 0.437825 0.4343 0.430252 0.425634 0.420433 
0.440648 0.445995 0.450372 0.453872 0.456575 0.458565 0.459931 0.460762 0.461142 
0.461152 0.460863 0.460339 0.459631 0.458782 0.457824 0.456778 0.455655 0.454455 
0.453169 0.451777 0.450248 0.448541 0.446607 0.444387 0.441819 0.438836 0.435374 
0.43137 0.426775 0.421572 0.43978 0.445114 0.44949 0.452998 0.455718 0.457734 
0.459135 0.46001 0.460445 0.460519 0.460303 0.45986 0.459241 0.458488 0.457631 
0.456689 0.455674 0.454584 0.453409 0.452128 0.450707 0.449106 0.447273 0.445147 
0.442664 0.439754 0.43635 0.432388 0.427815 0.422611 0.439011 0.444333 0.448707 
0.45222 0.454952 0.456989 0.458418 0.459331 0.459812 0.45994 0.459789 0.459417 
0.458877 0.458209 0.457442 0.456595 0.455678 0.454688 0.453614 0.452433 0.451113 
0.44961 0.44787 0.445831 0.443427 0.440586 0.437238 0.433316 0.428765 0.42356 
0.438333 0.443643 0.448013 0.451529 0.454269 0.456321 0.457773 0.458716 0.459235 
0.459412 0.459315 0.459007 0.458537 0.457944 0.457258 0.456497 0.455667 0.454768 
0.453786 0.452698 0.45147 0.450057 0.448404 0.446448 0.444118 0.441342 0.438047 
0.434163 0.429633 0.424428 0.437736 0.443034 0.4474 0.450915 0.45366 0.455722 
0.457192 0.458159 0.458711 0.458927 0.458878 0.458625 0.458217 0.457692 0.457078 
0.456393 0.455643 0.454826 0.453929 0.452926 0.451782 0.450453 0.448881 0.447002 
0.444743 0.442029 0.438784 0.434937 0.430429 0.425224 0.437212 0.4425 0.446859 
0.450372 0.453118 0.455186 0.456668 0.457654 0.458232 0.458481 0.458474 0.458268 
0.457915 0.45745 0.456901 0.456285 0.455607 0.454865 0.454044 0.453119 0.452055 
0.450803 0.449308 0.447501 0.445309 0.442654 0.439457 0.435646 0.431158 0.425955 
0.436756 0.442032 0.446385 0.449892 0.452637 0.454707 0.456195 0.457195 0.457793 
0.458071 0.458098 0.457935 0.457629 0.457217 0.456726 0.456172 0.45556 0.454886 
0.454135 0.453282 0.452291 0.451112 0.449688 0.447949 0.445821 0.443222 0.440073 
0.436296 0.431828 0.426628 0.436359 0.441625 0.445969 0.449469 0.452209 0.454278 
0.45577 0.456778 0.457392 0.457692 0.457749 0.457621 0.457357 0.456993 0.456554 
0.456055 0.455503 0.454891 0.454204 0.453418 0.452493 0.451383 0.450026 0.448352 
0.446285 0.44374 0.440636 0.436894 0.432446 0.427249 0.436017 0.441273 0.445607 
0.449098 0.45183 0.453894 0.455385 0.456399 0.457024 0.457341 0.457422 0.457326 
0.457098 0.456776 0.456383 0.455935 0.455436 0.45488 0.454253 0.453528 0.452666 
0.451619 0.450326 0.448714 0.446705 0.444213 0.441153 0.437444 0.433016 0.427823 
0.435725 0.44097 0.445294 0.448774 0.451495 0.453551 0.455038 0.456052 0.456684 
0.457015 0.457116 0.457046 0.45685 0.456565 0.456214 0.455811 0.45536 0.454856 
0.454283 0.453615 0.452812 0.451825 0.450592 0.449039 0.447086 0.444645 0.441629 
0.437952 0.433545 0.428355 0.435477 0.440712 0.445024 0.448492 0.4512 0.453245 
0.454725 0.455736 0.456371 0.456712 0.456829 0.45678 0.456612 0.456359 0.456045 
0.455683 0.455276 0.45482 0.454297 0.45368 0.452933 0.452002 0.450826 0.449331 
0.447432 0.445041 0.442066 0.438423 0.434035 0.42885 0.435271 0.440496 0.444795 
0.448248 0.450941 0.452972 0.454441 0.455446 0.456081 0.456428 0.456557 0.456527 
0.456383 0.456158 0.455877 0.455551 0.455185 0.454771 0.454294 0.453727 0.453031 
0.452154 0.451033 0.449592 0.447746 0.445403 0.442471 0.438859 0.434492 0.429312 
0.435101 0.440316 0.444602 0.448038 0.450714 0.452729 0.454184 0.455181 0.455812 
0.456162 0.4563 0.456284 0.456161 0.455962 0.45571 0.455417 0.455087 0.454713 
0.454278 0.453756 0.453108 0.452282 0.451214 0.449826 0.448031 0.445736 0.442845 
0.439266 0.434919 0.429745 0.434966 0.440171 0.444442 0.44786 0.450517 0.452512 
0.453951 0.454936 0.455561 0.455911 0.456055 0.456052 0.455945 0.455768 0.455542 
0.45528 0.454982 0.454644 0.454249 0.45377 0.453167 0.452389 0.451371 0.450034 
0.44829 0.446042 0.443192 0.439646 0.43532 0.430152 0.434863 0.440056 0.444312 
0.447711 0.450346 0.45232 0.45374 0.454711 0.455327 0.455674 0.455822 0.455828 
0.455736 0.455578 0.455375 0.455139 0.454872 0.454567 0.454208 0.453769 0.453209 
0.452477 0.451508 0.450221 0.448526 0.446325 0.443516 0.440002 0.435697 0.430536 
0.434787 0.43997 0.444209 0.447587 0.450198 0.452149 0.453548 0.454502 0.455107 
0.455449 0.455598 0.455611 0.455532 0.45539 0.455208 0.454996 0.454756 0.454482 
0.454157 0.453754 0.453235 0.452547 0.451625 0.450387 0.448741 0.446586 0.443818 
0.440337 0.436054 0.430901 0.434738 0.43991 0.444132 0.447486 0.450072 0.451997 
0.453373 0.454308 0.4549 0.455235 0.455383 0.455401 0.455331 0.455205 0.455041 
0.45485 0.454635 0.454389 0.454095 0.453727 0.453247 0.452602 0.451724 0.450534 
0.448936 0.446828 0.444102 0.440654 0.436392 0.431247 0.434714 0.439874 0.444077 
0.447407 0.449965 0.451863 0.453214 0.454128 0.454704 0.45503 0.455176 0.455197 
0.455135 0.455021 0.454873 0.454702 0.45451 0.454289 0.454024 0.453689 0.453245 
0.452641 0.451808 0.450665 0.449115 0.447053 0.444368 0.440954 0.436715 0.431579 
0.434712 0.439861 0.444044 0.447348 0.449876 0.451744 0.453068 0.453959 0.454518 
0.454833 0.454975 0.454997 0.454942 0.454838 0.454705 0.454552 0.45438 0.454182 
0.453945 0.45364 0.453232 0.452666 0.451877 0.45078 0.449277 0.447262 0.444619 
0.44124 0.437025 0.431897 0.43473 0.439867 0.444029 0.447306 0.449803 0.451639 
0.452933 0.4538 0.454341 0.454644 0.454779 0.454802 0.454751 0.454657 0.454536 
0.454399 0.454245 0.45407 0.453857 0.453582 0.453207 0.452679 0.451932 0.450881 
0.449426 0.447457 0.444858 0.441513 0.437322 0.432205 0.434768 0.439893 0.444033 
0.44728 0.449745 0.451547 0.45281 0.45365 0.454171 0.45446 0.454589 0.45461 
0.454563 0.454477 0.454367 0.454244 0.454108 0.453952 0.453763 0.453515 0.453172 
0.452681 0.451975 0.450969 0.449562 0.44764 0.445084 0.441776 0.43761 0.432503 
0.434824 0.439936 0.444054 0.44727 0.449699 0.451465 0.452695 0.453508 0.454007 
0.454282 0.454402 0.454421 0.454377 0.454297 0.454197 0.454087 0.453966 0.453829 
0.453662 0.45344 0.453127 0.452671 0.452006 0.451045 0.449686 0.447812 0.445301 
0.44203 0.437889 0.432793 0.434898 0.439997 0.444089 0.447273 0.449665 0.451394 
0.452589 0.453372 0.453849 0.454108 0.454219 0.454235 0.454192 0.454118 0.454027 
0.453928 0.453821 0.453702 0.453555 0.453357 0.453073 0.452652 0.452027 0.45111 
0.449799 0.447974 0.445508 0.442275 0.438161 0.433077 0.434987 0.440072 0.444139 
0.447289 0.449641 0.451331 0.45249 0.453242 0.453695 0.453938 0.454039 0.45405 
0.454009 0.453939 0.453856 0.453767 0.453674 0.453569 0.453441 0.453267 0.453011 
0.452623 0.452037 0.451165 0.449903 0.448127 0.445708 0.442514 0.438428 0.433356 
0.435092 0.440163 0.444203 0.447316 0.449628 0.451276 0.452397 0.453117 0.453545 
0.45377 0.453861 0.453868 0.453827 0.45376 0.453684 0.453605 0.453523 0.453433 
0.453323 0.45317 0.452941 0.452586 0.452038 0.451211 0.449997 0.448272 0.4459 
0.442748 0.438691 0.433632 0.435211 0.440267 0.444279 0.447353 0.449622 0.451227 
0.452309 0.452996 0.453398 0.453605 0.453685 0.453687 0.453645 0.453582 0.453512 
0.453441 0.453369 0.453293 0.453199 0.453067 0.452863 0.45254 0.452031 0.451248 
0.450083 0.448409 0.446087 0.442977 0.43895 0.433905 0.435345 0.440385 0.444366 
0.447401 0.449624 0.451184 0.452224 0.452877 0.453253 0.453442 0.45351 0.453507 
0.453464 0.453404 0.453339 0.453275 0.453214 0.453149 0.453071 0.452958 0.452779 
0.452487 0.452015 0.451277 0.450162 0.44854 0.446269 0.443203 0.439208 0.434177 
0.435492 0.440516 0.444465 0.447457 0.449633 0.451146 0.452144 0.452761 0.45311 
0.45328 0.453337 0.453327 0.453283 0.453225 0.453165 0.453108 0.453055 0.453002 
0.452938 0.452844 0.452688 0.452426 0.451991 0.451297 0.450233 0.448665 0.446446 
0.443426 0.439464 0.434449 0.435653 0.440659 0.444575 0.447522 0.449648 0.451112 
0.452066 0.452647 0.452969 0.453119 0.453164 0.453149 0.453103 0.453047 0.45299 
0.45294 0.452895 0.452852 0.452801 0.452724 0.452591 0.452358 0.45196 0.45131 
0.450297 0.448784 0.44662 0.443647 0.43972 0.434722 0.435827 0.440814 0.444695 
0.447595 0.449669 0.451081 0.451989 0.452533 0.452827 0.452959 0.452992 0.45297 
0.452923 0.452868 0.452815 0.45277 0.452733 0.4527 0.452661 0.4526 0.452488 
0.452283 0.451921 0.451316 0.450355 0.448898 0.44679 0.443868 0.439977 0.434996 
0.436013 0.440981 0.444824 0.447674 0.449693 0.451052 0.451914 0.45242 0.452686 
0.452798 0.45282 0.452792 0.452743 0.452689 0.45264 0.4526 0.452569 0.452544 
0.452517 0.45247 0.452379 0.452201 0.451875 0.451315 0.450406 0.449008 0.446958 
0.444088 0.440236 0.435274 0.436212 0.44116 0.444963 0.44776 0.449722 0.451026 
0.45184 0.452307 0.452545 0.452638 0.452647 0.452614 0.452563 0.45251 0.452464 
0.452428 0.452403 0.452386 0.452369 0.452337 0.452265 0.452114 0.451823 0.451307 