# vtk DataFile Version 5.1
vtk output
ASCII
DATASET UNSTRUCTURED_GRID
POINTS 9424 double
0.1016 1.5 0 0.1016 1.45 0 0.1016 1.4 0 
0.1016 1.35 0 0.1016 1.3 0 0.1016 1.25 0 
0.1016 1.2 0 0.1016 1.15 0 0.1016 1.1 0 
0.1016 1.05 0 0.1016 1 0 0.1016 0.95 0 
0.1016 0.9 0 0.1016 0.85 0 0.1016 0.8 0 
0.1016 0.75 0 0.1016 0.7 0 0.1016 0.65 0 
0.1016 0.6 0 0.1016 0.55 0 0.1016 0.5 0 
0.1016 0.45 0 0.1016 0.4 0 0.1016 0.35 0 
0.1016 0.3 0 0.1016 0.25 0 0.1016 0.2 0 
0.1016 0.15 0 0.1016 0.1 0 0.1016 0.05 0 
0.1016 0 0 5.08 1.5 0 5.08 1.45 0 
5.08 1.4 0 5.08 1.35 0 5.08 1.3 0 
5.08 1.25 0 5.08 1.2 0 5.08 1.15 0 
5.08 1.1 0 5.08 1.05 0 5.08 1 0 
5.08 0.95 0 5.08 0.9 0 5.08 0.85 0 
5.08 0.8 0 5.08 0.75 0 5.08 0.7 0 
5.08 0.65 0 5.08 0.6 0 5.08 0.55 0 
5.08 0.5 0 5.08 0.45 0 5.08 0.4 0 
5.08 0.35 0 5.08 0.3 0 5.08 0.25 0 
5.08 0.2 0 5.08 0.15 0 5.08 0.1 0 
5.08 0.05 0 5.08 0 0 0.151384 1.5 0 
0.151384 1.45 0 0.151384 1.4 0 0.151384 1.35 0 
0.151384 1.3 0 0.151384 1.25 0 0.151384 1.2 0 
0.151384 1.15 0 0.151384 1.1 0 0.151384 1.05 0 
0.151384 1 0 0.151384 0.95 0 0.151384 0.9 0 
0.151384 0.85 0 0.151384 0.8 0 0.151384 0.75 0 
0.151384 0.7 0 0.151384 0.65 0 0.151384 0.6 0 
0.151384 0.55 0 0.151384 0.5 0 0.151384 0.45 0 
0.151384 0.4 0 0.151384 0.35 0 0.151384 0.3 0 
0.151384 0.25 0 0.151384 0.2 0 0.151384 0.15 0 
0.151384 0.1 0 0.151384 0.05 0 0.151384 0 0 
0.201168 1.5 0 0.201168 1.45 0 0.201168 1.4 0 
0.201168 1.35 0 0.201168 1.3 0 0.201168 1.25 0 
0.201168 1.2 0 0.201168 1.15 0 0.201168 1.1 0 
0.201168 1.05 0 0.201168 1 0 0.201168 0.95 0 
0.201168 0.9 0 0.201168 0.85 0 0.201168 0.8 0 
0.201168 0.75 0 0.201168 0.7 0 0.201168 0.65 0 
0.201168 0.6 0 0.201168 0.55 0 0.201168 0.5 0 
0.201168 0.45 0 0.201168 0.4 0 0.201168 0.35 0 
0.201168 0.3 0 0.201168 0.25 0 0.201168 0.2 0 
0.201168 0.15 0 0.201168 0.1 0 0.201168 0.05 0 
0.201168 0 0 0.250952 1.5 0 0.250952 1.45 0 
0.250952 1.4 0 0.250952 1.35 0 0.250952 1.3 0 
0.250952 1.25 0 0.250952 1.2 0 0.250952 1.15 0 
0.250952 1.1 0 0.250952 1.05 0 0.250952 1 0 
0.250952 0.95 0 0.250952 0.9 0 0.250952 0.85 0 
0.250952 0.8 0 0.250952 0.75 0 0.250952 0.7 0 
0.250952 0.65 0 0.250952 0.6 0 0.250952 0.55 0 
0.250952 0.5 0 0.250952 0.45 0 0.250952 0.4 0 
0.250952 0.35 0 0.250952 0.3 0 0.250952 0.25 0 
0.250952 0.2 0 0.250952 0.15 0 0.250952 0.1 0 
0.250952 0.05 0 0.250952 0 0 0.300736 1.5 0 
0.300736 1.45 0 0.300736 1.4 0 0.300736 1.35 0 
0.300736 1.3 0 0.300736 1.25 0 0.300736 1.2 0 
0.300736 1.15 0 0.300736 1.1 0 0.300736 1.05 0 
0.300736 1 0 0.300736 0.95 0 0.300736 0.9 0 
0.300736 0.85 0 0.300736 0.8 0 0.300736 0.75 0 
0.300736 0.7 0 0.300736 0.65 0 0.300736 0.6 0 
0.300736 0.55 0 0.300736 0.5 0 0.300736 0.45 0 
0.300736 0.4 0 0.300736 0.35 0 0.300736 0.3 0 
0.300736 0.25 0 0.300736 0.2 0 0.300736 0.15 0 
0.300736 0.1 0 0.300736 0.05 0 0.300736 0 0 
0.35052 1.5 0 0.35052 1.45 0 0.35052 1.4 0 
0.35052 1.35 0 0.35052 1.3 0 0.35052 1.25 0 
0.35052 1.2 0 0.35052 1.15 0 0.35052 1.1 0 
0.35052 1.05 0 0.35052 1 0 0.35052 0.95 0 
0.35052 0.9 0 0.35052 0.85 0 0.35052 0.8 0 
0.35052 0.75 0 0.35052 0.7 0 0.35052 0.65 0 
0.35052 0.6 0 0.35052 0.55 0 0.35052 0.5 0 
0.35052 0.45 0 0.35052 0.4 0 0.35052 0.35 0 
0.35052 0.3 0 0.35052 0.25 0 0.35052 0.2 0 
0.35052 0.15 0 0.35052 0.1 0 0.35052 0.05 0 
0.35052 0 0 0.400304 1.5 0 0.400304 1.45 0 
0.400304 1.4 0 0.400304 1.35 0 0.400304 1.3 0 
0.400304 1.25 0 0.400304 1.2 0 0.400304 1.15 0 
0.400304 1.1 0 0.400304 1.05 0 0.400304 1 0 
0.400304 0.95 0 0.400304 0.9 0 0.400304 0.85 0 
0.400304 0.8 0 0.400304 0.75 0 0.400304 0.7 0 
0.400304 0.65 0 0.400304 0.6 0 0.400304 0.55 0 
0.400304 0.5 0 0.400304 0.45 0 0.400304 0.4 0 
0.400304 0.35 0 0.400304 0.3 0 0.400304 0.25 0 
0.400304 0.2 0 0.400304 0.15 0 0.400304 0.1 0 
0.400304 0.05 0 0.400304 0 0 0.450088 1.5 0 
0.450088 1.45 0 0.450088 1.4 0 0.450088 1.35 0 
0.450088 1.3 0 0.450088 1.25 0 0.450088 1.2 0 
0.450088 1.15 0 0.450088 1.1 0 0.450088 1.05 0 
0.450088 1 0 0.450088 0.95 0 0.450088 0.9 0 
0.450088 0.85 0 0.450088 0.8 0 0.450088 0.75 0 
0.450088 0.7 0 0.450088 0.65 0 0.450088 0.6 0 
0.450088 0.55 0 0.450088 0.5 0 0.450088 0.45 0 
0.450088 0.4 0 0.450088 0.35 0 0.450088 0.3 0 
0.450088 0.25 0 0.450088 0.2 0 0.450088 0.15 0 
0.450088 0.1 0 0.450088 0.05 0 0.450088 0 0 
0.499872 1.5 0 0.499872 1.45 0 0.499872 1.4 0 
0.499872 1.35 0 0.499872 1.3 0 0.499872 1.25 0 
0.499872 1.2 0 0.499872 1.15 0 0.499872 1.1 0 
0.499872 1.05 0 0.499872 1 0 0.499872 0.95 0 
0.499872 0.9 0 0.499872 0.85 0 0.499872 0.8 0 
0.499872 0.75 0 0.499872 0.7 0 0.499872 0.65 0 
0.499872 0.6 0 0.499872 0.55 0 0.499872 0.5 0 
0.499872 0.45 0 0.499872 0.4 0 0.499872 0.35 0 
0.499872 0.3 0 0.499872 0.25 0 0.499872 0.2 0 
0.499872 0.15 0 0.499872 0.1 0 0.499872 0.05 0 
0.499872 0 0 0.549656 1.5 0 0.549656 1.45 0 
0.549656 1.4 0 0.549656 1.35 0 0.549656 1.3 0 
0.549656 1.25 0 0.549656 1.2 0 0.549656 1.15 0 
0.549656 1.1 0 0.549656 1.05 0 0.549656 1 0 
0.549656 0.95 0 0.549656 0.9 0 0.549656 0.85 0 
0.549656 0.8 0 0.549656 0.75 0 0.549656 0.7 0 
0.549656 0.65 0 0.549656 0.6 0 0.549656 0.55 0 
0.549656 0.5 0 0.549656 0.45 0 0.549656 0.4 0 
0.549656 0.35 0 0.549656 0.3 0 0.549656 0.25 0 
0.549656 0.2 0 0.549656 0.15 0 0.549656 0.1 0 
0.549656 0.05 0 0.549656 0 0 0.59944 1.5 0 
0.59944 1.45 0 0.59944 1.4 0 0.59944 1.35 0 
0.59944 1.3 0 0.59944 1.25 0 0.59944 1.2 0 
0.59944 1.15 0 0.59944 1.1 0 0.59944 1.05 0 
0.59944 1 0 0.59944 0.95 0 0.59944 0.9 0 
0.59944 0.85 0 0.59944 0.8 0 0.59944 0.75 0 
0.59944 0.7 0 0.59944 0.65 0 0.59944 0.6 0 
0.59944 0.55 0 0.59944 0.5 0 0.59944 0.45 0 
0.59944 0.4 0 0.59944 0.35 0 0.59944 0.3 0 
0.59944 0.25 0 0.59944 0.2 0 0.59944 0.15 0 
0.59944 0.1 0 0.59944 0.05 0 0.59944 0 0 
0.649224 1.5 0 0.649224 1.45 0 0.649224 1.4 0 
0.649224 1.35 0 0.649224 1.3 0 0.649224 1.25 0 
0.649224 1.2 0 0.649224 1.15 0 0.649224 1.1 0 
0.649224 1.05 0 0.649224 1 0 0.649224 0.95 0 
0.649224 0.9 0 0.649224 0.85 0 0.649224 0.8 0 
0.649224 0.75 0 0.649224 0.7 0 0.649224 0.65 0 
0.649224 0.6 0 0.649224 0.55 0 0.649224 0.5 0 
0.649224 0.45 0 0.649224 0.4 0 0.649224 0.35 0 
0.649224 0.3 0 0.649224 0.25 0 0.649224 0.2 0 
0.649224 0.15 0 0.649224 0.1 0 0.649224 0.05 0 
0.649224 0 0 0.699008 1.5 0 0.699008 1.45 0 
0.699008 1.4 0 0.699008 1.35 0 0.699008 1.3 0 
0.699008 1.25 0 0.699008 1.2 0 0.699008 1.15 0 
0.699008 1.1 0 0.699008 1.05 0 0.699008 1 0 
0.699008 0.95 0 0.699008 0.9 0 0.699008 0.85 0 
0.699008 0.8 0 0.699008 0.75 0 0.699008 0.7 0 
0.699008 0.65 0 0.699008 0.6 0 0.699008 0.55 0 
0.699008 0.5 0 0.699008 0.45 0 0.699008 0.4 0 
0.699008 0.35 0 0.699008 0.3 0 0.699008 0.25 0 
0.699008 0.2 0 0.699008 0.15 0 0.699008 0.1 0 
0.699008 0.05 0 0.699008 0 0 0.748792 1.5 0 
0.748792 1.45 0 0.748792 1.4 0 0.748792 1.35 0 
0.748792 1.3 0 0.748792 1.25 0 0.748792 1.2 0 
0.748792 1.15 0 0.748792 1.1 0 0.748792 1.05 0 
0.748792 1 0 0.748792 0.95 0 0.748792 0.9 0 
0.748792 0.85 0 0.748792 0.8 0 0.748792 0.75 0 
0.748792 0.7 0 0.748792 0.65 0 0.748792 0.6 0 
0.748792 0.55 0 0.748792 0.5 0 0.748792 0.45 0 
0.748792 0.4 0 0.748792 0.35 0 0.748792 0.3 0 
0.748792 0.25 0 0.748792 0.2 0 0.748792 0.15 0 
0.748792 0.1 0 0.748792 0.05 0 0.748792 0 0 
0.798576 1.5 0 0.798576 1.45 0 0.798576 1.4 0 
0.798576 1.35 0 0.798576 1.3 0 0.798576 1.25 0 
0.798576 1.2 0 0.798576 1.15 0 0.798576 1.1 0 
0.798576 1.05 0 0.798576 1 0 0.798576 0.95 0 
0.798576 0.9 0 0.798576 0.85 0 0.798576 0.8 0 
0.798576 0.75 0 0.798576 0.7 0 0.798576 0.65 0 
0.798576 0.6 0 0.798576 0.55 0 0.798576 0.5 0 
0.798576 0.45 0 0.798576 0.4 0 0.798576 0.35 0 
0.798576 0.3 0 0.798576 0.25 0 0.798576 0.2 0 
0.798576 0.15 0 0.798576 0.1 0 0.798576 0.05 0 
0.798576 0 0 0.84836 1.5 0 0.84836 1.45 0 
0.84836 1.4 0 0.84836 1.35 0 0.84836 1.3 0 
0.84836 1.25 0 0.84836 1.2 0 0.84836 1.15 0 
0.84836 1.1 0 0.84836 1.05 0 0.84836 1 0 
0.84836 0.95 0 0.84836 0.9 0 0.84836 0.85 0 
0.84836 0.8 0 0.84836 0.75 0 0.84836 0.7 0 
0.84836 0.65 0 0.84836 0.6 0 0.84836 0.55 0 
0.84836 0.5 0 0.84836 0.45 0 0.84836 0.4 0 
0.84836 0.35 0 0.84836 0.3 0 0.84836 0.25 0 
0.84836 0.2 0 0.84836 0.15 0 0.84836 0.1 0 
0.84836 0.05 0 0.84836 0 0 0.898144 1.5 0 
0.898144 1.45 0 0.898144 1.4 0 0.898144 1.35 0 
0.898144 1.3 0 0.898144 1.25 0 0.898144 1.2 0 
0.898144 1.15 0 0.898144 1.1 0 0.898144 1.05 0 
0.898144 1 0 0.898144 0.95 0 0.898144 0.9 0 
0.898144 0.85 0 0.898144 0.8 0 0.898144 0.75 0 
0.898144 0.7 0 0.898144 0.65 0 0.898144 0.6 0 
0.898144 0.55 0 0.898144 0.5 0 0.898144 0.45 0 
0.898144 0.4 0 0.898144 0.35 0 0.898144 0.3 0 
0.898144 0.25 0 0.898144 0.2 0 0.898144 0.15 0 
0.898144 0.1 0 0.898144 0.05 0 0.898144 0 0 
0.947928 1.5 0 0.947928 1.45 0 0.947928 1.4 0 
0.947928 1.35 0 0.947928 1.3 0 0.947928 1.25 0 
0.947928 1.2 0 0.947928 1.15 0 0.947928 1.1 0 
0.947928 1.05 0 0.947928 1 0 0.947928 0.95 0 
0.947928 0.9 0 0.947928 0.85 0 0.947928 0.8 0 
0.947928 0.75 0 0.947928 0.7 0 0.947928 0.65 0 
0.947928 0.6 0 0.947928 0.55 0 0.947928 0.5 0 
0.947928 0.45 0 0.947928 0.4 0 0.947928 0.35 0 
0.947928 0.3 0 0.947928 0.25 0 0.947928 0.2 0 
0.947928 0.15 0 0.947928 0.1 0 0.947928 0.05 0 
0.947928 0 0 0.997712 1.5 0 0.997712 1.45 0 
0.997712 1.4 0 0.997712 1.35 0 0.997712 1.3 0 
0.997712 1.25 0 0.997712 1.2 0 0.997712 1.15 0 
0.997712 1.1 0 0.997712 1.05 0 0.997712 1 0 
0.997712 0.95 0 0.997712 0.9 0 0.997712 0.85 0 
0.997712 0.8 0 0.997712 0.75 0 0.997712 0.7 0 
0.997712 0.65 0 0.997712 0.6 0 0.997712 0.55 0 
0.997712 0.5 0 0.997712 0.45 0 0.997712 0.4 0 
0.997712 0.35 0 0.997712 0.3 0 0.997712 0.25 0 
0.997712 0.2 0 0.997712 0.15 0 0.997712 0.1 0 
0.997712 0.05 0 0.997712 0 0 1.047496 1.5 0 
1.047496 1.45 0 1.047496 1.4 0 1.047496 1.35 0 
1.047496 1.3 0 1.047496 1.25 0 1.047496 1.2 0 
1.047496 1.15 0 1.047496 1.1 0 1.047496 1.05 0 
1.047496 1 0 1.047496 0.95 0 1.047496 0.9 0 
1.047496 0.85 0 1.047496 0.8 0 1.047496 0.75 0 
1.047496 0.7 0 1.047496 0.65 0 1.047496 0.6 0 
1.047496 0.55 0 1.047496 0.5 0 1.047496 0.45 0 
1.047496 0.4 0 1.047496 0.35 0 1.047496 0.3 0 
1.047496 0.25 0 1.047496 0.2 0 1.047496 0.15 0 
[...]
CELL_DATA 9090
FIELD FieldData 7
B_Stress_n_p_m2 1 9090 float
1.33404 1.35127 1.37016 1.38927 1.40992 1.43242 1.4563 1.48021 1.50126 
1.51416 1.5103 1.47831 1.40206 1.23244 0.862447 0.381509 0.174692 0.142307 
0.111224 0.0903458 0.0812302 0.0749433 0.0708469 0.0675675 0.0659481 0.0675254 0.0599275 
0.0493603 0.076661 0.0649393 1.25516 1.27156 1.28735 1.30228 1.31731 1.33268 
1.34803 1.3623 1.37333 1.37734 1.36856 1.33977 1.28107 1.17007 0.97668 
0.734725 0.527479 0.382292 0.289375 0.227544 0.184041 0.152319 0.12866 0.110042 
0.0940274 0.0821383 0.0737283 0.0564612 0.0476289 0.107132 1.17776 1.19302 1.20592 
1.21674 1.22626 1.23454 1.24115 1.24505 1.24435 1.23598 1.21549 1.17709 
1.11257 1.00873 0.855579 0.675384 0.524399 0.410069 0.32449 0.261218 0.214074 
0.178143 0.150312 0.128221 0.110302 0.0961285 0.0842017 0.0725423 0.0680732 0.0799269 
1.10449 1.11858 1.12903 1.13635 1.14121 1.14359 1.143 1.13845 1.12833 
1.11025 1.08101 1.03666 0.972257 0.882147 0.765426 0.636615 0.521742 0.426239 
0.349098 0.288462 0.241038 0.203662 0.173973 0.150133 0.130889 0.115515 0.103091 
0.0934023 0.0889416 0.0896635 1.03639 1.04937 1.05781 1.06236 1.06363 1.06157 
1.05571 1.04521 1.0288 1.00471 0.970804 0.924662 0.863819 0.786582 0.694949 
0.59777 0.506815 0.427042 0.359799 0.304588 0.25972 0.223321 0.19377 0.169727 
0.15021 0.134558 0.12223 0.113083 0.107721 0.105558 0.973764 0.985725 0.992578 
0.995063 0.993766 0.988641 0.979311 0.965127 0.945151 0.918196 0.882923 0.838025 
0.78251 0.716374 0.641963 0.564734 0.490944 0.424208 0.366063 0.316647 0.275228 
0.240765 0.212216 0.188657 0.169354 0.153766 0.141506 0.13237 0.126247 0.122951 
0.916668 0.927731 0.933381 0.934416 0.931406 0.924355 0.912997 0.896877 0.875368 
0.847725 0.813201 0.771203 0.721537 0.664825 0.603066 0.539717 0.478496 0.42194 
0.371397 0.327281 0.289375 0.257146 0.229963 0.207211 0.188359 0.172988 0.160798 
0.151555 0.144987 0.141314 0.864981 0.875262 0.88003 0.880115 0.876078 0.867976 
0.855657 0.838842 0.817151 0.79017 0.757545 0.719111 0.675061 0.626174 0.574026 
0.520899 0.469168 0.42064 0.376426 0.337025 0.302484 0.272575 0.246943 0.225194 
0.206962 0.191937 0.179886 0.170594 0.16381 0.159991 0.818444 0.82805 0.832196 
0.83172 0.827171 0.818658 0.806129 0.789445 0.768415 0.742856 0.712665 0.677915 
0.638962 0.596558 0.551923 0.506632 0.462299 0.420234 0.381336 0.346101 0.314701 
0.287088 0.263087 0.242465 0.224978 0.210408 0.198587 0.189337 0.182473 0.178555 
0.776715 0.785744 0.789468 0.788722 0.784036 0.77556 0.763321 0.74729 0.727413 
0.703657 0.676075 0.644862 0.610424 0.573429 0.534823 0.495741 0.457331 0.420571 
0.386182 0.35462 0.326112 0.300711 0.278356 0.258925 0.24227 0.228243 0.216733 
0.207608 0.200745 0.196738 0.739411 0.747945 0.751404 0.750596 0.746032 0.737893 
0.726264 0.711195 0.692725 0.670922 0.645926 0.617987 0.58751 0.555069 0.521408 
0.487374 0.453817 0.421482 0.390954 0.362637 0.336771 0.313464 0.292727 0.274512 
0.258739 0.245319 0.234185 0.225248 0.218436 0.214344 0.706133 0.714247 0.717552 
0.71683 0.712561 0.704948 0.694117 0.680173 0.663217 0.643377 0.62084 0.595877 
0.568865 0.540296 0.510762 0.480916 0.451407 0.422818 0.395625 0.37018 0.346718 
0.325372 0.306196 0.28919 0.274323 0.261549 0.250837 0.242133 0.235405 0.23123 
0.676491 0.684245 0.687481 0.68694 0.683075 0.676097 0.666162 0.65341 0.63798 
0.620035 0.599784 0.577498 0.553521 0.528272 0.502232 0.475917 0.449836 0.424454 
0.400164 0.377269 0.355989 0.336464 0.318773 0.302947 0.288986 0.276877 0.266615 
0.258172 0.251549 0.247295 0.650112 0.657559 0.660784 0.660484 0.657083 0.650794 
0.641791 0.630234 0.616285 0.600126 0.581971 0.562082 0.540768 0.518388 0.49534 
0.47204 0.448897 0.42629 0.404542 0.383917 0.364613 0.346771 0.330478 0.315785 
0.302714 0.291272 0.281473 0.273309 0.266802 0.262472 0.626647 0.633831 0.637085 
0.637061 0.63415 0.628566 0.620489 0.610092 0.597548 0.583046 0.566797 0.549049 
0.530077 0.510194 0.489732 0.469033 0.448433 0.428243 0.408734 0.390134 0.37262 
0.356325 0.34134 0.327724 0.315512 0.304725 0.29539 0.287512 0.281129 0.276725 
0.605779 0.612737 0.616046 0.616312 0.613896 0.609005 0.601824 0.592529 0.581296 
0.568315 0.553791 0.537952 0.521048 0.50335 0.485139 0.466703 0.448321 0.430251 
0.412723 0.395933 0.380038 0.365162 0.351391 0.338789 0.327398 0.317245 0.308365 
0.300772 0.294515 0.290041 0.587218 0.593981 0.597361 0.597919 0.595986 0.591762 
0.58543 0.577165 0.567144 0.55555 0.542581 0.528446 0.513372 0.497594 0.481356 
0.464901 0.448465 0.432264 0.416495 0.401327 0.386897 0.373317 0.360669 0.349016 
0.338399 0.328853 0.320413 0.3131 0.306967 0.302426 0.570705 0.5773 0.58076 
0.581603 0.580131 0.576537 0.570998 0.563687 0.554776 0.544442 0.532871 0.520258 
0.506805 0.492723 0.478222 0.463512 0.448791 0.434246 0.420044 0.40633 0.393225 
0.380828 0.369214 0.358442 0.348553 0.339581 0.331562 0.324518 0.318505 0.313901 
0.556008 0.562458 0.566001 0.567116 0.566078 0.563072 0.558268 0.551832 0.543933 
0.534739 0.524424 0.513169 0.501159 0.488578 0.475613 0.462444 0.449243 0.436169 
0.423365 0.410957 0.399051 0.387732 0.377067 0.36711 0.3579 0.349467 0.341846 
0.335059 0.329162 0.324498 0.542922 0.549245 0.552872 0.554242 0.553609 0.551145 
0.547015 0.54138 0.534399 0.526233 0.517047 0.507006 0.496279 0.485032 0.473429 
0.461627 0.449776 0.438012 0.42646 0.415227 0.404404 0.394066 0.384271 0.375066 
0.366484 0.358555 0.351308 0.344764 0.338976 0.334256 0.531265 0.537476 0.541185 
0.542792 0.542531 0.540566 0.537052 0.532144 0.525994 0.518755 0.510581 0.501626 
0.492043 0.481983 0.471591 0.461005 0.450357 0.439764 0.429333 0.419157 0.409314 
0.399867 0.390867 0.382352 0.374352 0.36689 0.359992 0.353676 0.347992 0.343218 
0.520873 0.526988 0.530774 0.5326 0.532681 0.531169 0.528215 0.523966 0.518566 
0.512162 0.504896 0.496912 0.488351 0.479349 0.470036 0.460535 0.45096 0.441415 
0.43199 0.422766 0.413809 0.405172 0.396896 0.389015 0.38155 0.374521 0.367947 
0.361844 0.356256 0.351433 0.511607 0.517636 0.521494 0.523521 0.523912 0.522813 
0.520367 0.516713 0.511989 0.506334 0.499883 0.492768 0.485121 0.477063 0.468714 
0.460181 0.451567 0.44296 0.434439 0.426073 0.417917 0.410015 0.4024 0.395098 
0.388125 0.381495 0.375221 0.369316 0.363817 0.358949 0.503338 0.509292 0.513218 
0.515427 0.5161 0.515374 0.513386 0.510269 0.506154 0.501172 0.49545 0.489115 
0.482284 0.475071 0.467583 0.459917 0.452162 0.444397 0.436689 0.429097 0.421665 
0.41443 0.407417 0.400644 0.394122 0.387859 0.381862 0.37614 0.370723 0.365814 
0.495957 0.501844 0.505832 0.508206 0.509133 0.508745 0.50717 0.504535 0.500967 
0.496589 0.491523 0.485884 0.479784 0.473327 0.46661 0.45972 0.452736 0.445727 
0.438751 0.431856 0.42508 0.41845 0.411985 0.405695 0.399586 0.393659 0.387917 
0.382364 0.377024 0.372076 0.489364 0.495192 0.499237 0.501759 0.502917 0.502831 
0.501627 0.499427 0.49635 0.492514 0.488034 0.48302 0.477575 0.471794 0.465768 
0.459573 0.453282 0.446952 0.440635 0.43437 0.428187 0.422105 0.416138 0.410289 
0.404557 0.398939 0.393432 0.388034 0.382764 0.377781 0.483475 0.48925 0.493345 
0.496002 0.497365 0.497552 0.496682 0.49487 0.492233 0.488883 0.484929 0.480475 
0.475616 0.470442 0.465034 0.459464 0.453794 0.448076 0.442353 0.436656 0.431009 
0.425425 0.419911 0.414463 0.409076 0.40374 0.398449 0.393194 0.387989 0.382974 
0.478211 0.483939 0.48808 0.490857 0.492405 0.492836 0.492264 0.490801 0.488559 
0.485644 0.482161 0.478208 0.473874 0.469244 0.464392 0.459382 0.454271 0.449103 
0.443914 0.438731 0.43357 0.428438 0.423334 0.418252 0.41318 0.408103 0.403009 
0.397885 0.392742 0.387697 0.473505 0.479191 0.483373 0.486257 0.48797 0.488619 
0.488314 0.487164 0.485275 0.48275 0.479688 0.476184 0.472321 0.468179 0.463825 
0.459319 0.454709 0.450037 0.445331 0.440612 0.43589 0.431167 0.426438 0.421689 
0.416905 0.412064 0.407151 0.402149 0.39706 0.39199 0.469297 0.474945 0.479163 
0.482143 0.484003 0.484847 0.484781 0.48391 0.482336 0.48016 0.477476 0.474373 
0.470933 0.467228 0.463321 0.459267 0.45511 0.450884 0.446614 0.442314 0.43799 
0.433639 0.42925 0.424805 0.420282 0.415659 0.410912 0.40602 0.400983 0.395889 
0.465534 0.471148 0.475398 0.478462 0.480453 0.481471 0.481618 0.480995 0.479704 
0.477839 0.475493 0.472751 0.469689 0.466376 0.462871 0.459224 0.455473 0.451649 
0.447772 0.443852 0.439888 0.435875 0.431795 0.427626 0.423344 0.418918 0.414324 
0.409534 0.404544 0.399429 0.462169 0.467751 0.47203 0.475169 0.477276 0.478448 
0.478784 0.478383 0.477343 0.475757 0.473713 0.471293 0.468571 0.465609 0.462465 
0.459183 0.455799 0.452338 0.448816 0.445239 0.441602 0.437895 0.434096 0.43018 
0.426117 0.421873 0.417418 0.412723 0.407777 0.402643 0.459159 0.464713 0.469016 
0.472221 0.474431 0.47574 0.476244 0.476041 0.475225 0.473887 0.472113 0.469982 
0.467563 0.464917 0.462097 0.459144 0.45609 0.452956 0.449755 0.446488 0.443148 
0.439719 0.436176 0.432491 0.428628 0.42455 0.420223 0.415615 0.41071 0.405559 
0.456468 0.461996 0.46632 0.469583 0.471884 0.473313 0.473966 0.473938 0.473322 
0.472206 0.470673 0.468799 0.466652 0.46429 0.461761 0.459104 0.456347 0.453508 
0.450597 0.447611 0.44454 0.441364 0.438055 0.43458 0.4309 0.426975 0.422767 
0.418239 0.413371 0.408206 0.454061 0.459566 0.463909 0.467222 0.469602 0.471138 
0.471923 0.47205 0.471611 0.470692 0.469374 0.467731 0.465828 0.463719 0.461452 
0.45906 0.456571 0.453999 0.45135 0.448619 0.445793 0.442847 0.439751 0.436468 
0.432956 0.429171 0.425072 0.420618 0.415785 0.410607 0.45191 0.457394 0.461751 
0.465109 0.467558 0.469187 0.470089 0.470353 0.470071 0.469327 0.468201 0.466764 
0.465079 0.463198 0.461165 0.459013 0.456765 0.454434 0.452023 0.449523 0.446918 
0.444182 0.441281 0.438174 0.434816 0.43116 0.427161 0.422776 0.417976 0.412787 
0.449989 0.455453 0.459823 0.463218 0.465727 0.467439 0.468442 0.468827 0.468684 
0.468096 0.46714 0.465887 0.464396 0.46272 0.460898 0.458961 0.456931 0.454818 
0.452621 0.45033 0.447927 0.445383 0.442659 0.439714 0.436498 0.432961 0.429055 
0.424733 0.419965 0.414766 0.448273 0.453719 0.458099 0.461526 0.464088 0.46587 
0.466962 0.467454 0.467434 0.466983 0.466179 0.465089 0.463773 0.462279 0.460647 
0.458904 0.457071 0.455154 0.453151 0.451051 0.448832 0.446462 0.443901 0.441104 
0.438018 0.434591 0.430771 0.426509 0.42177 0.416563 0.446743 0.452171 0.456559 
0.460013 0.462619 0.464463 0.465633 0.466218 0.466305 0.465976 0.465307 0.464363 
0.463202 0.461872 0.46041 0.458842 0.457185 0.455446 0.45362 0.451693 0.449641 
0.447431 0.445019 0.442358 0.439393 0.436068 0.432327 0.428121 0.423409 0.418195 
0.445378 0.45079 0.455184 0.458661 0.461305 0.463201 0.464438 0.465104 0.465286 
0.465064 0.464514 0.4637 0.462678 0.461495 0.460185 0.458774 0.457277 0.455698 
0.454032 0.452263 0.450364 0.448299 0.446025 0.443489 0.440636 0.437405 0.433739 
0.429584 0.424899 0.41968 0.444162 0.44956 0.453957 0.457452 0.460128 0.462069 
0.463364 0.4641 0.464364 0.464237 0.463792 0.463093 0.462195 0.461143 0.45997 
0.4587 0.457348 0.455914 0.454394 0.452767 0.451008 0.449077 0.446929 0.444509 
0.441759 0.438616 0.43502 0.430914 0.426254 0.42103 0.443081 0.448465 0.452864 
0.456374 0.459076 0.461054 0.462397 0.463194 0.46353 0.463485 0.463133 0.462536 
0.461748 0.460813 0.459763 0.458621 0.457398 0.456097 0.454708 0.453213 0.451581 
0.449773 0.447741 0.445429 0.442775 0.439714 0.436183 0.432123 0.427487 0.42226 
0.442121 0.447491 0.451891 0.455412 0.458135 0.460144 0.461528 0.462376 0.462774 
0.462801 0.46253 0.462023 0.461334 0.460504 0.459564 0.458536 0.457431 0.456249 
0.45498 0.453604 0.452089 0.450395 0.44847 0.446258 0.443693 0.440709 0.437239 
0.433223 0.42861 0.423381 0.44127 0.446628 0.451026 0.454555 0.457293 0.459327 
0.460746 0.461637 0.462088 0.462177 0.461977 0.461551 0.460948 0.460212 0.459371 
0.458446 0.457447 0.456374 0.455214 0.453946 0.452539 0.450949 0.449124 0.447004 
0.444523 0.441611 0.4382 0.434225 0.429634 0.424404 0.440517 0.445863 0.450259 
0.453792 0.456542 0.458596 0.460041 0.460969 0.461464 0.461607 0.46147 0.461113 
0.460588 0.459935 0.459183 0.458351 0.457448 0.456473 0.455412 0.454245 0.452936 
0.451442 0.44971 0.447676 0.445273 0.44243 0.439074 0.435139 0.430569 0.425338 
0.439853 0.445187 0.449579 0.453114 0.455872 0.45794 0.459407 0.460364 0.460897 
0.461086 0.461003 0.460707 0.460251 0.459672 0.458999 0.458251 0.457435 0.456548 
0.455579 0.454502 0.453285 0.45188 0.450234 0.448281 0.445953 0.443173 0.43987 
0.435973 0.431425 0.426194 0.439269 0.444592 0.448979 0.452513 0.455275 0.457352 
0.458836 0.459816 0.46038 0.460608 0.460571 0.46033 0.459933 0.459421 0.458819 
0.458146 0.457408 0.456603 0.455716 0.454724 0.45359 0.452268 0.450702 0.448826 
0.446567 0.443849 0.440596 0.436736 0.432208 0.426978 0.438757 0.444069 0.44845 
0.451981 0.454744 0.456826 0.458321 0.459319 0.459908 0.460168 0.460171 0.459977 
0.459634 0.45918 0.458642 0.458037 0.45737 0.456638 0.455827 0.454912 0.453855 
0.452611 0.45112 0.449316 0.447123 0.444463 0.441259 0.437434 0.432927 0.427699 
0.438311 0.443612 0.447985 0.451511 0.454271 0.456355 0.457856 0.458867 0.459476 
0.459763 0.4598 0.459646 0.45935 0.458948 0.458467 0.457923 0.457321 0.456656 
0.455914 0.45507 0.454085 0.452912 0.451492 0.449756 0.447626 0.445023 0.441865 
0.438075 0.433588 0.428362 0.437924 0.443214 0.447579 0.451097 0.453852 0.455934 
0.457438 0.458457 0.45908 0.459389 0.459455 0.459336 0.45908 0.458725 0.458295 
0.457805 0.457261 0.456658 0.455979 0.4552 0.454282 0.453177 0.451824 0.450152 
0.448082 0.445533 0.44242 0.438664 0.434197 0.428975 0.437591 0.44287 0.447225 
0.450734 0.453481 0.455558 0.45706 0.458083 0.458717 0.459042 0.459131 0.459042 
0.458823 0.458508 0.458124 0.457683 0.457192 0.456644 0.456024 0.455306 0.45445 
0.453408 0.452117 0.450507 0.448496 0.445999 0.44293 0.439207 0.43476 0.429541 
0.437306 0.442575 0.44692 0.450417 0.453153 0.455221 0.456718 0.457742 0.458382 
0.45872 0.458828 0.458765 0.458576 0.458298 0.457954 0.457558 0.457114 0.456618 
0.456051 0.455389 0.454591 0.453608 0.452378 0.450826 0.44887 0.446424 0.443398 
0.439708 0.435281 0.430067 0.437066 0.442325 0.446657 0.450142 0.452864 0.454921 
0.45641 0.45743 0.458072 0.45842 0.458543 0.458501 0.458339 0.458093 0.457785 
0.457429 0.457029 0.456578 0.456061 0.455451 0.454708 0.453781 0.452607 0.451112 
0.44921 0.446813 0.44383 0.440172 0.435765 0.430556 0.436865 0.442114 0.446434 
0.449904 0.452611 0.454653 0.456131 0.457144 0.457786 0.458139 0.458274 0.458249 
0.458111 0.457892 0.457617 0.457297 0.456936 0.456528 0.456056 0.455494 0.454802 
0.453928 0.452809 0.451368 0.449519 0.447171 0.444229 0.440603 0.436217 0.431013 
0.436702 0.441941 0.446247 0.4497 0.452389 0.454414 0.455878 0.456882 0.45752 
0.457875 0.458018 0.458008 0.45789 0.457696 0.457449 0.457161 0.456836 0.456467 
0.456038 0.45552 0.454876 0.454053 0.452985 0.451597 0.4498 0.447499 0.444598 
0.441005 0.436639 0.431441 0.436572 0.441801 0.446092 0.449526 0.452196 0.454202 
0.455649 0.456641 0.457272 0.457626 0.457776 0.457777 0.457675 0.457502 0.457281 
0.457023 0.45673 0.456397 0.456006 0.455531 0.454931 0.454156 0.453139 0.451802 
0.450054 0.447801 0.444941 0.441381 0.437035 0.431843 0.436473 0.441691 0.445966 
0.449381 0.452029 0.454013 0.455441 0.456418 0.45704 0.457391 0.457543 0.457554 
0.457466 0.457312 0.457114 0.456881 0.456618 0.456318 0.455963 0.455527 0.45497 
0.454241 0.453272 0.451984 0.450286 0.448079 0.445261 0.441733 0.437409 0.432224 
0.436403 0.441609 0.445868 0.449261 0.451885 0.453845 0.455252 0.456212 0.456822 
0.457168 0.457321 0.457338 0.457262 0.457124 0.456946 0.456737 0.456501 0.456231 
0.455909 0.45551 0.454993 0.454308 0.453386 0.452147 0.450498 0.448337 0.44556 
0.442064 0.437762 0.432585 0.436358 0.441553 0.445794 0.449164 0.451762 0.453697 
0.45508 0.45602 0.456617 0.456955 0.457107 0.457128 0.457062 0.456938 0.456778 
0.456591 0.456379 0.456136 0.455845 0.45548 0.455003 0.454359 0.453482 0.452291 
0.45069 0.448576 0.44584 0.442378 0.438098 0.432928 0.436337 0.441521 0.445743 
0.449089 0.451659 0.453565 0.454923 0.455842 0.456423 0.456752 0.4569 0.456924 
0.456866 0.456754 0.45661 0.456442 0.456252 0.456034 0.455773 0.45544 0.454999 
0.454396 0.453563 0.452419 0.450866 0.448797 0.446103 0.442675 0.438418 0.433257 
0.436338 0.441511 0.445713 0.449032 0.451572 0.453449 0.454779 0.455675 0.456238 
0.456556 0.4567 0.456725 0.456673 0.456572 0.456441 0.45629 0.456121 0.455927 
0.455691 0.45539 0.454983 0.454419 0.453629 0.452531 0.451026 0.449004 0.446352 
0.442959 0.438725 0.433574 0.43636 0.441521 0.445702 0.448993 0.451502 0.453346 
0.454646 0.455517 0.456062 0.456367 0.456505 0.45653 0.456482 0.45639 0.456272 
0.456136 0.455986 0.455813 0.455603 0.45533 0.454956 0.45443 0.453682 0.45263 
0.451172 0.449197 0.446588 0.44323 0.439021 0.433879 0.436401 0.441549 0.445708 
0.44897 0.451445 0.453255 0.454524 0.455369 0.455893 0.456185 0.456315 0.456338 
0.456294 0.456209 0.456102 0.455981 0.455847 0.455694 0.455507 0.455261 0.454919 
0.454429 0.453723 0.452716 0.451306 0.449378 0.446813 0.443491 0.439306 0.434175 
0.43646 0.441595 0.445731 0.448962 0.451402 0.453176 0.454411 0.455227 0.45573 
0.456007 0.456129 0.456149 0.456107 0.456029 0.455931 0.455823 0.455704 0.455569 
0.455404 0.455184 0.454872 0.454418 0.453752 0.45279 0.451428 0.449548 0.447028 
0.443743 0.439584 0.434464 0.436535 0.441658 0.445769 0.448967 0.451369 0.453106 
0.454306 0.455093 0.455572 0.455833 0.455946 0.455963 0.455922 0.455849 0.45576 
0.455663 0.455558 0.45544 0.455295 0.455099 0.454817 0.454397 0.453771 0.452854 
0.451539 0.449708 0.447234 0.443987 0.439855 0.434747 0.436627 0.441736 0.445821 
0.448984 0.451348 0.453044 0.454208 0.454964 0.455419 0.455663 0.455766 0.455779 
0.455739 0.45567 0.455589 0.455501 0.455409 0.455307 0.455181 0.455008 0.454753 
0.454366 0.45378 0.452907 0.451641 0.44986 0.447432 0.444225 0.440121 0.435025 
0.436734 0.441828 0.445887 0.449013 0.451335 0.45299 0.454116 0.454839 0.455269 
0.455496 0.455588 0.455596 0.455556 0.455491 0.455416 0.455338 0.455258 0.455169 
0.455061 0.454909 0.454681 0.454327 0.45378 0.452951 0.451734 0.450003 0.447623 
0.444458 0.440383 0.4353 0.436856 0.441935 0.445964 0.449053 0.451331 0.452942 
0.454028 0.454718 0.455123 0.455331 0.455412 0.455415 0.455374 0.455312 0.455243 
0.455173 0.455103 0.455028 0.454936 0.454805 0.454602 0.45428 0.453771 0.452987 
0.451819 0.45014 0.447809 0.444686 0.440641 0.435572 0.436991 0.442055 0.446054 
0.449102 0.451334 0.4529 0.453945 0.4546 0.454978 0.455168 0.455237 0.455234 
0.455192 0.455133 0.455069 0.455007 0.454946 0.454884 0.454806 0.454695 0.454517 
0.454225 0.453753 0.453014 0.451896 0.450269 0.44799 0.444911 0.440898 0.435844 
0.43714 0.442187 0.446155 0.449159 0.451344 0.452863 0.453865 0.454484 0.454835 
0.455006 0.455063 0.455055 0.455011 0.454954 0.454895 0.454839 0.454787 0.454736 
0.454672 0.454579 0.454424 0.454163 0.453728 0.453033 0.451966 0.450393 0.448166 
0.445134 0.441154 0.436116 0.437303 0.442332 0.446266 0.449226 0.45136 0.452829 
0.453787 0.45437 0.454693 0.454845 0.45489 0.454875 0.45483 0.454775 0.454719 
0.45467 0.454626 0.454584 0.454535 0.454458 0.454326 0.454093 0.453696 0.453045 
0.452029 0.450512 0.448339 0.445354 0.44141 0.436388 0.437478 0.442489 0.446387 
0.449299 0.451382 0.452799 0.453711 0.454257 0.454552 0.454684 0.454718 0.454697 
0.45465 0.454595 0.454544 0.454499 0.454463 0.454431 0.454393 0.454333 0.454222 
0.454017 0.453656 0.45305 0.452086 0.450625 0.448509 0.445574 0.441667 0.436663 
0.437666 0.442658 0.446518 0.44938 0.451407 0.452771 0.453636 0.454144 0.454411 
0.454524 0.454545 0.454518 0.454469 0.454416 0.454367 0.454328 0.454298 0.454274 
0.454247 0.454202 0.454112 0.453935 0.453609 0.453047 0.452136 0.450734 0.448676 
0.445794 0.441926 0.436941 0.437867 0.442838 0.446658 0.449467 0.451437 0.452745 
0.453562 0.454031 0.454269 0.454363 0.454372 0.454339 0.454289 0.454236 0.454191 
0.454155 0.454131 0.454115 0.454099 0.454068 0.453997 0.453846 0.453555 0.453038 