# vtk DataFile Version 5.1
vtk output
ASCII
DATASET UNSTRUCTURED_GRID
POINTS 9610 double
0.1016 1.5 0 0.1016 1.45 0 0.1016 1.4 0 
0.1016 1.35 0 0.1016 1.3 0 0.1016 1.25 0 
0.1016 1.2 0 0.1016 1.15 0 0.1016 1.1 0 
0.1016 1.05 0 0.1016 1 0 0.1016 0.95 0 
0.1016 0.9 0 0.1016 0.85 0 0.1016 0.8 0 
0.1016 0.75 0 0.1016 0.7 0 0.1016 0.65 0 
0.1016 0.6 0 0.1016 0.55 0 0.1016 0.5 0 
0.1016 0.45 0 0.1016 0.4 0 0.1016 0.35 0 
0.1016 0.3 0 0.1016 0.25 0 0.1016 0.2 0 
0.1016 0.15 0 0.1016 0.1 0 0.1016 0.05 0 
0.1016 0 0 5.08 1.5 0 5.08 1.45 0 
5.08 1.4 0 5.08 1.35 0 5.08 1.3 0 
5.08 1.25 0 5.08 1.2 0 5.08 1.15 0 
5.08 1.1 0 5.08 1.05 0 5.08 1 0 
5.08 0.95 0 5.08 0.9 0 5.08 0.85 0 
5.08 0.8 0 5.08 0.75 0 5.08 0.7 0 
5.08 0.65 0 5.08 0.6 0 5.08 0.55 0 
5.08 0.5 0 5.08 0.45 0 5.08 0.4 0 
5.08 0.35 0 5.08 0.3 0 5.08 0.25 0 
5.08 0.2 0 5.08 0.15 0 5.08 0.1 0 
5.08 0.05 0 5.08 0 0 0.151384 1.5 0 
0.151384 1.45 0 0.151384 1.4 0 0.151384 1.35 0 
0.151384 1.3 0 0.151384 1.25 0 0.151384 1.2 0 
0.151384 1.15 0 0.151384 1.1 0 0.151384 1.05 0 
0.151384 1 0 0.151384 0.95 0 0.151384 0.9 0 
0.151384 0.85 0 0.151384 0.8 0 0.151384 0.75 0 
0.151384 0.7 0 0.151384 0.65 0 0.151384 0.6 0 
0.151384 0.55 0 0.151384 0.5 0 0.151384 0.45 0 
0.151384 0.4 0 0.151384 0.35 0 0.151384 0.3 0 
0.151384 0.25 0 0.151384 0.2 0 0.151384 0.15 0 
0.151384 0.1 0 0.151384 0.05 0 0.151384 0 0 
0.201168 1.5 0 0.201168 1.45 0 0.201168 1.4 0 
0.201168 1.35 0 0.201168 1.3 0 0.201168 1.25 0 
0.201168 1.2 0 0.201168 1.15 0 0.201168 1.1 0 
0.201168 1.05 0 0.201168 1 0 0.201168 0.95 0 
0.201168 0.9 0 0.201168 0.85 0 0.201168 0.8 0 
0.201168 0.75 0 0.201168 0.7 0 0.201168 0.65 0 
0.201168 0.6 0 0.201168 0.55 0 0.201168 0.5 0 
0.201168 0.45 0 0.201168 0.4 0 0.201168 0.35 0 
0.201168 0.3 0 0.201168 0.25 0 0.201168 0.2 0 
0.201168 0.15 0 0.201168 0.1 0 0.201168 0.05 0 
0.201168 0 0 0.250952 1.5 0 0.250952 1.45 0 
0.250952 1.4 0 0.250952 1.35 0 0.250952 1.3 0 
0.250952 1.25 0 0.250952 1.2 0 0.250952 1.15 0 
0.250952 1.1 0 0.250952 1.05 0 0.250952 1 0 
0.250952 0.95 0 0.250952 0.9 0 0.250952 0.85 0 
0.250952 0.8 0 0.250952 0.75 0 0.250952 0.7 0 
0.250952 0.65 0 0.250952 0.6 0 0.250952 0.55 0 
0.250952 0.5 0 0.250952 0.45 0 0.250952 0.4 0 
0.250952 0.35 0 0.250952 0.3 0 0.250952 0.25 0 
0.250952 0.2 0 0.250952 0.15 0 0.250952 0.1 0 
0.250952 0.05 0 0.250952 0 0 0.300736 1.5 0 
0.300736 1.45 0 0.300736 1.4 0 0.300736 1.35 0 
0.300736 1.3 0 0.300736 1.25 0 0.300736 1.2 0 
0.300736 1.15 0 0.300736 1.1 0 0.300736 1.05 0 
0.300736 1 0 0.300736 0.95 0 0.300736 0.9 0 
0.300736 0.85 0 0.300736 0.8 0 0.300736 0.75 0 
0.300736 0.7 0 0.300736 0.65 0 0.300736 0.6 0 
0.300736 0.55 0 0.300736 0.5 0 0.300736 0.45 0 
0.300736 0.4 0 0.300736 0.35 0 0.300736 0.3 0 
0.300736 0.25 0 0.300736 0.2 0 0.300736 0.15 0 
0.300736 0.1 0 0.300736 0.05 0 0.300736 0 0 
0.35052 1.5 0 0.35052 1.45 0 0.35052 1.4 0 
0.35052 1.35 0 0.35052 1.3 0 0.35052 1.25 0 
0.35052 1.2 0 0.35052 1.15 0 0.35052 1.1 0 
0.35052 1.05 0 0.35052 1 0 0.35052 0.95 0 
0.35052 0.9 0 0.35052 0.85 0 0.35052 0.8 0 
0.35052 0.75 0 0.35052 0.7 0 0.35052 0.65 0 
0.35052 0.6 0 0.35052 0.55 0 0.35052 0.5 0 
0.35052 0.45 0 0.35052 0.4 0 0.35052 0.35 0 
0.35052 0.3 0 0.35052 0.25 0 0.35052 0.2 0 
0.35052 0.15 0 0.35052 0.1 0 0.35052 0.05 0 
0.35052 0 0 0.400304 1.5 0 0.400304 1.45 0 
0.400304 1.4 0 0.400304 1.35 0 0.400304 1.3 0 
0.400304 1.25 0 0.400304 1.2 0 0.400304 1.15 0 
0.400304 1.1 0 0.400304 1.05 0 0.400304 1 0 
0.400304 0.95 0 0.400304 0.9 0 0.400304 0.85 0 
0.400304 0.8 0 0.400304 0.75 0 0.400304 0.7 0 
0.400304 0.65 0 0.400304 0.6 0 0.400304 0.55 0 
0.400304 0.5 0 0.400304 0.45 0 0.400304 0.4 0 
0.400304 0.35 0 0.400304 0.3 0 0.400304 0.25 0 
0.400304 0.2 0 0.400304 0.15 0 0.400304 0.1 0 
0.400304 0.05 0 0.400304 0 0 0.450088 1.5 0 
0.450088 1.45 0 0.450088 1.4 0 0.450088 1.35 0 
0.450088 1.3 0 0.450088 1.25 0 0.450088 1.2 0 
0.450088 1.15 0 0.450088 1.1 0 0.450088 1.05 0 
0.450088 1 0 0.450088 0.95 0 0.450088 0.9 0 
0.450088 0.85 0 0.450088 0.8 0 0.450088 0.75 0 
0.450088 0.7 0 0.450088 0.65 0 0.450088 0.6 0 
0.450088 0.55 0 0.450088 0.5 0 0.450088 0.45 0 
0.450088 0.4 0 0.450088 0.35 0 0.450088 0.3 0 
0.450088 0.25 0 0.450088 0.2 0 0.450088 0.15 0 
0.450088 0.1 0 0.450088 0.05 0 0.450088 0 0 
0.499872 1.5 0 0.499872 1.45 0 0.499872 1.4 0 
0.499872 1.35 0 0.499872 1.3 0 0.499872 1.25 0 
0.499872 1.2 0 0.499872 1.15 0 0.499872 1.1 0 
0.499872 1.05 0 0.499872 1 0 0.499872 0.95 0 
0.499872 0.9 0 0.499872 0.85 0 0.499872 0.8 0 
0.499872 0.75 0 0.499872 0.7 0 0.499872 0.65 0 
0.499872 0.6 0 0.499872 0.55 0 0.499872 0.5 0 
0.499872 0.45 0 0.499872 0.4 0 0.499872 0.35 0 
0.499872 0.3 0 0.499872 0.25 0 0.499872 0.2 0 
0.499872 0.15 0 0.499872 0.1 0 0.499872 0.05 0 
0.499872 0 0 0.549656 1.5 0 0.549656 1.45 0 
0.549656 1.4 0 0.549656 1.35 0 0.549656 1.3 0 
0.549656 1.25 0 0.549656 1.2 0 0.549656 1.15 0 
0.549656 1.1 0 0.549656 1.05 0 0.549656 1 0 
0.549656 0.95 0 0.549656 0.9 0 0.549656 0.85 0 
0.549656 0.8 0 0.549656 0.75 0 0.549656 0.7 0 
0.549656 0.65 0 0.549656 0.6 0 0.549656 0.55 0 
0.549656 0.5 0 0.549656 0.45 0 0.549656 0.4 0 
0.549656 0.35 0 0.549656 0.3 0 0.549656 0.25 0 
0.549656 0.2 0 0.549656 0.15 0 0.549656 0.1 0 
0.549656 0.05 0 0.549656 0 0 0.59944 1.5 0 
0.59944 1.45 0 0.59944 1.4 0 0.59944 1.35 0 
0.59944 1.3 0 0.59944 1.25 0 0.59944 1.2 0 
0.59944 1.15 0 0.59944 1.1 0 0.59944 1.05 0 
0.59944 1 0 0.59944 0.95 0 0.59944 0.9 0 
0.59944 0.85 0 0.59944 0.8 0 0.59944 0.75 0 
0.59944 0.7 0 0.59944 0.65 0 0.59944 0.6 0 
0.59944 0.55 0 0.59944 0.5 0 0.59944 0.45 0 
0.59944 0.4 0 0.59944 0.35 0 0.59944 0.3 0 
0.59944 0.25 0 0.59944 0.2 0 0.59944 0.15 0 
0.59944 0.1 0 0.59944 0.05 0 0.59944 0 0 
0.649224 1.5 0 0.649224 1.45 0 0.649224 1.4 0 
0.649224 1.35 0 0.649224 1.3 0 0.649224 1.25 0 
0.649224 1.2 0 0.649224 1.15 0 0.649224 1.1 0 
0.649224 1.05 0 0.649224 1 0 0.649224 0.95 0 
0.649224 0.9 0 0.649224 0.85 0 0.649224 0.8 0 
0.649224 0.75 0 0.649224 0.7 0 0.649224 0.65 0 
0.649224 0.6 0 0.649224 0.55 0 0.649224 0.5 0 
0.649224 0.45 0 0.649224 0.4 0 0.649224 0.35 0 
0.649224 0.3 0 0.649224 0.25 0 0.649224 0.2 0 
0.649224 0.15 0 0.649224 0.1 0 0.649224 0.05 0 
0.649224 0 0 0.699008 1.5 0 0.699008 1.45 0 
0.699008 1.4 0 0.699008 1.35 0 0.699008 1.3 0 
0.699008 1.25 0 0.699008 1.2 0 0.699008 1.15 0 
0.699008 1.1 0 0.699008 1.05 0 0.699008 1 0 
0.699008 0.95 0 0.699008 0.9 0 0.699008 0.85 0 
0.699008 0.8 0 0.699008 0.75 0 0.699008 0.7 0 
0.699008 0.65 0 0.699008 0.6 0 0.699008 0.55 0 
0.699008 0.5 0 0.699008 0.45 0 0.699008 0.4 0 
0.699008 0.35 0 0.699008 0.3 0 0.699008 0.25 0 
0.699008 0.2 0 0.699008 0.15 0 0.699008 0.1 0 
0.699008 0.05 0 0.699008 0 0 0.748792 1.5 0 
0.748792 1.45 0 0.748792 1.4 0 0.748792 1.35 0 
0.748792 1.3 0 0.748792 1.25 0 0.748792 1.2 0 
0.748792 1.15 0 0.748792 1.1 0 0.748792 1.05 0 
0.748792 1 0 0.748792 0.95 0 0.748792 0.9 0 
0.748792 0.85 0 0.748792 0.8 0 0.748792 0.75 0 
0.748792 0.7 0 0.748792 0.65 0 0.748792 0.6 0 
0.748792 0.55 0 0.748792 0.5 0 0.748792 0.45 0 
0.748792 0.4 0 0.748792 0.35 0 0.748792 0.3 0 
0.748792 0.25 0 0.748792 0.2 0 0.748792 0.15 0 
0.748792 0.1 0 0.748792 0.05 0 0.748792 0 0 
0.798576 1.5 0 0.798576 1.45 0 0.798576 1.4 0 
0.798576 1.35 0 0.798576 1.3 0 0.798576 1.25 0 
0.798576 1.2 0 0.798576 1.15 0 0.798576 1.1 0 
0.798576 1.05 0 0.798576 1 0 0.798576 0.95 0 
0.798576 0.9 0 0.798576 0.85 0 0.798576 0.8 0 
0.798576 0.75 0 0.798576 0.7 0 0.798576 0.65 0 
0.798576 0.6 0 0.798576 0.55 0 0.798576 0.5 0 
0.798576 0.45 0 0.798576 0.4 0 0.798576 0.35 0 
0.798576 0.3 0 0.798576 0.25 0 0.798576 0.2 0 
0.798576 0.15 0 0.798576 0.1 0 0.798576 0.05 0 
0.798576 0 0 0.84836 1.5 0 0.84836 1.45 0 
0.84836 1.4 0 0.84836 1.35 0 0.84836 1.3 0 
0.84836 1.25 0 0.84836 1.2 0 0.84836 1.15 0 
0.84836 1.1 0 0.84836 1.05 0 0.84836 1 0 
0.84836 0.95 0 0.84836 0.9 0 0.84836 0.85 0 
0.84836 0.8 0 0.84836 0.75 0 0.84836 0.7 0 
0.84836 0.65 0 0.84836 0.6 0 0.84836 0.55 0 
0.84836 0.5 0 0.84836 0.45 0 0.84836 0.4 0 
0.84836 0.35 0 0.84836 0.3 0 0.84836 0.25 0 
0.84836 0.2 0 0.84836 0.15 0 0.84836 0.1 0 
0.84836 0.05 0 0.84836 0 0 0.898144 1.5 0 
0.898144 1.45 0 0.898144 1.4 0 0.898144 1.35 0 
0.898144 1.3 0 0.898144 1.25 0 0.898144 1.2 0 
0.898144 1.15 0 0.898144 1.1 0 0.898144 1.05 0 
0.898144 1 0 0.898144 0.95 0 0.898144 0.9 0 
0.898144 0.85 0 0.898144 0.8 0 0.898144 0.75 0 
0.898144 0.7 0 0.898144 0.65 0 0.898144 0.6 0 
0.898144 0.55 0 0.898144 0.5 0 0.898144 0.45 0 
0.898144 0.4 0 0.898144 0.35 0 0.898144 0.3 0 
0.898144 0.25 0 0.898144 0.2 0 0.898144 0.15 0 
0.898144 0.1 0 0.898144 0.05 0 0.898144 0 0 
0.947928 1.5 0 0.947928 1.45 0 0.947928 1.4 0 
0.947928 1.35 0 0.947928 1.3 0 0.947928 1.25 0 
0.947928 1.2 0 0.947928 1.15 0 0.947928 1.1 0 
0.947928 1.05 0 0.947928 1 0 0.947928 0.95 0 
0.947928 0.9 0 0.947928 0.85 0 0.947928 0.8 0 
0.947928 0.75 0 0.947928 0.7 0 0.947928 0.65 0 
0.947928 0.6 0 0.947928 0.55 0 0.947928 0.5 0 
0.947928 0.45 0 0.947928 0.4 0 0.947928 0.35 0 
0.947928 0.3 0 0.947928 0.25 0 0.947928 0.2 0 
0.947928 0.15 0 0.947928 0.1 0 0.947928 0.05 0 
0.947928 0 0 0.997712 1.5 0 0.997712 1.45 0 
0.997712 1.4 0 0.997712 1.35 0 0.997712 1.3 0 
0.997712 1.25 0 0.997712 1.2 0 0.997712 1.15 0 
0.997712 1.1 0 0.997712 1.05 0 0.997712 1 0 
0.997712 0.95 0 0.997712 0.9 0 0.997712 0.85 0 
0.997712 0.8 0 0.997712 0.75 0 0.997712 0.7 0 
0.997712 0.65 0 0.997712 0.6 0 0.997712 0.55 0 
0.997712 0.5 0 0.997712 0.45 0 0.997712 0.4 0 
0.997712 0.35 0 0.997712 0.3 0 0.997712 0.25 0 
0.997712 0.2 0 0.997712 0.15 0 0.997712 0.1 0 
0.997712 0.05 0 0.997712 0 0 1.047496 1.5 0 
1.047496 1.45 0 1.047496 1.4 0 1.047496 1.35 0 
1.047496 1.3 0 1.047496 1.25 0 1.047496 1.2 0 
1.047496 1.15 0 1.047496 1.1 0 1.047496 1.05 0 
1.047496 1 0 1.047496 0.95 0 1.047496 0.9 0 
1.047496 0.85 0 1.047496 0.8 0 1.047496 0.75 0 
1.047496 0.7 0 1.047496 0.65 0 1.047496 0.6 0 
1.047496 0.55 0 1.047496 0.5 0 1.047496 0.45 0 
1.047496 0.4 0 1.047496 0.35 0 1.047496 0.3 0 
1.047496 0.25 0 1.047496 0.2 0 1.047496 0.15 0 
[...]
CELL_DATA 9270
FIELD FieldData 7
B_Stress_n_p_m2 1 9270 float
0.318176 0.328082 0.329748 0.329615 0.329273 0.329095 0.329025 0.329025 0.329054 
0.329099 0.32915 0.329205 0.32926 0.329316 0.329369 0.329369 0.329316 0.32926 
0.329205 0.32915 0.329099 0.329054 0.329025 0.329025 0.329095 0.329273 0.329615 
0.329748 0.328082 0.318176 0.0557464 0.0753155 0.078804 0.0784856 0.0774686 0.0767476 
0.0762531 0.0759463 0.0757387 0.0756027 0.0755089 0.0754472 0.0754071 0.0753845 0.0753751 
0.0753751 0.0753845 0.0754071 0.0754472 0.0755089 0.0756027 0.0757387 0.0759463 0.0762531 
0.0767476 0.0774686 0.0784856 0.078804 0.0753155 0.0557464 0.0866468 0.109834 0.115063 
0.115273 0.114306 0.113479 0.112848 0.112416 0.112102 0.111881 0.111719 0.111605 
0.111524 0.111472 0.111444 0.111444 0.111472 0.111524 0.111605 0.111719 0.111881 
0.112102 0.112416 0.112848 0.113479 0.114306 0.115273 0.115063 0.109834 0.0866468 
0.0763442 0.100904 0.107262 0.107972 0.107227 0.106469 0.105846 0.105395 0.105056 
0.10481 0.104629 0.1045 0.10441 0.104354 0.104327 0.104327 0.104354 0.10441 
0.1045 0.104629 0.10481 0.105056 0.105395 0.105846 0.106469 0.107227 0.107972 
0.107262 0.100904 0.0763442 0.0764454 0.101352 0.108293 0.109345 0.108822 0.108169 
0.107594 0.107153 0.106809 0.106549 0.106353 0.106209 0.106108 0.106044 0.106012 
0.106012 0.106044 0.106108 0.106209 0.106353 0.106549 0.106809 0.107153 0.107594 
0.108169 0.108822 0.109345 0.108293 0.101352 0.0764454 0.0751961 0.100299 0.107614 
0.108913 0.108577 0.108033 0.107524 0.107116 0.106786 0.106531 0.106334 0.106187 
0.106082 0.106015 0.105982 0.105982 0.106015 0.106082 0.106187 0.106334 0.106531 
0.106786 0.107116 0.107524 0.108033 0.108577 0.108913 0.107614 0.100299 0.0751961 
0.0746814 0.0998045 0.107316 0.108775 0.108585 0.10814 0.107701 0.107335 0.107031 
0.106789 0.106598 0.106454 0.10635 0.106283 0.10625 0.10625 0.106283 0.10635 
0.106454 0.106598 0.106789 0.107031 0.107335 0.107701 0.10814 0.108585 0.108775 
0.107316 0.0998045 0.0746814 0.0743078 0.0993944 0.107009 0.108573 0.108493 0.108132 
0.107758 0.107435 0.107161 0.106939 0.10676 0.106623 0.106523 0.106458 0.106426 
0.106426 0.106458 0.106523 0.106623 0.10676 0.106939 0.107161 0.107435 0.107758 
0.108132 0.108493 0.108573 0.107009 0.0993944 0.0743078 0.0741029 0.0991122 0.106767 
0.108396 0.108398 0.108105 0.107787 0.107507 0.107264 0.107063 0.106899 0.106771 
0.106678 0.106616 0.106586 0.106586 0.106616 0.106678 0.106771 0.106899 0.107063 
0.107264 0.107507 0.107787 0.108105 0.108398 0.108396 0.106767 0.0991122 0.0741029 
0.0740024 0.0989121 0.106569 0.108236 0.108297 0.108059 0.107789 0.107546 0.107333 
0.107153 0.107005 0.106889 0.106803 0.106746 0.106718 0.106718 0.106746 0.106803 
0.106889 0.107005 0.107153 0.107333 0.107546 0.107789 0.108059 0.108297 0.108236 
0.106569 0.0989121 0.0740024 0.0739811 0.0987765 0.10641 0.108096 0.108199 0.108005 
0.107775 0.107564 0.107378 0.107219 0.107087 0.106982 0.106904 0.106852 0.106826 
0.106826 0.106852 0.106904 0.106982 0.107087 0.107219 0.107378 0.107564 0.107775 
0.108005 0.108199 0.108096 0.10641 0.0987765 0.0739811 0.074018 0.0986902 0.106283 
0.107974 0.108107 0.107947 0.107749 0.107567 0.107404 0.107264 0.107147 0.107053 
0.106983 0.106936 0.106913 0.106913 0.106936 0.106983 0.107053 0.107147 0.107264 
0.107404 0.107567 0.107749 0.107947 0.108107 0.107974 0.106283 0.0986902 0.074018 
0.0740944 0.0986476 0.106182 0.107867 0.108023 0.107888 0.107717 0.107559 0.107416 
0.107293 0.10719 0.107106 0.107044 0.107002 0.106981 0.106981 0.107002 0.107044 
0.107106 0.10719 0.107293 0.107416 0.107559 0.107717 0.107888 0.108023 0.107867 
0.106182 0.0986476 0.0740944 0.0742019 0.0986367 0.106103 0.107775 0.107945 0.107831 
0.107682 0.107543 0.107418 0.10731 0.107218 0.107144 0.107089 0.107051 0.107033 
0.107033 0.107051 0.107089 0.107144 0.107218 0.10731 0.107418 0.107543 0.107682 
0.107831 0.107945 0.107775 0.106103 0.0986367 0.0742019 0.0743336 0.098651 0.106042 
0.107695 0.107873 0.107775 0.107644 0.107521 0.107411 0.107315 0.107234 0.107169 
0.10712 0.107087 0.10707 0.10707 0.107087 0.10712 0.107169 0.107234 0.107315 
0.107411 0.107521 0.107644 0.107775 0.107873 0.107695 0.106042 0.098651 0.0743336 
0.0744845 0.0986849 0.105996 0.107624 0.107807 0.107722 0.107605 0.107496 0.107398 
0.107313 0.107241 0.107183 0.107139 0.10711 0.107095 0.107095 0.10711 0.107139 
0.107183 0.107241 0.107313 0.107398 0.107496 0.107605 0.107722 0.107807 0.107624 
0.105996 0.0986849 0.0744845 0.0746512 0.0987343 0.105962 0.107562 0.107747 0.107671 
0.107565 0.107467 0.10738 0.107304 0.10724 0.107188 0.107149 0.107123 0.10711 
0.10711 0.107123 0.107149 0.107188 0.10724 0.107304 0.10738 0.107467 0.107565 
0.107671 0.107747 0.107562 0.105962 0.0987343 0.0746512 0.0748308 0.0987961 0.105936 
0.107507 0.10769 0.107622 0.107525 0.107436 0.107358 0.10729 0.107232 0.107186 
0.107151 0.107128 0.107116 0.107116 0.107128 0.107151 0.107186 0.107232 0.10729 
0.107358 0.107436 0.107525 0.107622 0.10769 0.107507 0.105936 0.0987961 0.0748308 
0.0750211 0.0988677 0.105918 0.107457 0.107638 0.107575 0.107486 0.107404 0.107333 
0.107271 0.107219 0.107178 0.107146 0.107125 0.107115 0.107115 0.107125 0.107146 
0.107178 0.107219 0.107271 0.107333 0.107404 0.107486 0.107575 0.107638 0.107457 
0.105918 0.0988677 0.0750211 0.0752205 0.0989472 0.105907 0.107412 0.107589 0.10753 
0.107446 0.107371 0.107305 0.107249 0.107202 0.107164 0.107136 0.107117 0.107107 
0.107107 0.107117 0.107136 0.107164 0.107202 0.107249 0.107305 0.107371 0.107446 
0.10753 0.107589 0.107412 0.105907 0.0989472 0.0752205 0.0754278 0.0990331 0.105899 
0.107371 0.107542 0.107486 0.107407 0.107337 0.107276 0.107224 0.107181 0.107147 
0.107121 0.107103 0.107095 0.107095 0.107103 0.107121 0.107147 0.107181 0.107224 
0.107276 0.107337 0.107407 0.107486 0.107542 0.107371 0.105899 0.0990331 0.0754278 
0.0756418 0.0991241 0.105896 0.107332 0.107497 0.107443 0.107368 0.107302 0.107245 
0.107197 0.107157 0.107126 0.107102 0.107086 0.107078 0.107078 0.107086 0.107102 
0.107126 0.107157 0.107197 0.107245 0.107302 0.107368 0.107443 0.107497 0.107332 
0.105896 0.0991241 0.0756418 0.0758617 0.0992191 0.105895 0.107296 0.107454 0.107401 
0.10733 0.107267 0.107213 0.107168 0.107131 0.107102 0.10708 0.107065 0.107057 
0.107057 0.107065 0.10708 0.107102 0.107131 0.107168 0.107213 0.107267 0.10733 
0.107401 0.107454 0.107296 0.105895 0.0992191 0.0758617 0.076087 0.0993175 0.105896 
0.107261 0.107412 0.10736 0.107291 0.107231 0.10718 0.107138 0.107103 0.107075 
0.107055 0.107041 0.107034 0.107034 0.107041 0.107055 0.107075 0.107103 0.107138 
0.10718 0.107231 0.107291 0.10736 0.107412 0.107261 0.105896 0.0993175 0.076087 
0.076317 0.0994186 0.105899 0.107228 0.107372 0.10732 0.107253 0.107195 0.107147 
0.107106 0.107073 0.107047 0.107028 0.107015 0.107008 0.107008 0.107015 0.107028 
0.107047 0.107073 0.107106 0.107147 0.107195 0.107253 0.10732 0.107372 0.107228 
0.105899 0.0994186 0.076317 0.0765514 0.0995218 0.105904 0.107196 0.107332 0.10728 
0.107215 0.107159 0.107112 0.107073 0.107042 0.107017 0.106999 0.106986 0.10698 
0.10698 0.106986 0.106999 0.107017 0.107042 0.107073 0.107112 0.107159 0.107215 
0.10728 0.107332 0.107196 0.105904 0.0995218 0.0765514 0.0767899 0.0996266 0.105909 
0.107165 0.107293 0.107241 0.107177 0.107123 0.107077 0.10704 0.10701 0.106986 
0.106968 0.106957 0.106951 0.106951 0.106957 0.106968 0.106986 0.10701 0.10704 
0.107077 0.107123 0.107177 0.107241 0.107293 0.107165 0.105909 0.0996266 0.0767899 
0.0770321 0.0997328 0.105915 0.107135 0.107255 0.107202 0.107139 0.107086 0.107042 
0.107006 0.106976 0.106953 0.106936 0.106925 0.10692 0.10692 0.106925 0.106936 
0.106953 0.106976 0.107006 0.107042 0.107086 0.107139 0.107202 0.107255 0.107135 
0.105915 0.0997328 0.0770321 0.077278 0.0998401 0.105921 0.107105 0.107217 0.107164 
0.107101 0.107049 0.107006 0.106971 0.106942 0.10692 0.106904 0.106893 0.106887 
0.106887 0.106893 0.106904 0.10692 0.106942 0.106971 0.107006 0.107049 0.107101 
0.107164 0.107217 0.107105 0.105921 0.0998401 0.077278 0.0775272 0.0999481 0.105927 
0.107075 0.107179 0.107125 0.107064 0.107012 0.10697 0.106935 0.106907 0.106886 
0.10687 0.106859 0.106854 0.106854 0.106859 0.10687 0.106886 0.106907 0.106935 
0.10697 0.107012 0.107064 0.107125 0.107179 0.107075 0.105927 0.0999481 0.0775272 
0.0777798 0.100057 0.105933 0.107046 0.107141 0.107087 0.107026 0.106975 0.106933 
0.106899 0.106872 0.106851 0.106836 0.106825 0.10682 0.10682 0.106825 0.106836 
0.106851 0.106872 0.106899 0.106933 0.106975 0.107026 0.107087 0.107141 0.107046 
0.105933 0.100057 0.0777798 0.0780356 0.100166 0.10594 0.107016 0.107104 0.107049 
0.106988 0.106938 0.106896 0.106863 0.106836 0.106816 0.1068 0.10679 0.106785 
0.106785 0.10679 0.1068 0.106816 0.106836 0.106863 0.106896 0.106938 0.106988 
0.107049 0.107104 0.107016 0.10594 0.100166 0.0780356 0.0782945 0.100275 0.105946 
0.106987 0.107067 0.107011 0.10695 0.1069 0.10686 0.106827 0.1068 0.10678 
0.106765 0.106755 0.10675 0.10675 0.106755 0.106765 0.10678 0.1068 0.106827 
0.10686 0.1069 0.10695 0.107011 0.107067 0.106987 0.105946 0.100275 0.0782945 
0.0785566 0.100385 0.105951 0.106957 0.10703 0.106973 0.106912 0.106863 0.106822 
0.10679 0.106764 0.106744 0.106729 0.106719 0.106714 0.106714 0.106719 0.106729 
0.106744 0.106764 0.10679 0.106822 0.106863 0.106912 0.106973 0.10703 0.106957 
0.105951 0.100385 0.0785566 0.0788217 0.100494 0.105956 0.106927 0.106993 0.106934 
0.106874 0.106825 0.106785 0.106753 0.106727 0.106707 0.106692 0.106683 0.106678 
0.106678 0.106683 0.106692 0.106707 0.106727 0.106753 0.106785 0.106825 0.106874 
0.106934 0.106993 0.106927 0.105956 0.100494 0.0788217 0.0790899 0.100604 0.105961 
0.106898 0.106956 0.106896 0.106836 0.106787 0.106748 0.106715 0.10669 0.10667 
0.106656 0.106646 0.106641 0.106641 0.106646 0.106656 0.10667 0.10669 0.106715 
0.106748 0.106787 0.106836 0.106896 0.106956 0.106898 0.105961 0.100604 0.0790899 
0.0793611 0.100713 0.105965 0.106868 0.106918 0.106858 0.106798 0.10675 0.10671 
0.106678 0.106653 0.106633 0.106619 0.106609 0.106605 0.106605 0.106609 0.106619 
0.106633 0.106653 0.106678 0.10671 0.10675 0.106798 0.106858 0.106918 0.106868 
0.105965 0.100713 0.0793611 0.0796354 0.100823 0.105969 0.106837 0.106881 0.10682 
0.10676 0.106712 0.106672 0.10664 0.106615 0.106596 0.106581 0.106572 0.106567 
0.106567 0.106572 0.106581 0.106596 0.106615 0.10664 0.106672 0.106712 0.10676 
0.10682 0.106881 0.106837 0.105969 0.100823 0.0796354 0.0799127 0.100931 0.105972 
0.106807 0.106844 0.106782 0.106722 0.106673 0.106634 0.106602 0.106577 0.106558 
0.106544 0.106534 0.10653 0.10653 0.106534 0.106544 0.106558 0.106577 0.106602 
0.106634 0.106673 0.106722 0.106782 0.106844 0.106807 0.105972 0.100931 0.0799127 
0.0801931 0.10104 0.105974 0.106776 0.106806 0.106744 0.106684 0.106635 0.106596 
0.106564 0.106539 0.10652 0.106506 0.106497 0.106492 0.106492 0.106497 0.106506 
0.10652 0.106539 0.106564 0.106596 0.106635 0.106684 0.106744 0.106806 0.106776 
0.105974 0.10104 0.0801931 0.0804766 0.101149 0.105976 0.106745 0.106769 0.106705 
0.106645 0.106597 0.106558 0.106526 0.106501 0.106482 0.106468 0.106459 0.106454 
0.106454 0.106459 0.106468 0.106482 0.106501 0.106526 0.106558 0.106597 0.106645 
0.106705 0.106769 0.106745 0.105976 0.101149 0.0804766 0.0807633 0.101256 0.105976 
0.106714 0.106731 0.106667 0.106607 0.106559 0.10652 0.106488 0.106463 0.106444 
0.10643 0.106421 0.106416 0.106416 0.106421 0.10643 0.106444 0.106463 0.106488 
0.10652 0.106559 0.106607 0.106667 0.106731 0.106714 0.105976 0.101256 0.0807633 
0.0810531 0.101364 0.105977 0.106682 0.106694 0.106628 0.106568 0.10652 0.106481 
0.10645 0.106425 0.106406 0.106392 0.106382 0.106378 0.106378 0.106382 0.106392 
0.106406 0.106425 0.10645 0.106481 0.10652 0.106568 0.106628 0.106694 0.106682 
0.105977 0.101364 0.0810531 0.0813461 0.101471 0.105976 0.10665 0.106656 0.10659 
0.10653 0.106481 0.106443 0.106411 0.106386 0.106367 0.106353 0.106344 0.10634 
0.10634 0.106344 0.106353 0.106367 0.106386 0.106411 0.106443 0.106481 0.10653 
0.10659 0.106656 0.10665 0.105976 0.101471 0.0813461 0.0816424 0.101577 0.105975 
0.106618 0.106618 0.106551 0.106491 0.106443 0.106404 0.106373 0.106348 0.106329 
0.106315 0.106306 0.106301 0.106301 0.106306 0.106315 0.106329 0.106348 0.106373 
0.106404 0.106443 0.106491 0.106551 0.106618 0.106618 0.105975 0.101577 0.0816424 
0.0819419 0.101683 0.105973 0.106586 0.10658 0.106512 0.106452 0.106404 0.106365 
0.106334 0.106309 0.10629 0.106276 0.106267 0.106262 0.106262 0.106267 0.106276 
0.10629 0.106309 0.106334 0.106365 0.106404 0.106452 0.106512 0.10658 0.106586 
0.105973 0.101683 0.0819419 0.0822448 0.101788 0.10597 0.106553 0.106541 0.106473 
0.106413 0.106365 0.106326 0.106295 0.10627 0.106251 0.106237 0.106228 0.106224 
0.106224 0.106228 0.106237 0.106251 0.10627 0.106295 0.106326 0.106365 0.106413 
0.106473 0.106541 0.106553 0.10597 0.101788 0.0822448 0.082551 0.101893 0.105966 
0.10652 0.106503 0.106434 0.106374 0.106326 0.106287 0.106256 0.106231 0.106212 
0.106198 0.106189 0.106185 0.106185 0.106189 0.106198 0.106212 0.106231 0.106256 
0.106287 0.106326 0.106374 0.106434 0.106503 0.10652 0.105966 0.101893 0.082551 
0.0828606 0.101997 0.105961 0.106486 0.106465 0.106395 0.106335 0.106287 0.106248 
0.106217 0.106192 0.106173 0.106159 0.10615 0.106146 0.106146 0.10615 0.106159 
0.106173 0.106192 0.106217 0.106248 0.106287 0.106335 0.106395 0.106465 0.106486 
0.105961 0.101997 0.0828606 0.0831737 0.1021 0.105956 0.106452 0.106426 0.106356 
0.106296 0.106248 0.106209 0.106178 0.106153 0.106134 0.10612 0.106111 0.106106 
0.106106 0.106111 0.10612 0.106134 0.106153 0.106178 0.106209 0.106248 0.106296 
0.106356 0.106426 0.106452 0.105956 0.1021 0.0831737 0.0834903 0.102202 0.10595 
0.106418 0.106387 0.106317 0.106257 0.106208 0.10617 0.106138 0.106114 0.106095 
0.106081 0.106072 0.106067 0.106067 0.106072 0.106081 0.106095 0.106114 0.106138 
0.10617 0.106208 0.106257 0.106317 0.106387 0.106418 0.10595 0.102202 0.0834903 
0.0838105 0.102303 0.105943 0.106384 0.106348 0.106277 0.106217 0.106169 0.10613 
0.106099 0.106075 0.106055 0.106042 0.106032 0.106028 0.106028 0.106032 0.106042 
0.106055 0.106075 0.106099 0.10613 0.106169 0.106217 0.106277 0.106348 0.106384 
0.105943 0.102303 0.0838105 0.0841342 0.102404 0.105935 0.106349 0.106309 0.106238 
0.106178 0.10613 0.106091 0.10606 0.106035 0.106016 0.106002 0.105993 0.105988 
0.105988 0.105993 0.106002 0.106016 0.106035 0.10606 0.106091 0.10613 0.106178 
0.106238 0.106309 0.106349 0.105935 0.102404 0.0841342 0.0844617 0.102503 0.105926 
0.106314 0.10627 0.106198 0.106138 0.10609 0.106051 0.10602 0.105995 0.105976 
0.105962 0.105953 0.105949 0.105949 0.105953 0.105962 0.105976 0.105995 0.10602 
0.106051 0.10609 0.106138 0.106198 0.10627 0.106314 0.105926 0.102503 0.0844617 
0.0847928 0.102602 0.105916 0.106279 0.106231 0.106158 0.106099 0.10605 0.106012 
0.10598 0.105956 0.105937 0.105923 0.105914 0.105909 0.105909 0.105914 0.105923 
0.105937 0.105956 0.10598 0.106012 0.10605 0.106099 0.106158 0.106231 0.106279 
0.105916 0.102602 0.0847928 0.0851278 0.102699 0.105906 0.106243 0.106192 0.106119 
0.106059 0.10601 0.105972 0.105941 0.105916 0.105897 0.105883 0.105874 0.105869 
0.105869 0.105874 0.105883 0.105897 0.105916 0.105941 0.105972 0.10601 0.106059 
0.106119 0.106192 0.106243 0.105906 0.102699 0.0851278 0.0854665 0.102796 0.105894 
0.106207 0.106152 0.106079 0.106019 0.105971 0.105932 0.105901 0.105876 0.105857 
0.105843 0.105834 0.10583 0.10583 0.105834 0.105843 0.105857 0.105876 0.105901 
0.105932 0.105971 0.106019 0.106079 0.106152 0.106207 0.105894 0.102796 0.0854665 
0.0858092 0.102891 0.105882 0.106171 0.106112 0.106039 0.105979 0.105931 0.105892 
0.105861 0.105836 0.105817 0.105803 0.105794 0.10579 0.10579 0.105794 0.105803 
0.105817 0.105836 0.105861 0.105892 0.105931 0.105979 0.106039 0.106112 0.106171 
0.105882 0.102891 0.0858092 0.0861558 0.102985 0.105869 0.106134 0.106073 0.105998 
0.105939 0.105891 0.105852 0.105821 0.105796 0.105777 0.105763 0.105754 0.10575 
0.10575 0.105754 0.105763 0.105777 0.105796 0.105821 0.105852 0.105891 0.105939 
0.105998 0.106073 0.106134 0.105869 0.102985 0.0861558 0.0865065 0.103077 0.105855 
0.106097 0.106033 0.105958 0.105899 0.10585 0.105812 0.10578 0.105756 0.105737 
0.105723 0.105714 0.105709 0.105709 0.105714 0.105723 0.105737 0.105756 0.10578 
0.105812 0.10585 0.105899 0.105958 0.106033 0.106097 0.105855 0.103077 0.0865065 
0.0868612 0.103169 0.10584 0.10606 0.105993 0.105918 0.105858 0.10581 0.105772 
0.10574 0.105716 0.105697 0.105683 0.105674 0.105669 0.105669 0.105674 0.105683 
0.105697 0.105716 0.10574 0.105772 0.10581 0.105858 0.105918 0.105993 0.10606 
0.10584 0.103169 0.0868612 0.0872201 0.103259 0.105824 0.106023 0.105953 0.105878 
0.105818 0.10577 0.105731 0.1057 0.105675 0.105656 0.105642 0.105633 0.105629 
0.105629 0.105633 0.105642 0.105656 0.105675 0.1057 0.105731 0.10577 0.105818 
0.105878 0.105953 0.106023 0.105824 0.103259 0.0872201 0.0875832 0.103347 0.105807 
0.105985 0.105912 0.105837 0.105778 0.105729 0.105691 0.105659 0.105635 0.105616 
0.105602 0.105593 0.105588 0.105588 0.105593 0.105602 0.105616 0.105635 0.105659 
0.105691 0.105729 0.105778 0.105837 0.105912 0.105985 0.105807 0.103347 0.0875832 
0.0879506 0.103434 0.105789 0.105947 0.105872 0.105796 0.105737 0.105689 0.10565 
0.105619 0.105595 0.105575 0.105562 0.105552 0.105548 0.105548 0.105552 0.105562 
0.105575 0.105595 0.105619 0.10565 0.105689 0.105737 0.105796 0.105872 0.105947 
0.105789 0.103434 0.0879506 0.0883223 0.10352 0.10577 0.105909 0.105831 0.105756 
0.105696 0.105648 0.10561 0.105578 0.105554 0.105535 0.105521 0.105512 0.105507 
0.105507 0.105512 0.105521 0.105535 0.105554 0.105578 0.10561 0.105648 0.105696 
0.105756 0.105831 0.105909 0.10577 0.10352 0.0883223 0.0886985 0.103604 0.105751 
0.10587 0.105791 0.105715 0.105656 0.105607 0.105569 0.105538 0.105513 0.105494 
0.10548 0.105471 0.105467 0.105467 0.105471 0.10548 0.105494 0.105513 0.105538 
0.105569 0.105607 0.105656 0.105715 0.105791 0.10587 0.105751 0.103604 0.0886985 
0.0890791 0.103686 0.10573 0.105831 0.10575 0.105674 0.105615 0.105567 0.105528 
0.105497 0.105472 0.105453 0.10544 0.10543 0.105426 0.105426 0.10543 0.10544 
0.105453 0.105472 0.105497 0.105528 0.105567 0.105615 0.105674 0.10575 0.105831 
0.10573 0.103686 0.0890791 0.0894643 0.103766 0.105709 0.105792 0.105709 0.105633 
0.105574 0.105526 0.105487 0.105456 0.105432 0.105412 0.105399 0.10539 0.105385 
0.105385 0.10539 0.105399 0.105412 0.105432 0.105456 0.105487 0.105526 0.105574 
0.105633 0.105709 0.105792 0.105709 0.103766 0.0894643 0.0898541 0.103845 0.105686 
0.105753 0.105668 0.105592 0.105533 0.105485 0.105447 0.105415 0.105391 0.105371 
0.105358 0.105349 0.105344 0.105344 0.105349 0.105358 0.105371 0.105391 0.105415 
0.105447 0.105485 0.105533 0.105592 0.105668 0.105753 0.105686 0.103845 0.0898541 
0.0902486 0.103921 0.105663 0.105713 0.105627 0.105551 0.105492 0.105444 0.105405 
0.105374 0.10535 0.105331 0.105317 0.105308 0.105303 0.105303 0.105308 0.105317 
0.105331 0.10535 0.105374 0.105405 0.105444 0.105492 0.105551 0.105627 0.105713 
0.105663 0.103921 0.0902486 0.0906479 0.103995 0.105639 0.105674 0.105586 0.10551 
0.105451 0.105402 0.105364 0.105333 0.105309 0.105289 0.105276 0.105267 0.105262 
0.105262 0.105267 0.105276 0.105289 0.105309 0.105333 0.105364 0.105402 0.105451 
0.10551 0.105586 0.105674 0.105639 0.103995 0.0906479 0.0910521 0.104068 0.105613 
0.105633 0.105545 0.105468 0.105409 0.105361 0.105323 0.105292 0.105268 0.105248 
0.105235 0.105226 0.105221 0.105221 0.105226 0.105235 0.105248 0.105268 0.105292 
0.105323 0.105361 0.105409 0.105468 0.105545 0.105633 0.105613 0.104068 0.0910521 
0.0914612 0.104138 0.105587 0.105593 0.105503 0.105427 0.105368 0.10532 0.105282 
0.105251 0.105226 0.105207 0.105194 0.105185 0.10518 0.10518 0.105185 0.105194 
0.105207 0.105226 0.105251 0.105282 0.10532 0.105368 0.105427 0.105503 0.105593 