# vtk DataFile Version 5.1
vtk output
ASCII
DATASET UNSTRUCTURED_GRID
POINTS 10043 double
-10.1 1.4499999993 0 -10.049999999 1.4499999993 0 -10.049999999 1.5 0 
-9.9999999985 1.4499999993 0 -9.9999999985 1.5 0 -9.9499999978 1.4499999993 0 
-9.9499999978 1.5 0 -9.899999997 1.4499999993 0 -9.899999997 1.5 0 
-9.8499999963 1.4499999993 0 -9.8499999963 1.5 0 -9.7999999955 1.4499999993 0 
-9.7999999955 1.5 0 -9.7499999948 1.4499999993 0 -9.7499999948 1.5 0 
-9.699999994 1.4499999993 0 -9.699999994 1.5 0 -9.6499999933 1.4499999993 0 
-9.6499999933 1.5 0 -9.5999999925 1.4499999993 0 -9.5999999925 1.5 0 
-9.5499999918 1.4499999993 0 -9.5499999918 1.5 0 -9.4999999911 1.4499999993 0 
-9.4999999911 1.5 0 -9.4499999903 1.4499999993 0 -9.4499999903 1.5 0 
-9.3999999896 1.4499999993 0 -9.3999999896 1.5 0 -9.3499999888 1.4499999993 0 
-9.3499999888 1.5 0 -9.2999999881 1.4499999993 0 -9.2999999881 1.5 0 
-9.2499999873 1.4499999993 0 -9.2499999873 1.5 0 -9.1999999866 1.4499999993 0 
-9.1999999866 1.5 0 -9.1499999858 1.4499999993 0 -9.1499999858 1.5 0 
-9.0999999851 1.4499999993 0 -9.0999999851 1.5 0 -9.0499999844 1.4499999993 0 
-9.0499999844 1.5 0 -8.9999999836 1.4499999993 0 -8.9999999836 1.5 0 
-8.9499999829 1.4499999993 0 -8.9499999829 1.5 0 -8.8999999821 1.4499999993 0 
-8.8999999821 1.5 0 -8.8499999814 1.4499999993 0 -8.8499999814 1.5 0 
-8.7999999806 1.4499999993 0 -8.7999999806 1.5 0 -8.7499999799 1.4499999993 0 
-8.7499999799 1.5 0 -8.6999999791 1.4499999993 0 -8.6999999791 1.5 0 
-8.6499999784 1.4499999993 0 -8.6499999784 1.5 0 -8.5999999776 1.4499999993 0 
-8.5999999776 1.5 0 -8.5499999769 1.4499999993 0 -8.5499999769 1.5 0 
-8.4999999762 1.4499999993 0 -8.4999999762 1.5 0 -8.4499999754 1.4499999993 0 
-8.4499999754 1.5 0 -8.3999999747 1.4499999993 0 -8.3999999747 1.5 0 
-8.3499999739 1.4499999993 0 -8.3499999739 1.5 0 -8.2999999732 1.4499999993 0 
-8.2999999732 1.5 0 -8.2499999724 1.4499999993 0 -8.2499999724 1.5 0 
-8.1999999717 1.4499999993 0 -8.1999999717 1.5 0 -8.1499999709 1.4499999993 0 
-8.1499999709 1.5 0 -8.0999999702 1.4499999993 0 -8.0999999702 1.5 0 
-8.0499999695 1.4499999993 0 -8.0499999695 1.5 0 -7.9999999687 1.4499999993 0 
-7.9999999687 1.5 0 -7.949999968 1.4499999993 0 -7.949999968 1.5 0 
-7.8999999672 1.4499999993 0 -7.8999999672 1.5 0 -7.8499999665 1.4499999993 0 
-7.8499999665 1.5 0 -7.7999999657 1.4499999993 0 -7.7999999657 1.5 0 
-7.749999965 1.4499999993 0 -7.749999965 1.5 0 -7.6999999642 1.4499999993 0 
-7.6999999642 1.5 0 -7.6499999635 1.4499999993 0 -7.6499999635 1.5 0 
-7.5999999627 1.4499999993 0 -7.5999999627 1.5 0 -7.549999962 1.4499999993 0 
-7.549999962 1.5 0 -7.4999999613 1.4499999993 0 -7.4999999613 1.5 0 
-7.4499999605 1.4499999993 0 -7.4499999605 1.5 0 -7.3999999598 1.4499999993 0 
-7.3999999598 1.5 0 -7.349999959 1.4499999993 0 -7.349999959 1.5 0 
-7.2999999583 1.4499999993 0 -7.2999999583 1.5 0 -7.2499999575 1.4499999993 0 
-7.2499999575 1.5 0 -7.1999999568 1.4499999993 0 -7.1999999568 1.5 0 
-7.149999956 1.4499999993 0 -7.149999956 1.5 0 -7.0999999553 1.4499999993 0 
-7.0999999553 1.5 0 -7.0499999546 1.4499999993 0 -7.0499999546 1.5 0 
-6.9999999538 1.4499999993 0 -6.9999999538 1.5 0 -6.9499999531 1.4499999993 0 
-6.9499999531 1.5 0 -6.8999999523 1.4499999993 0 -6.8999999523 1.5 0 
-6.8499999516 1.4499999993 0 -6.8499999516 1.5 0 -6.7999999508 1.4499999993 0 
-6.7999999508 1.5 0 -6.7499999501 1.4499999993 0 -6.7499999501 1.5 0 
-6.6999999493 1.4499999993 0 -6.6999999493 1.5 0 -6.6499999486 1.4499999993 0 
-6.6499999486 1.5 0 -6.5999999478 1.4499999993 0 -6.5999999478 1.5 0 
-6.5499999471 1.4499999993 0 -6.5499999471 1.5 0 -6.4999999464 1.4499999993 0 
-6.4999999464 1.5 0 -6.4499999456 1.4499999993 0 -6.4499999456 1.5 0 
-6.3999999449 1.4499999993 0 -6.3999999449 1.5 0 -6.3499999441 1.4499999993 0 
-6.3499999441 1.5 0 -6.2999999434 1.4499999993 0 -6.2999999434 1.5 0 
-6.2499999426 1.4499999993 0 -6.2499999426 1.5 0 -6.1999999419 1.4499999993 0 
-6.1999999419 1.5 0 -6.1499999411 1.4499999993 0 -6.1499999411 1.5 0 
-6.0999999404 1.4499999993 0 -6.0999999404 1.5 0 -6.0499999397 1.4499999993 0 
-6.0499999397 1.5 0 -5.9999999389 1.4499999993 0 -5.9999999389 1.5 0 
-5.9499999382 1.4499999993 0 -5.9499999382 1.5 0 -5.8999999374 1.4499999993 0 
-5.8999999374 1.5 0 -5.8499999367 1.4499999993 0 -5.8499999367 1.5 0 
-5.7999999359 1.4499999993 0 -5.7999999359 1.5 0 -5.7499999352 1.4499999993 0 
-5.7499999352 1.5 0 -5.6999999344 1.4499999993 0 -5.6999999344 1.5 0 
-5.6499999337 1.4499999993 0 -5.6499999337 1.5 0 -5.5999999329 1.4499999993 0 
-5.5999999329 1.5 0 -5.5499999322 1.4499999993 0 -5.5499999322 1.5 0 
-5.4999999315 1.4499999993 0 -5.4999999315 1.5 0 -5.4499999307 1.4499999993 0 
-5.4499999307 1.5 0 -5.39999993 1.4499999993 0 -5.39999993 1.5 0 
-5.3499999292 1.4499999993 0 -5.3499999292 1.5 0 -5.2999999285 1.4499999993 0 
-5.2999999285 1.5 0 -5.2499999277 1.4499999993 0 -5.2499999277 1.5 0 
-5.199999927 1.4499999993 0 -5.199999927 1.5 0 -5.1499999262 1.4499999993 0 
-5.1499999262 1.5 0 -5.0999999255 1.4499999993 0 -5.0999999255 1.5 0 
-5.0499999247 1.4499999993 0 -5.0499999247 1.5 0 -4.999999924 1.4499999993 0 
-4.999999924 1.5 0 -4.9499999233 1.4499999993 0 -4.9499999233 1.5 0 
-4.8999999225 1.4499999993 0 -4.8999999225 1.5 0 -4.8499999218 1.4499999993 0 
-4.8499999218 1.5 0 -4.799999921 1.4499999993 0 -4.799999921 1.5 0 
-4.7499999203 1.4499999993 0 -4.7499999203 1.5 0 -4.6999999195 1.4499999993 0 
-4.6999999195 1.5 0 -4.6499999188 1.4499999993 0 -4.6499999188 1.5 0 
-4.599999918 1.4499999993 0 -4.599999918 1.5 0 -4.5499999173 1.4499999993 0 
-4.5499999173 1.5 0 -4.4999999166 1.4499999993 0 -4.4999999166 1.5 0 
-4.4499999158 1.4499999993 0 -4.4499999158 1.5 0 -4.3999999151 1.4499999993 0 
-4.3999999151 1.5 0 -4.3499999143 1.4499999993 0 -4.3499999143 1.5 0 
-4.2999999136 1.4499999993 0 -4.2999999136 1.5 0 -4.2499999128 1.4499999993 0 
-4.2499999128 1.5 0 -4.1999999121 1.4499999993 0 -4.1999999121 1.5 0 
-4.1499999113 1.4499999993 0 -4.1499999113 1.5 0 -4.0999999106 1.4499999993 0 
-4.0999999106 1.5 0 -4.0499999098 1.4499999993 0 -4.0499999098 1.5 0 
-3.9999999091 1.4499999993 0 -3.9999999091 1.5 0 -3.9499999084 1.4499999993 0 
-3.9499999084 1.5 0 -3.8999999076 1.4499999993 0 -3.8999999076 1.5 0 
-3.8499999069 1.4499999993 0 -3.8499999069 1.5 0 -3.7999999061 1.4499999993 0 
-3.7999999061 1.5 0 -3.7499999054 1.4499999993 0 -3.7499999054 1.5 0 
-3.6999999046 1.4499999993 0 -3.6999999046 1.5 0 -3.6499999039 1.4499999993 0 
-3.6499999039 1.5 0 -3.5999999031 1.4499999993 0 -3.5999999031 1.5 0 
-3.5499999024 1.4499999993 0 -3.5499999024 1.5 0 -3.4999999017 1.4499999993 0 
-3.4999999017 1.5 0 -3.4499999009 1.4499999993 0 -3.4499999009 1.5 0 
-3.3999999002 1.4499999993 0 -3.3999999002 1.5 0 -3.3499998994 1.4499999993 0 
-3.3499998994 1.5 0 -3.2999998987 1.4499999993 0 -3.2999998987 1.5 0 
-3.2499998979 1.4499999993 0 -3.2499998979 1.5 0 -3.1999998972 1.4499999993 0 
-3.1999998972 1.5 0 -3.1499998964 1.4499999993 0 -3.1499998964 1.5 0 
-3.0999998957 1.4499999993 0 -3.0999998957 1.5 0 -3.0499998949 1.4499999993 0 
-3.0499998949 1.5 0 -2.9999998942 1.4499999993 0 -2.9999998942 1.5 0 
-2.9499998935 1.4499999993 0 -2.9499998935 1.5 0 -2.8999998927 1.4499999993 0 
-2.8999998927 1.5 0 -2.849999892 1.4499999993 0 -2.849999892 1.5 0 
-2.7999998912 1.4499999993 0 -2.7999998912 1.5 0 -2.7499998905 1.4499999993 0 
-2.7499998905 1.5 0 -2.6999998897 1.4499999993 0 -2.6999998897 1.5 0 
-2.649999889 1.4499999993 0 -2.649999889 1.5 0 -2.5999998882 1.4499999993 0 
-2.5999998882 1.5 0 -2.5499998875 1.4499999993 0 -2.5499998875 1.5 0 
-2.4999998868 1.4499999993 0 -2.4999998868 1.5 0 -2.449999886 1.4499999993 0 
-2.449999886 1.5 0 -2.3999998853 1.4499999993 0 -2.3999998853 1.5 0 
-2.3499998845 1.4499999993 0 -2.3499998845 1.5 0 -2.2999998838 1.4499999993 0 
-2.2999998838 1.5 0 -2.249999883 1.4499999993 0 -2.249999883 1.5 0 
-2.1999998823 1.4499999993 0 -2.1999998823 1.5 0 -2.1499998815 1.4499999993 0 
-2.1499998815 1.5 0 -2.0999998808 1.4499999993 0 -2.0999998808 1.5 0 
-2.04999988 1.4499999993 0 -2.04999988 1.5 0 -1.9999998793 1.4499999993 0 
-1.9999998793 1.5 0 -1.9499998786 1.4499999993 0 -1.9499998786 1.5 0 
-1.8999998778 1.4499999993 0 -1.8999998778 1.5 0 -1.8499998771 1.4499999993 0 
-1.8499998771 1.5 0 -1.7999998763 1.4499999993 0 -1.7999998763 1.5 0 
-1.7499998756 1.4499999993 0 -1.7499998756 1.5 0 -1.6999998748 1.4499999993 0 
-1.6999998748 1.5 0 -1.6499998741 1.4499999993 0 -1.6499998741 1.5 0 
-1.5999998733 1.4499999993 0 -1.5999998733 1.5 0 -1.5499998726 1.4499999993 0 
-1.5499998726 1.5 0 -1.4999998718 1.4499999993 0 -1.4999998718 1.5 0 
-1.4499998711 1.4499999993 0 -1.4499998711 1.5 0 -1.3999998704 1.4499999993 0 
-1.3999998704 1.5 0 -1.3499998696 1.4499999993 0 -1.3499998696 1.5 0 
-1.2999998689 1.4499999993 0 -1.2999998689 1.5 0 -1.2499998681 1.4499999993 0 
-1.2499998681 1.5 0 -1.1999998674 1.4499999993 0 -1.1999998674 1.5 0 
-1.1499998666 1.4499999993 0 -1.1499998666 1.5 0 -1.0999998659 1.4499999993 0 
-1.0999998659 1.5 0 -1.0499998651 1.4499999993 0 -1.0499998651 1.5 0 
-0.9999998644 1.4499999993 0 -0.9999998644 1.5 0 -0.94999986365 1.4499999993 0 
-0.94999986365 1.5 0 -0.89999986291 1.4499999993 0 -0.89999986291 1.5 0 
-0.84999986216 1.4499999993 0 -0.84999986216 1.5 0 -0.79999986142 1.4499999993 0 
-0.79999986142 1.5 0 -0.74999986067 1.4499999993 0 -0.74999986067 1.5 0 
-0.69999985993 1.4499999993 0 -0.69999985993 1.5 0 -0.64999985918 1.4499999993 0 
-0.64999985918 1.5 0 -0.59999985844 1.4499999993 0 -0.59999985844 1.5 0 
-0.54999985769 1.4499999993 0 -0.54999985769 1.5 0 -0.49999985695 1.4499999993 0 
-0.49999985695 1.5 0 -0.4499998562 1.4499999993 0 -0.4499998562 1.5 0 
-0.39999985546 1.4499999993 0 -0.39999985546 1.5 0 -0.34999985471 1.4499999993 0 
-0.34999985471 1.5 0 -0.29999985397 1.4499999993 0 -0.29999985397 1.5 0 
-0.24999985322 1.4499999993 0 -0.24999985322 1.5 0 -0.191663057 1.4499999993 0 
-0.17548248559 1.5 0 0.18862900414 1.4499999993 0 0.25000015423 1.4499999993 0 
[...]
CELL_DATA 9510
FIELD FieldData 4
Water_Depth_m 1 9510 float
0.479982 0.479944 0.479903 0.479859 0.47981 0.479754 0.47969 0.479616 0.47953 
0.479432 0.479321 0.479197 0.47906 0.478913 0.478757 0.478593 0.478424 0.478252 
0.478079 0.477907 0.477736 0.477568 0.477404 0.477244 0.477089 0.476938 0.476793 
0.476653 0.476518 0.476389 0.476265 0.476147 0.476034 0.475927 0.475826 0.47573 
0.475639 0.475554 0.475474 0.475398 0.475328 0.475262 0.4752 0.475144 0.475092 
0.475044 0.475002 0.474964 0.474932 0.474905 0.474884 0.474869 0.474861 0.474859 
0.474865 0.474879 0.4749 0.474929 0.474966 0.475011 0.475065 0.475126 0.475195 
0.475271 0.475353 0.475442 0.475535 0.475634 0.475735 0.47584 0.475946 0.476053 
0.476159 0.476265 0.476368 0.476468 0.476564 0.476655 0.476741 0.476821 0.476894 
0.47696 0.477019 0.477069 0.477112 0.477146 0.477171 0.477187 0.477194 0.477192 
0.47718 0.477159 0.477127 0.477086 0.477035 0.476973 0.476901 0.476819 0.476728 
0.476629 0.476521 0.476406 0.476285 0.476161 0.476034 0.475907 0.475782 0.475661 
0.475545 0.475438 0.475339 0.475252 0.475177 0.475114 0.475064 0.475026 0.475001 
0.474986 0.474982 0.474986 0.474996 0.475011 0.475028 0.475047 0.475064 0.475079 
0.47509 0.475096 0.475097 0.475092 0.475082 0.475067 0.475048 0.475026 0.475004 
0.474981 0.474961 0.474945 0.474935 0.474932 0.474937 0.47495 0.47497 0.474997 
0.475029 0.475063 0.475099 0.475133 0.475163 0.475188 0.475207 0.475218 0.47522 
0.475214 0.475199 0.475176 0.475147 0.475111 0.47507 0.475027 0.474981 0.474936 
0.474891 0.474851 0.474814 0.474783 0.474759 0.474742 0.474732 0.47473 0.474736 
0.474748 0.474766 0.47479 0.47482 0.474854 0.474893 0.474936 0.474984 0.475038 
0.475098 0.475165 0.475241 0.475326 0.475422 0.475532 0.475656 0.475798 0.475957 
0.476137 0.47634 0.476566 0.476817 0.477096 0.4774 0.477732 0.478087 0.478545 
0.482118 0.482514 0.482839 0.48314 0.483415 0.483666 0.483893 0.484098 0.484282 
0.484447 0.484595 0.484727 0.484845 0.484951 0.485045 0.485129 0.485205 0.485272 
0.485332 0.485386 0.485434 0.485478 0.485517 0.485552 0.485584 0.485613 0.485638 
0.485662 0.485683 0.485703 0.485721 0.485737 0.485752 0.485766 0.485778 0.48579 
0.485801 0.485811 0.48582 0.485829 0.485837 0.485845 0.485853 0.48586 0.485866 
0.485873 0.485879 0.485885 0.485891 0.485896 0.485902 0.485907 0.485912 0.485917 
0.485922 0.485927 0.485932 0.485937 0.485942 0.485947 0.485952 0.485957 0.485961 
0.485966 0.485971 0.485976 0.485981 0.485985 0.48599 0.485995 0.486 0.486005 
0.48601 0.486015 0.48602 0.486025 0.48603 0.486035 0.486041 0.486046 0.486051 
0.486057 0.486062 0.486067 0.486073 0.486078 0.486084 0.486089 0.486095 0.486101 
0.486106 0.486112 0.486118 0.486124 0.48613 0.486135 0.480675 0.479982 0.479944 
0.479904 0.47986 0.479811 0.479755 0.479691 0.479616 0.47953 0.479431 0.479319 
0.479195 0.479057 0.478909 0.478752 0.478587 0.478417 0.478245 0.478072 0.477899 
0.477729 0.477561 0.477397 0.477237 0.477082 0.476932 0.476787 0.476647 0.476512 
0.476383 0.476259 0.476141 0.476029 0.475922 0.475821 0.475725 0.475634 0.475549 
0.475469 0.475394 0.475323 0.475257 0.475196 0.475139 0.475088 0.47504 0.474997 
0.474959 0.474927 0.474899 0.474878 0.474863 0.474854 0.474852 0.474858 0.474871 
0.474892 0.47492 0.474957 0.475002 0.475056 0.475117 0.475186 0.475262 0.475344 
0.475433 0.475527 0.475626 0.475729 0.475834 0.475941 0.476049 0.476156 0.476262 
0.476366 0.476467 0.476564 0.476657 0.476743 0.476824 0.476898 0.476965 0.477025 
0.477076 0.477119 0.477154 0.47718 0.477196 0.477204 0.477202 0.47719 0.477169 
0.477137 0.477095 0.477043 0.476981 0.476908 0.476826 0.476733 0.476632 0.476523 
0.476406 0.476284 0.476158 0.47603 0.475901 0.475774 0.475651 0.475535 0.475426 
0.475327 0.475239 0.475164 0.475101 0.475051 0.475015 0.47499 0.474977 0.474974 
0.47498 0.474992 0.475009 0.475028 0.475048 0.475067 0.475083 0.475094 0.475101 
0.475102 0.475097 0.475087 0.475071 0.47505 0.475027 0.475002 0.474978 0.474956 
0.474939 0.474928 0.474924 0.474929 0.474943 0.474964 0.474992 0.475026 0.475063 
0.4751 0.475136 0.475168 0.475195 0.475215 0.475226 0.475229 0.475222 0.475207 
0.475183 0.475153 0.475115 0.475073 0.475028 0.474981 0.474933 0.474888 0.474846 
0.474808 0.474776 0.474752 0.474734 0.474725 0.474723 0.474729 0.474742 0.474761 
0.474786 0.474815 0.47485 0.474888 0.474931 0.474979 0.475032 0.475091 0.475157 
0.475231 0.475315 0.475409 0.475517 0.475639 0.475778 0.475935 0.476113 0.476313 
0.476537 0.476787 0.477062 0.477366 0.477696 0.478058 0.478502 0.48212 0.482518 
0.482847 0.483149 0.483426 0.483677 0.483905 0.484109 0.484293 0.484458 0.484605 
0.484737 0.484854 0.484959 0.485053 0.485136 0.485211 0.485278 0.485337 0.485391 
0.485438 0.485482 0.48552 0.485555 0.485587 0.485615 0.485641 0.485664 0.485685 
0.485705 0.485722 0.485738 0.485753 0.485767 0.485779 0.485791 0.485802 0.485812 
0.485821 0.48583 0.485838 0.485846 0.485853 0.48586 0.485867 0.485873 0.485879 
0.485885 0.485891 0.485896 0.485902 0.485907 0.485912 0.485918 0.485923 0.485927 
0.485932 0.485937 0.485942 0.485947 0.485952 0.485957 0.485961 0.485966 0.485971 
0.485976 0.485981 0.485985 0.48599 0.485995 0.486 0.486005 0.48601 0.486015 
0.48602 0.486025 0.48603 0.486035 0.486041 0.486046 0.486051 0.486057 0.486062 
0.486067 0.486073 0.486078 0.486084 0.486089 0.486095 0.486101 0.486106 0.486112 
0.486118 0.486124 0.48613 0.486135 0.480675 0.479982 0.479945 0.479905 0.479861 
0.479812 0.479756 0.479691 0.479616 0.479529 0.479429 0.479316 0.479189 0.47905 
0.4789 0.478741 0.478575 0.478404 0.478231 0.478057 0.477885 0.477714 0.477547 
0.477384 0.477224 0.477069 0.47692 0.476775 0.476635 0.4765 0.476371 0.476248 
0.47613 0.476018 0.475911 0.47581 0.475715 0.475625 0.47554 0.47546 0.475385 
0.475314 0.475249 0.475188 0.475131 0.475078 0.475031 0.474988 0.474949 0.474916 
0.474888 0.474866 0.47485 0.474841 0.474838 0.474843 0.474855 0.474875 0.474903 
0.47494 0.474984 0.475037 0.475099 0.475167 0.475244 0.475327 0.475417 0.475512 
0.475612 0.475715 0.475822 0.47593 0.47604 0.476149 0.476257 0.476363 0.476466 
0.476565 0.476659 0.476748 0.476831 0.476907 0.476976 0.477037 0.47709 0.477134 
0.47717 0.477197 0.477214 0.477222 0.477221 0.477209 0.477188 0.477156 0.477113 
0.477061 0.476997 0.476923 0.476838 0.476744 0.47664 0.476527 0.476408 0.476282 
0.476153 0.476021 0.475889 0.475759 0.475633 0.475514 0.475403 0.475302 0.475214 
0.475138 0.475075 0.475027 0.474991 0.474969 0.474958 0.474958 0.474968 0.474984 
0.475004 0.475027 0.47505 0.475072 0.475091 0.475104 0.475112 0.475113 0.475108 
0.475096 0.475078 0.475055 0.475028 0.474999 0.474972 0.474946 0.474926 0.474913 
0.474908 0.474913 0.474928 0.474951 0.474983 0.47502 0.475061 0.475103 0.475143 
0.475179 0.475209 0.47523 0.475243 0.475246 0.475239 0.475223 0.475198 0.475164 
0.475124 0.475079 0.47503 0.47498 0.474929 0.474881 0.474836 0.474796 0.474763 
0.474737 0.474719 0.47471 0.474709 0.474716 0.47473 0.47475 0.474776 0.474807 
0.474841 0.47488 0.474922 0.474969 0.47502 0.475077 0.475141 0.475212 0.475293 
0.475384 0.475487 0.475605 0.47574 0.475892 0.476065 0.47626 0.476479 0.476724 
0.476996 0.477296 0.477624 0.477986 0.478428 0.482121 0.482527 0.482862 0.483168 
0.483448 0.4837 0.483928 0.484133 0.484316 0.48448 0.484626 0.484756 0.484872 
0.484975 0.485068 0.48515 0.485223 0.485289 0.485347 0.4854 0.485447 0.485489 
0.485527 0.485561 0.485592 0.48562 0.485645 0.485668 0.485689 0.485708 0.485725 
0.485741 0.485755 0.485769 0.485781 0.485792 0.485803 0.485813 0.485822 0.485831 
0.485839 0.485847 0.485854 0.485861 0.485867 0.485874 0.48588 0.485886 0.485891 
0.485897 0.485902 0.485907 0.485913 0.485918 0.485923 0.485928 0.485933 0.485937 
0.485942 0.485947 0.485952 0.485957 0.485961 0.485966 0.485971 0.485976 0.485981 
0.485986 0.48599 0.485995 0.486 0.486005 0.48601 0.486015 0.48602 0.486025 
0.48603 0.486036 0.486041 0.486046 0.486051 0.486057 0.486062 0.486067 0.486073 
0.486078 0.486084 0.486089 0.486095 0.486101 0.486106 0.486112 0.486118 0.486124 
0.48613 0.486135 0.480675 0.479983 0.479946 0.479906 0.479863 0.479814 0.479757 
0.479692 0.479616 0.479528 0.479426 0.47931 0.479181 0.479039 0.478886 0.478724 
0.478556 0.478383 0.478209 0.478035 0.477863 0.477693 0.477526 0.477364 0.477205 
0.477051 0.476902 0.476757 0.476617 0.476483 0.476354 0.476231 0.476114 0.476002 
0.475896 0.475795 0.4757 0.475611 0.475526 0.475447 0.475372 0.475302 0.475236 
0.475175 0.475118 0.475066 0.475018 0.474974 0.474935 0.474901 0.474872 0.474849 
0.474832 0.474821 0.474817 0.47482 0.474831 0.47485 0.474878 0.474913 0.474957 
0.47501 0.475071 0.47514 0.475217 0.475301 0.475392 0.475488 0.47559 0.475695 
0.475804 0.475915 0.476027 0.476139 0.476249 0.476358 0.476464 0.476566 0.476663 
0.476755 0.476841 0.476919 0.476991 0.477054 0.47711 0.477156 0.477194 0.477222 
0.477241 0.47725 0.477249 0.477238 0.477216 0.477184 0.477141 0.477086 0.477021 
0.476944 0.476857 0.476759 0.476651 0.476534 0.47641 0.476279 0.476144 0.476007 
0.475869 0.475734 0.475604 0.475481 0.475367 0.475264 0.475174 0.475098 0.475036 
0.474989 0.474955 0.474936 0.474929 0.474935 0.474949 0.474971 0.474997 0.475026 
0.475054 0.475081 0.475103 0.47512 0.475129 0.475131 0.475125 0.475111 0.475089 
0.475061 0.475029 0.474995 0.474961 0.474931 0.474906 0.474889 0.474883 0.474887 
0.474904 0.474931 0.474968 0.475011 0.475059 0.475108 0.475154 0.475196 0.47523 
0.475255 0.47527 0.475273 0.475266 0.475248 0.475219 0.475182 0.475138 0.475088 
0.475034 0.474978 0.474922 0.474869 0.47482 0.474777 0.474741 0.474714 0.474696 
0.474687 0.474688 0.474696 0.474712 0.474735 0.474762 0.474794 0.474829 0.474868 
0.474909 0.474954 0.475004 0.475057 0.475117 0.475184 0.47526 0.475346 0.475443 
0.475555 0.475682 0.475828 0.475993 0.47618 0.476392 0.47663 0.476895 0.47719 
0.477515 0.477876 0.478318 0.482124 0.482542 0.482885 0.483198 0.483481 0.483736 
0.483964 0.484168 0.48435 0.484512 0.484656 0.484784 0.484898 0.485 0.48509 
0.48517 0.485242 0.485305 0.485362 0.485413 0.485459 0.4855 0.485537 0.48557 
0.4856 0.485627 0.485652 0.485674 0.485694 0.485712 0.485729 0.485745 0.485759 
0.485772 0.485784 0.485795 0.485805 0.485815 0.485824 0.485832 0.48584 0.485848 
0.485855 0.485862 0.485868 0.485875 0.485881 0.485886 0.485892 0.485897 0.485903 
0.485908 0.485913 0.485918 0.485923 0.485928 0.485933 0.485938 0.485943 0.485947 
0.485952 0.485957 0.485962 0.485966 0.485971 0.485976 0.485981 0.485986 0.48599 
0.485995 0.486 0.486005 0.48601 0.486015 0.48602 0.486025 0.48603 0.486036 
0.486041 0.486046 0.486051 0.486057 0.486062 0.486067 0.486073 0.486078 0.486084 
0.486089 0.486095 0.486101 0.486106 0.486112 0.486118 0.486124 0.48613 0.486135 
0.480675 0.479983 0.479947 0.479908 0.479865 0.479816 0.479759 0.479693 0.479615 
0.479525 0.479421 0.479303 0.47917 0.479024 0.478867 0.478702 0.478531 0.478356 
0.478181 0.478007 0.477835 0.477666 0.4775 0.477338 0.477181 0.477027 0.476879 
0.476734 0.476595 0.476461 0.476333 0.47621 0.476093 0.475981 0.475876 0.475776 
0.475681 0.475592 0.475508 0.47543 0.475355 0.475286 0.475221 0.475159 0.475103 
0.47505 0.475001 0.474957 0.474917 0.474881 0.474851 0.474826 0.474808 0.474795 
0.474789 0.474791 0.4748 0.474818 0.474844 0.474879 0.474922 0.474974 0.475035 
0.475104 0.475182 0.475267 0.475359 0.475457 0.47556 0.475668 0.47578 0.475894 
0.476009 0.476124 0.476239 0.476351 0.476461 0.476567 0.476668 0.476764 0.476853 
0.476936 0.477011 0.477078 0.477136 0.477185 0.477225 0.477256 0.477277 0.477287 
0.477287 0.477276 0.477254 0.477222 0.477177 0.477121 0.477053 0.476973 0.476882 
0.476779 0.476666 0.476543 0.476412 0.476274 0.476132 0.475987 0.475842 0.475701 
0.475564 0.475436 0.475318 0.475212 0.47512 0.475043 0.474982 0.474936 0.474906 
0.474891 0.474888 0.474902 0.474924 0.474954 0.474988 0.475025 0.475061 0.475094 
0.475122 0.475142 0.475154 0.475156 0.475149 0.475132 0.475105 0.475071 0.475032 
0.474989 0.474947 0.474908 0.474877 0.474855 0.474845 0.47485 0.474869 0.474902 
0.474946 0.474998 0.475056 0.475114 0.47517 0.47522 0.47526 0.47529 0.475307 
0.475311 0.475303 0.475282 0.475249 0.475207 0.475157 0.4751 0.475038 0.474975 
0.474912 0.474853 0.474798 0.47475 0.474711 0.474682 0.474663 0.474656 0.474658 
0.47467 0.474689 0.474714 0.474744 0.474778 0.474814 0.474853 0.474893 0.474936 
0.474982 0.475032 0.475087 0.475148 0.475217 0.475295 0.475385 0.475488 0.475606 
0.475742 0.475897 0.476074 0.476275 0.476503 0.476759 0.477046 0.477365 0.477724 
0.478167 0.482129 0.482565 0.482919 0.483239 0.483527 0.483784 0.484014 0.484217 
0.484397 0.484556 0.484698 0.484823 0.484934 0.485032 0.485119 0.485197 0.485266 
0.485327 0.485382 0.485431 0.485475 0.485515 0.48555 0.485582 0.485611 0.485637 
0.48566 0.485682 0.485701 0.485719 0.485735 0.48575 0.485763 0.485776 0.485788 
0.485798 0.485808 0.485818 0.485826 0.485835 0.485842 0.48585 0.485857 0.485863 
0.48587 0.485876 0.485882 0.485887 0.485893 0.485898 0.485903 0.485909 0.485914 
0.485919 0.485924 0.485928 0.485933 0.485938 0.485943 0.485948 0.485952 0.485957 
0.485962 0.485967 0.485971 0.485976 0.485981 0.485986 0.485991 0.485995 0.486 
0.486005 0.48601 0.486015 0.48602 0.486025 0.48603 0.486036 0.486041 0.486046 
0.486051 0.486057 0.486062 0.486067 0.486073 0.486078 0.486084 0.486089 0.486095 
0.486101 0.486106 0.486112 0.486118 0.486124 0.48613 0.486135 0.480675 0.479984 
0.479949 0.479911 0.479868 0.479818 0.479761 0.479694 0.479615 0.479523 0.479417 
0.479295 0.479158 0.479008 0.478847 0.478678 0.478504 0.478327 0.478151 0.477976 
0.477805 0.477636 0.477472 0.477311 0.477154 0.477 0.476852 0.476708 0.476568 
0.476434 0.476306 0.476183 0.476067 0.475956 0.475851 0.475752 0.475658 0.47557 
0.475487 0.475409 0.475335 0.475266 0.475201 0.475141 0.475084 0.475031 0.474981 
0.474936 0.474895 0.474858 0.474826 0.4748 0.474779 0.474764 0.474757 0.474756 
0.474764 0.474779 0.474804 0.474837 0.474879 0.474931 0.474991 0.475061 0.475139 
0.475225 0.475318 0.475418 0.475524 0.475635 0.47575 0.475867 0.475986 0.476106 
0.476225 0.476342 0.476457 0.476568 0.476674 0.476775 0.476869 0.476956 0.477035 
0.477106 0.477168 0.477221 0.477264 0.477297 0.47732 0.477332 0.477334 0.477323 
0.477302 0.477268 0.477223 0.477164 0.477093 0.47701 0.476913 0.476804 0.476684 
0.476553 0.476414 0.476267 0.476115 0.47596 0.475807 0.475656 0.475512 0.475377 
0.475253 0.475144 0.475049 0.474972 0.474911 0.474869 0.474843 0.474835 0.474844 
0.474862 0.474893 0.474932 0.474977 0.475024 0.47507 0.475111 0.475146 0.475172 
0.475188 0.475191 0.475182 0.475161 0.475128 0.475085 0.475036 0.474982 0.474928 
0.474878 0.474836 0.474807 0.474794 0.474799 0.474821 0.474861 0.474915 0.47498 
0.475051 0.475123 0.475191 0.475252 0.4753 0.475336 0.475356 0.475361 0.475351 
0.475326 0.475288 0.475239 0.47518 0.475115 0.475044 0.474971 0.474899 0.47483 
0.474767 0.474713 0.47467 0.474639 0.47462 0.474614 0.47462 0.474636 0.47466 
0.474689 0.474723 0.47476 0.474798 0.474836 0.474875 0.474915 0.474957 0.475002 
0.47505 0.475104 0.475165 0.475234 0.475314 0.475406 0.475513 0.475636 0.475778 
0.475941 0.476128 0.476343 0.476586 0.476862 0.477172 0.477526 0.477968 0.482139 
0.482596 0.482964 0.483294 0.483588 0.483848 0.484077 0.484279 0.484456 0.484612 
0.48475 0.484871 0.484978 0.485072 0.485156 0.48523 0.485296 0.485354 0.485407 
0.485453 0.485495 0.485532 0.485566 0.485596 0.485624 0.485648 0.485671 0.485691 
0.48571 0.485726 0.485742 0.485756 0.485769 0.485781 0.485792 0.485802 0.485812 
0.485821 0.485829 0.485837 0.485845 0.485852 0.485859 0.485865 0.485871 0.485877 
0.485883 0.485888 0.485894 0.485899 0.485904 0.485909 0.485914 0.485919 0.485924 
0.485929 0.485934 0.485938 0.485943 0.485948 0.485953 0.485957 0.485962 0.485967 
0.485972 0.485976 0.485981 0.485986 0.485991 0.485996 0.486 0.486005 0.48601 
0.486015 0.48602 0.486025 0.48603 0.486036 0.486041 0.486046 0.486051 0.486057 
0.486062 0.486067 0.486073 0.486078 0.486084 0.486089 0.486095 0.486101 0.486106 
0.486112 0.486118 0.486124 0.48613 0.486135 0.480675 0.479985 0.479951 0.479914 
0.479871 0.479822 0.479764 0.479696 0.479616 0.479522 0.479413 0.479288 0.479147 
0.478994 0.478829 0.478656 0.478479 0.4783 0.478123 0.477948 0.477777 0.477609 
0.477444 0.477283 0.477126 0.476972 0.476823 0.476678 0.476539 0.476404 0.476276 
0.476153 0.476036 0.475926 0.475821 0.475723 0.47563 0.475543 0.475461 0.475384 
0.475312 0.475243 0.475179 0.475119 0.475062 0.475009 0.474959 0.474913 0.47487 
0.474832 0.474799 0.47477 0.474747 0.47473 0.47472 0.474717 0.474722 0.474735 
0.474758 0.474789 0.47483 0.474881 0.474941 0.475011 0.475089 0.475176 0.475272 
0.475374 0.475482 0.475596 0.475715 0.475836 0.47596 0.476084 0.476209 0.476331 
0.476452 0.476568 0.47668 0.476786 0.476886 0.476979 0.477063 0.477139 0.477206 
0.477263 0.47731 0.477346 0.477372 0.477386 0.477389 0.477379 0.477358 0.477324 
0.477277 0.477216 0.477141 0.477053 0.47695 0.476835 0.476706 0.476565 0.476415 
0.476256 0.476093 0.475926 0.475761 0.475599 0.475446 0.475302 0.475172 0.475058 
0.47496 0.474882 0.474823 0.474784 0.474764 0.474763 0.474779 0.474809 0.474852 
0.474905 0.474963 0.475024 0.475082 0.475135 0.475179 0.475212 0.475231 0.475236 
0.475225 0.475199 0.475158 0.475104 0.475041 0.474972 0.474902 0.474837 0.474782 
0.474744 0.474725 0.474729 0.474757 0.474806 0.474874 0.474956 0.475046 0.475135 
0.47522 0.475293 0.475353 0.475395 0.47542 0.475425 0.475413 0.475383 0.475337 
0.475279 0.47521 0.475133 0.47505 0.474965 0.47488 0.4748 0.474728 0.474666 
0.474617 0.474583 0.474565 0.474562 0.474572 0.474594 0.474625 0.474661 0.4747 
0.47474 0.47478 0.474819 0.474857 0.474893 0.47493 0.474968 0.475009 0.475054 
0.475105 0.475163 0.475231 0.47531 0.475402 0.47551 0.475636 0.475782 0.475952 
0.476148 0.476375 0.476635 0.476932 0.477277 0.477715 0.482154 0.482639 0.483025 
0.483366 0.483665 0.483927 0.484155 0.484354 0.484528 0.484679 0.484812 0.484928 
0.48503 0.48512 0.485199 0.485269 0.485331 0.485386 0.485435 0.485479 0.485518 
0.485554 0.485585 0.485613 0.485639 0.485662 0.485683 0.485702 0.48572 0.485736 
0.48575 0.485763 0.485776 0.485787 0.485797 0.485807 0.485816 0.485825 0.485833 
0.48584 0.485848 0.485854 0.485861 0.485867 0.485873 0.485879 0.485884 0.48589 
0.485895 0.4859 0.485905 0.48591 0.485915 0.48592 0.485925 0.485929 0.485934 
0.485939 0.485944 0.485948 0.485953 0.485958 0.485962 0.485967 0.485972 0.485976 
0.485981 0.485986 0.485991 0.485996 0.486001 0.486005 0.48601 0.486015 0.48602 
0.486025 0.486031 0.486036 0.486041 0.486046 0.486051 0.486057 0.486062 0.486067 
0.486073 0.486078 0.486084 0.486089 0.486095 0.486101 0.486106 0.486112 0.486118 
0.486124 0.48613 0.486135 0.480675 0.479986 0.479954 0.479917 0.479875 0.479826 
0.479768 0.479699 0.479618 0.479522 0.479411 0.479283 0.47914 0.478982 0.478814 
0.478638 0.478458 0.478278 0.4781 0.477924 0.477753 0.477584 0.477419 0.477258 
0.477099 0.476945 0.476794 0.476648 0.476507 0.476372 0.476243 0.476119 0.476003 
0.475892 0.475789 0.475691 0.475599 0.475513 0.475432 0.475356 0.475285 0.475218 
0.475154 0.475094 0.475038 0.474984 0.474934 0.474887 0.474843 0.474804 0.474768 
0.474738 0.474712 0.474693 0.474679 0.474674 0.474676 0.474687 0.474707 0.474737 
0.474776 0.474826 0.474886 0.474955 0.475035 0.475123 0.47522 0.475325 0.475436 
0.475554 0.475676 0.475802 0.475931 0.47606 0.47619 0.476319 0.476445 0.476568 
0.476687 0.476799 0.476905 0.477004 0.477094 0.477176 0.477248 0.47731 0.477361 
0.477401 0.47743 0.477447 0.477452 0.477443 0.477422 0.477387 0.477339 0.477275 
0.477197 0.477103 0.476994 0.476869 0.47673 0.476578 0.476415 0.476242 0.476064 
0.475883 0.475703 0.475529 0.475363 0.47521 0.475072 0.474952 0.474852 0.474773 
0.474716 0.47468 0.474667 0.474674 0.474701 0.474745 0.474804 0.474872 0.474948 
0.475024 0.475098 0.475165 0.475221 0.475263 0.475288 0.475294 0.475281 0.475249 
0.475198 0.47513 0.475049 0.47496 0.474869 0.474783 0.47471 0.474658 0.474632 
0.474636 0.474671 0.474733 0.474821 0.474926 0.475039 0.475152 0.475257 0.475347 