# vtk DataFile Version 5.1
vtk output
ASCII
DATASET UNSTRUCTURED_GRID
POINTS 9610 double
0.1016 1.5 0 0.1016 1.45 0 0.1016 1.4 0 
0.1016 1.35 0 0.1016 1.3 0 0.1016 1.25 0 
0.1016 1.2 0 0.1016 1.15 0 0.1016 1.1 0 
0.1016 1.05 0 0.1016 1 0 0.1016 0.95 0 
0.1016 0.9 0 0.1016 0.85 0 0.1016 0.8 0 
0.1016 0.75 0 0.1016 0.7 0 0.1016 0.65 0 
0.1016 0.6 0 0.1016 0.55 0 0.1016 0.5 0 
0.1016 0.45 0 0.1016 0.4 0 0.1016 0.35 0 
0.1016 0.3 0 0.1016 0.25 0 0.1016 0.2 0 
0.1016 0.15 0 0.1016 0.1 0 0.1016 0.05 0 
0.1016 0 0 5.08 1.5 0 5.08 1.45 0 
5.08 1.4 0 5.08 1.35 0 5.08 1.3 0 
5.08 1.25 0 5.08 1.2 0 5.08 1.15 0 
5.08 1.1 0 5.08 1.05 0 5.08 1 0 
5.08 0.95 0 5.08 0.9 0 5.08 0.85 0 
5.08 0.8 0 5.08 0.75 0 5.08 0.7 0 
5.08 0.65 0 5.08 0.6 0 5.08 0.55 0 
5.08 0.5 0 5.08 0.45 0 5.08 0.4 0 
5.08 0.35 0 5.08 0.3 0 5.08 0.25 0 
5.08 0.2 0 5.08 0.15 0 5.08 0.1 0 
5.08 0.05 0 5.08 0 0 0.151384 1.5 0 
0.151384 1.45 0 0.151384 1.4 0 0.151384 1.35 0 
0.151384 1.3 0 0.151384 1.25 0 0.151384 1.2 0 
0.151384 1.15 0 0.151384 1.1 0 0.151384 1.05 0 
0.151384 1 0 0.151384 0.95 0 0.151384 0.9 0 
0.151384 0.85 0 0.151384 0.8 0 0.151384 0.75 0 
0.151384 0.7 0 0.151384 0.65 0 0.151384 0.6 0 
0.151384 0.55 0 0.151384 0.5 0 0.151384 0.45 0 
0.151384 0.4 0 0.151384 0.35 0 0.151384 0.3 0 
0.151384 0.25 0 0.151384 0.2 0 0.151384 0.15 0 
0.151384 0.1 0 0.151384 0.05 0 0.151384 0 0 
0.201168 1.5 0 0.201168 1.45 0 0.201168 1.4 0 
0.201168 1.35 0 0.201168 1.3 0 0.201168 1.25 0 
0.201168 1.2 0 0.201168 1.15 0 0.201168 1.1 0 
0.201168 1.05 0 0.201168 1 0 0.201168 0.95 0 
0.201168 0.9 0 0.201168 0.85 0 0.201168 0.8 0 
0.201168 0.75 0 0.201168 0.7 0 0.201168 0.65 0 
0.201168 0.6 0 0.201168 0.55 0 0.201168 0.5 0 
0.201168 0.45 0 0.201168 0.4 0 0.201168 0.35 0 
0.201168 0.3 0 0.201168 0.25 0 0.201168 0.2 0 
0.201168 0.15 0 0.201168 0.1 0 0.201168 0.05 0 
0.201168 0 0 0.250952 1.5 0 0.250952 1.45 0 
0.250952 1.4 0 0.250952 1.35 0 0.250952 1.3 0 
0.250952 1.25 0 0.250952 1.2 0 0.250952 1.15 0 
0.250952 1.1 0 0.250952 1.05 0 0.250952 1 0 
0.250952 0.95 0 0.250952 0.9 0 0.250952 0.85 0 
0.250952 0.8 0 0.250952 0.75 0 0.250952 0.7 0 
0.250952 0.65 0 0.250952 0.6 0 0.250952 0.55 0 
0.250952 0.5 0 0.250952 0.45 0 0.250952 0.4 0 
0.250952 0.35 0 0.250952 0.3 0 0.250952 0.25 0 
0.250952 0.2 0 0.250952 0.15 0 0.250952 0.1 0 
0.250952 0.05 0 0.250952 0 0 0.300736 1.5 0 
0.300736 1.45 0 0.300736 1.4 0 0.300736 1.35 0 
0.300736 1.3 0 0.300736 1.25 0 0.300736 1.2 0 
0.300736 1.15 0 0.300736 1.1 0 0.300736 1.05 0 
0.300736 1 0 0.300736 0.95 0 0.300736 0.9 0 
0.300736 0.85 0 0.300736 0.8 0 0.300736 0.75 0 
0.300736 0.7 0 0.300736 0.65 0 0.300736 0.6 0 
0.300736 0.55 0 0.300736 0.5 0 0.300736 0.45 0 
0.300736 0.4 0 0.300736 0.35 0 0.300736 0.3 0 
0.300736 0.25 0 0.300736 0.2 0 0.300736 0.15 0 
0.300736 0.1 0 0.300736 0.05 0 0.300736 0 0 
0.35052 1.5 0 0.35052 1.45 0 0.35052 1.4 0 
0.35052 1.35 0 0.35052 1.3 0 0.35052 1.25 0 
0.35052 1.2 0 0.35052 1.15 0 0.35052 1.1 0 
0.35052 1.05 0 0.35052 1 0 0.35052 0.95 0 
0.35052 0.9 0 0.35052 0.85 0 0.35052 0.8 0 
0.35052 0.75 0 0.35052 0.7 0 0.35052 0.65 0 
0.35052 0.6 0 0.35052 0.55 0 0.35052 0.5 0 
0.35052 0.45 0 0.35052 0.4 0 0.35052 0.35 0 
0.35052 0.3 0 0.35052 0.25 0 0.35052 0.2 0 
0.35052 0.15 0 0.35052 0.1 0 0.35052 0.05 0 
0.35052 0 0 0.400304 1.5 0 0.400304 1.45 0 
0.400304 1.4 0 0.400304 1.35 0 0.400304 1.3 0 
0.400304 1.25 0 0.400304 1.2 0 0.400304 1.15 0 
0.400304 1.1 0 0.400304 1.05 0 0.400304 1 0 
0.400304 0.95 0 0.400304 0.9 0 0.400304 0.85 0 
0.400304 0.8 0 0.400304 0.75 0 0.400304 0.7 0 
0.400304 0.65 0 0.400304 0.6 0 0.400304 0.55 0 
0.400304 0.5 0 0.400304 0.45 0 0.400304 0.4 0 
0.400304 0.35 0 0.400304 0.3 0 0.400304 0.25 0 
0.400304 0.2 0 0.400304 0.15 0 0.400304 0.1 0 
0.400304 0.05 0 0.400304 0 0 0.450088 1.5 0 
0.450088 1.45 0 0.450088 1.4 0 0.450088 1.35 0 
0.450088 1.3 0 0.450088 1.25 0 0.450088 1.2 0 
0.450088 1.15 0 0.450088 1.1 0 0.450088 1.05 0 
0.450088 1 0 0.450088 0.95 0 0.450088 0.9 0 
0.450088 0.85 0 0.450088 0.8 0 0.450088 0.75 0 
0.450088 0.7 0 0.450088 0.65 0 0.450088 0.6 0 
0.450088 0.55 0 0.450088 0.5 0 0.450088 0.45 0 
0.450088 0.4 0 0.450088 0.35 0 0.450088 0.3 0 
0.450088 0.25 0 0.450088 0.2 0 0.450088 0.15 0 
0.450088 0.1 0 0.450088 0.05 0 0.450088 0 0 
0.499872 1.5 0 0.499872 1.45 0 0.499872 1.4 0 
0.499872 1.35 0 0.499872 1.3 0 0.499872 1.25 0 
0.499872 1.2 0 0.499872 1.15 0 0.499872 1.1 0 
0.499872 1.05 0 0.499872 1 0 0.499872 0.95 0 
0.499872 0.9 0 0.499872 0.85 0 0.499872 0.8 0 
0.499872 0.75 0 0.499872 0.7 0 0.499872 0.65 0 
0.499872 0.6 0 0.499872 0.55 0 0.499872 0.5 0 
0.499872 0.45 0 0.499872 0.4 0 0.499872 0.35 0 
0.499872 0.3 0 0.499872 0.25 0 0.499872 0.2 0 
0.499872 0.15 0 0.499872 0.1 0 0.499872 0.05 0 
0.499872 0 0 0.549656 1.5 0 0.549656 1.45 0 
0.549656 1.4 0 0.549656 1.35 0 0.549656 1.3 0 
0.549656 1.25 0 0.549656 1.2 0 0.549656 1.15 0 
0.549656 1.1 0 0.549656 1.05 0 0.549656 1 0 
0.549656 0.95 0 0.549656 0.9 0 0.549656 0.85 0 
0.549656 0.8 0 0.549656 0.75 0 0.549656 0.7 0 
0.549656 0.65 0 0.549656 0.6 0 0.549656 0.55 0 
0.549656 0.5 0 0.549656 0.45 0 0.549656 0.4 0 
0.549656 0.35 0 0.549656 0.3 0 0.549656 0.25 0 
0.549656 0.2 0 0.549656 0.15 0 0.549656 0.1 0 
0.549656 0.05 0 0.549656 0 0 0.59944 1.5 0 
0.59944 1.45 0 0.59944 1.4 0 0.59944 1.35 0 
0.59944 1.3 0 0.59944 1.25 0 0.59944 1.2 0 
0.59944 1.15 0 0.59944 1.1 0 0.59944 1.05 0 
0.59944 1 0 0.59944 0.95 0 0.59944 0.9 0 
0.59944 0.85 0 0.59944 0.8 0 0.59944 0.75 0 
0.59944 0.7 0 0.59944 0.65 0 0.59944 0.6 0 
0.59944 0.55 0 0.59944 0.5 0 0.59944 0.45 0 
0.59944 0.4 0 0.59944 0.35 0 0.59944 0.3 0 
0.59944 0.25 0 0.59944 0.2 0 0.59944 0.15 0 
0.59944 0.1 0 0.59944 0.05 0 0.59944 0 0 
0.649224 1.5 0 0.649224 1.45 0 0.649224 1.4 0 
0.649224 1.35 0 0.649224 1.3 0 0.649224 1.25 0 
0.649224 1.2 0 0.649224 1.15 0 0.649224 1.1 0 
0.649224 1.05 0 0.649224 1 0 0.649224 0.95 0 
0.649224 0.9 0 0.649224 0.85 0 0.649224 0.8 0 
0.649224 0.75 0 0.649224 0.7 0 0.649224 0.65 0 
0.649224 0.6 0 0.649224 0.55 0 0.649224 0.5 0 
0.649224 0.45 0 0.649224 0.4 0 0.649224 0.35 0 
0.649224 0.3 0 0.649224 0.25 0 0.649224 0.2 0 
0.649224 0.15 0 0.649224 0.1 0 0.649224 0.05 0 
0.649224 0 0 0.699008 1.5 0 0.699008 1.45 0 
0.699008 1.4 0 0.699008 1.35 0 0.699008 1.3 0 
0.699008 1.25 0 0.699008 1.2 0 0.699008 1.15 0 
0.699008 1.1 0 0.699008 1.05 0 0.699008 1 0 
0.699008 0.95 0 0.699008 0.9 0 0.699008 0.85 0 
0.699008 0.8 0 0.699008 0.75 0 0.699008 0.7 0 
0.699008 0.65 0 0.699008 0.6 0 0.699008 0.55 0 
0.699008 0.5 0 0.699008 0.45 0 0.699008 0.4 0 
0.699008 0.35 0 0.699008 0.3 0 0.699008 0.25 0 
0.699008 0.2 0 0.699008 0.15 0 0.699008 0.1 0 
0.699008 0.05 0 0.699008 0 0 0.748792 1.5 0 
0.748792 1.45 0 0.748792 1.4 0 0.748792 1.35 0 
0.748792 1.3 0 0.748792 1.25 0 0.748792 1.2 0 
0.748792 1.15 0 0.748792 1.1 0 0.748792 1.05 0 
0.748792 1 0 0.748792 0.95 0 0.748792 0.9 0 
0.748792 0.85 0 0.748792 0.8 0 0.748792 0.75 0 
0.748792 0.7 0 0.748792 0.65 0 0.748792 0.6 0 
0.748792 0.55 0 0.748792 0.5 0 0.748792 0.45 0 
0.748792 0.4 0 0.748792 0.35 0 0.748792 0.3 0 
0.748792 0.25 0 0.748792 0.2 0 0.748792 0.15 0 
0.748792 0.1 0 0.748792 0.05 0 0.748792 0 0 
0.798576 1.5 0 0.798576 1.45 0 0.798576 1.4 0 
0.798576 1.35 0 0.798576 1.3 0 0.798576 1.25 0 
0.798576 1.2 0 0.798576 1.15 0 0.798576 1.1 0 
0.798576 1.05 0 0.798576 1 0 0.798576 0.95 0 
0.798576 0.9 0 0.798576 0.85 0 0.798576 0.8 0 
0.798576 0.75 0 0.798576 0.7 0 0.798576 0.65 0 
0.798576 0.6 0 0.798576 0.55 0 0.798576 0.5 0 
0.798576 0.45 0 0.798576 0.4 0 0.798576 0.35 0 
0.798576 0.3 0 0.798576 0.25 0 0.798576 0.2 0 
0.798576 0.15 0 0.798576 0.1 0 0.798576 0.05 0 
0.798576 0 0 0.84836 1.5 0 0.84836 1.45 0 
0.84836 1.4 0 0.84836 1.35 0 0.84836 1.3 0 
0.84836 1.25 0 0.84836 1.2 0 0.84836 1.15 0 
0.84836 1.1 0 0.84836 1.05 0 0.84836 1 0 
0.84836 0.95 0 0.84836 0.9 0 0.84836 0.85 0 
0.84836 0.8 0 0.84836 0.75 0 0.84836 0.7 0 
0.84836 0.65 0 0.84836 0.6 0 0.84836 0.55 0 
0.84836 0.5 0 0.84836 0.45 0 0.84836 0.4 0 
0.84836 0.35 0 0.84836 0.3 0 0.84836 0.25 0 
0.84836 0.2 0 0.84836 0.15 0 0.84836 0.1 0 
0.84836 0.05 0 0.84836 0 0 0.898144 1.5 0 
0.898144 1.45 0 0.898144 1.4 0 0.898144 1.35 0 
0.898144 1.3 0 0.898144 1.25 0 0.898144 1.2 0 
0.898144 1.15 0 0.898144 1.1 0 0.898144 1.05 0 
0.898144 1 0 0.898144 0.95 0 0.898144 0.9 0 
0.898144 0.85 0 0.898144 0.8 0 0.898144 0.75 0 
0.898144 0.7 0 0.898144 0.65 0 0.898144 0.6 0 
0.898144 0.55 0 0.898144 0.5 0 0.898144 0.45 0 
0.898144 0.4 0 0.898144 0.35 0 0.898144 0.3 0 
0.898144 0.25 0 0.898144 0.2 0 0.898144 0.15 0 
0.898144 0.1 0 0.898144 0.05 0 0.898144 0 0 
0.947928 1.5 0 0.947928 1.45 0 0.947928 1.4 0 
0.947928 1.35 0 0.947928 1.3 0 0.947928 1.25 0 
0.947928 1.2 0 0.947928 1.15 0 0.947928 1.1 0 
0.947928 1.05 0 0.947928 1 0 0.947928 0.95 0 
0.947928 0.9 0 0.947928 0.85 0 0.947928 0.8 0 
0.947928 0.75 0 0.947928 0.7 0 0.947928 0.65 0 
0.947928 0.6 0 0.947928 0.55 0 0.947928 0.5 0 
0.947928 0.45 0 0.947928 0.4 0 0.947928 0.35 0 
0.947928 0.3 0 0.947928 0.25 0 0.947928 0.2 0 
0.947928 0.15 0 0.947928 0.1 0 0.947928 0.05 0 
0.947928 0 0 0.997712 1.5 0 0.997712 1.45 0 
0.997712 1.4 0 0.997712 1.35 0 0.997712 1.3 0 
0.997712 1.25 0 0.997712 1.2 0 0.997712 1.15 0 
0.997712 1.1 0 0.997712 1.05 0 0.997712 1 0 
0.997712 0.95 0 0.997712 0.9 0 0.997712 0.85 0 
0.997712 0.8 0 0.997712 0.75 0 0.997712 0.7 0 
0.997712 0.65 0 0.997712 0.6 0 0.997712 0.55 0 
0.997712 0.5 0 0.997712 0.45 0 0.997712 0.4 0 
0.997712 0.35 0 0.997712 0.3 0 0.997712 0.25 0 
0.997712 0.2 0 0.997712 0.15 0 0.997712 0.1 0 
0.997712 0.05 0 0.997712 0 0 1.047496 1.5 0 
1.047496 1.45 0 1.047496 1.4 0 1.047496 1.35 0 
1.047496 1.3 0 1.047496 1.25 0 1.047496 1.2 0 
1.047496 1.15 0 1.047496 1.1 0 1.047496 1.05 0 
1.047496 1 0 1.047496 0.95 0 1.047496 0.9 0 
1.047496 0.85 0 1.047496 0.8 0 1.047496 0.75 0 
1.047496 0.7 0 1.047496 0.65 0 1.047496 0.6 0 
1.047496 0.55 0 1.047496 0.5 0 1.047496 0.45 0 
1.047496 0.4 0 1.047496 0.35 0 1.047496 0.3 0 
1.047496 0.25 0 1.047496 0.2 0 1.047496 0.15 0 
[...]
CELL_DATA 9270
FIELD FieldData 7
B_Stress_n_p_m2 1 9270 float
0.516556 0.56935 0.579411 0.583013 0.586645 0.591221 0.597067 0.604396 0.613494 
0.624637 0.6378 0.650842 0.660338 0.669049 0.639542 0.418551 0.248808 0.168725 
0.125369 0.0977754 0.0795648 0.067003 0.0581488 0.0518788 0.0474926 0.0444906 0.0423784 
0.0403593 0.037167 0.0355468 0.482664 0.534289 0.543516 0.54572 0.54733 0.549122 
0.551244 0.553572 0.555964 0.558081 0.559109 0.557058 0.550013 0.534665 0.484187 
0.367582 0.264749 0.194632 0.146694 0.112752 0.0881677 0.0700595 0.0566029 0.0465883 
0.0391441 0.0335512 0.0288988 0.0245414 0.0163221 0.0106034 0.45331 0.503997 0.512617 
0.513759 0.513814 0.51352 0.512916 0.511722 0.509593 0.505925 0.499693 0.489261 
0.47293 0.446564 0.397356 0.322376 0.254156 0.200885 0.160258 0.129489 0.106191 
0.088497 0.0750221 0.0647118 0.0566888 0.0501082 0.0439324 0.0369405 0.027619 0.0141811 
0.425251 0.475125 0.48325 0.483499 0.482247 0.480242 0.477463 0.473569 0.46815 
0.460559 0.449864 0.434799 0.41389 0.384364 0.341953 0.289483 0.239601 0.197386 
0.16316 0.135999 0.114671 0.0980119 0.0850123 0.0747879 0.0664901 0.0591968 0.0517323 
0.0426911 0.030573 0.0148897 0.399065 0.448263 0.456038 0.455606 0.453359 0.450086 
0.445756 0.440033 0.432537 0.42271 0.409846 0.393087 0.371474 0.343647 0.30861 
0.269025 0.23066 0.196576 0.167651 0.143775 0.124399 0.108839 0.0963834 0.0863115 
0.0778347 0.0700135 0.0616046 0.0511278 0.0371442 0.0192025 0.37481 0.423454 0.431011 
0.430094 0.427132 0.422982 0.417625 0.410765 0.402092 0.391171 0.377514 0.360583 
0.339857 0.314851 0.285695 0.254256 0.223498 0.19536 0.170707 0.149732 0.132241 
0.117846 0.106053 0.0962788 0.0878074 0.0797128 0.0707114 0.0592575 0.0437103 0.0237477 
0.35252 0.400719 0.408174 0.406944 0.403514 0.398814 0.392856 0.385398 0.376208 
0.364974 0.351386 0.335144 0.316029 0.293985 0.269439 0.243651 0.218309 0.194684 
0.173495 0.155027 0.139267 0.12601 0.11492 0.105534 0.0972158 0.089081 0.079831 
0.0678445 0.0511816 0.0292693 0.332168 0.380011 0.38746 0.386063 0.382366 0.377378 
0.371144 0.36348 0.354225 0.34317 0.330136 0.314983 0.297669 0.278324 0.257395 
0.235745 0.214424 0.194296 0.175927 0.159607 0.145409 0.133239 0.122872 0.113946 
0.105908 0.0979267 0.0887031 0.0765194 0.0590577 0.0352498 0.313685 0.361244 0.368763 
0.367313 0.363506 0.35843 0.352158 0.344562 0.335538 0.324955 0.312728 0.298815 
0.28327 0.266282 0.248245 0.229768 0.211549 0.194195 0.178149 0.163672 0.150872 
0.139722 0.130078 0.12166 0.113995 0.106317 0.0973329 0.0852202 0.0672354 0.0416203 
0.296971 0.344303 0.351948 0.350532 0.346734 0.341714 0.335572 0.328224 0.319612 
0.309663 0.298351 0.285693 0.271785 0.256827 0.241143 0.225179 0.209422 0.194316 
0.180205 0.167316 0.155766 0.145567 0.136631 0.128749 0.12152 0.114247 0.105653 
0.0938086 0.0755217 0.0482004 0.28191 0.329057 0.336866 0.335548 0.331844 0.32698 
0.321079 0.314093 0.305995 0.296753 0.286379 0.274921 0.262493 0.249278 0.235541 
0.221617 0.207864 0.194613 0.182135 0.170622 0.160189 0.150872 0.142622 0.135286 
0.128531 0.121726 0.113621 0.102186 0.0837772 0.0548659 0.268378 0.315371 0.323367 
0.322188 0.318636 0.313995 0.308403 0.301842 0.294306 0.285791 0.276331 0.265989 
0.25488 0.243166 0.231064 0.218831 0.20674 0.195043 0.183958 0.173647 0.164217 
0.155716 0.148123 0.141331 0.135064 0.12876 0.121199 0.110267 0.0918819 0.0615031 
0.256246 0.303105 0.311299 0.310287 0.306925 0.302546 0.297301 0.291193 0.284233 
0.276431 0.267836 0.258514 0.248575 0.23816 0.227447 0.216639 0.205947 0.195572 
0.185688 0.176434 0.167906 0.160158 0.15319 0.146928 0.141149 0.135355 0.128362 
0.11799 0.099743 0.0680225 0.245389 0.292127 0.300521 0.29969 0.296538 0.292442 
0.28756 0.281912 0.275517 0.268397 0.260604 0.252207 0.243304 0.234019 0.224499 
0.214906 0.20541 0.196172 0.187333 0.179013 0.171298 0.164244 0.157866 0.152116 
0.146812 0.141518 0.135096 0.125313 0.107291 0.0743535 0.235689 0.282312 0.290898 
0.290253 0.287321 0.283515 0.278997 0.2738 0.267946 0.261465 0.25441 0.246846 
0.238863 0.230566 0.222079 0.213534 0.205071 0.196818 0.188897 0.181406 0.174427 
0.168012 0.162186 0.156922 0.152075 0.147262 0.141395 0.132208 0.114478 0.0804442 
0.227032 0.273541 0.282309 0.281847 0.279137 0.275618 0.271454 0.266689 0.261346 
0.255458 0.249076 0.242262 0.235094 0.227665 0.22008 0.212447 0.204882 0.197493 
0.190381 0.183632 0.177317 0.17149 0.166179 0.161374 0.156958 0.152599 0.147261 
0.138663 0.121272 0.0862586 0.219316 0.265707 0.274642 0.274357 0.271864 0.268622 
0.264798 0.26044 0.255573 0.25023 0.244459 0.238318 0.231877 0.225214 0.21842 
0.211587 0.20481 0.198181 0.191787 0.185701 0.179989 0.174702 0.169869 0.165493 
0.161481 0.157545 0.152704 0.144677 0.127657 0.0917738 0.212446 0.258712 0.267796 
0.267679 0.265394 0.262416 0.258912 0.254935 0.250507 0.245663 0.240447 0.23491 
0.229115 0.223131 0.217035 0.210907 0.204825 0.19887 0.193115 0.187626 0.18246 
0.177666 0.173275 0.169298 0.165661 0.162117 0.157739 0.150255 0.133628 0.0969781 
0.206335 0.252468 0.261682 0.261721 0.259632 0.256903 0.253697 0.250074 0.24605 
0.241661 0.236945 0.231951 0.226733 0.221353 0.215876 0.210371 0.204907 0.199551 
0.194367 0.189414 0.184744 0.180401 0.176417 0.17281 0.169519 0.166334 0.162381 
0.155412 0.139188 0.101868 0.200907 0.246895 0.256219 0.2564 0.254497 0.251998 
0.249071 0.245772 0.242118 0.238141 0.233878 0.229372 0.224671 0.219829 0.214903 
0.209952 0.205036 0.200215 0.195543 0.191074 0.186852 0.182922 0.179312 0.176045 
0.173073 0.170215 0.166652 0.160164 0.144349 0.106447 0.196089 0.241921 0.251335 
0.251646 0.249914 0.24763 0.244959 0.241958 0.238641 0.235039 0.231185 0.227117 
0.222879 0.218517 0.214082 0.209626 0.2052 0.200857 0.196646 0.192612 0.188798 
0.185243 0.181976 0.179021 0.17634 0.17378 0.170571 0.164533 0.149125 0.110724 
0.191821 0.237484 0.246968 0.247395 0.245821 0.243735 0.241298 0.23857 0.23556 
0.232298 0.228813 0.225139 0.221316 0.217384 0.213389 0.209375 0.205388 0.201474 
0.197676 0.194035 0.19059 0.187377 0.184424 0.181755 0.17934 0.177049 0.174162 
0.168541 0.153535 0.11471 0.188045 0.233525 0.243061 0.24359 0.242162 0.240257 
0.238036 0.235556 0.232824 0.22987 0.226718 0.2234 0.219949 0.216403 0.212801 
0.209184 0.20559 0.202061 0.198636 0.19535 0.19224 0.189338 0.18667 0.184262 
0.182089 0.180042 0.177447 0.172211 0.1576 0.11842 0.184711 0.229995 0.239563 
0.240183 0.238888 0.237149 0.235124 0.23287 0.230392 0.227716 0.224864 0.221866 
0.21875 0.215551 0.212303 0.20904 0.2058 0.202618 0.199528 0.196564 0.193757 
0.191137 0.188729 0.186559 0.184606 0.182778 0.180446 0.175567 0.161341 0.121869 
0.181775 0.226849 0.236432 0.23713 0.235956 0.234369 0.232523 0.230474 0.228225 
0.225802 0.223221 0.220511 0.217697 0.214809 0.211878 0.208936 0.206013 0.203143 
0.200355 0.197681 0.195149 0.192786 0.190614 0.18866 0.186908 0.185277 0.183182 
0.178631 0.16478 0.125074 0.179196 0.224045 0.233626 0.234392 0.233329 0.231879 
0.230196 0.228334 0.226293 0.224097 0.221762 0.219311 0.216769 0.214162 0.211516 
0.208861 0.206225 0.203636 0.201121 0.198709 0.196425 0.194295 0.192338 0.19058 
0.189009 0.187556 0.185675 0.181426 0.167939 0.128053 0.176937 0.221548 0.231113 
0.231936 0.230972 0.229648 0.228113 0.22642 0.224568 0.222578 0.220463 0.218247 
0.21595 0.213595 0.211207 0.208811 0.206432 0.204096 0.201828 0.199653 0.197594 
0.195674 0.193912 0.192333 0.190925 0.189633 0.187945 0.183974 0.170839 0.13082 
0.174968 0.219326 0.22886 0.229731 0.228857 0.227647 0.226247 0.224707 0.223025 
0.221221 0.219307 0.217302 0.215225 0.213098 0.210942 0.208779 0.206632 0.204525 
0.20248 0.200519 0.198663 0.196934 0.195349 0.193931 0.192672 0.191523 0.190009 
0.186294 0.1735 0.133394 0.173259 0.217351 0.22684 0.22775 0.226958 0.225851 
0.224573 0.223173 0.221645 0.220009 0.218275 0.216462 0.214584 0.212662 0.210714 
0.208762 0.206825 0.204924 0.20308 0.201313 0.19964 0.198084 0.196659 0.195388 
0.194262 0.193242 0.191885 0.188407 0.175942 0.135789 0.171784 0.215597 0.225029 
0.22597 0.225252 0.224238 0.223072 0.221797 0.220409 0.218925 0.217354 0.215713 
0.214015 0.212278 0.210518 0.208756 0.207008 0.205294 0.203631 0.202038 0.200533 
0.199133 0.197853 0.196713 0.195709 0.194805 0.193589 0.190329 0.178184 0.138021 
0.170521 0.214041 0.223406 0.224371 0.223718 0.222789 0.221723 0.220562 0.219301 
0.217955 0.216531 0.215045 0.213509 0.211939 0.21035 0.208759 0.207181 0.205635 
0.204136 0.202702 0.201346 0.200088 0.198939 0.197919 0.197024 0.196225 0.195135 
0.192077 0.180242 0.140103 0.169449 0.212663 0.22195 0.222932 0.222339 0.221486 
0.220512 0.219454 0.218307 0.217085 0.215795 0.214449 0.213059 0.21164 0.210204 
0.208768 0.207345 0.20595 0.204599 0.203307 0.202088 0.200958 0.199927 0.199015 
0.198219 0.197513 0.196539 0.193667 0.182132 0.142048 0.16855 0.211445 0.220644 
0.221638 0.221098 0.220315 0.219423 0.218458 0.217414 0.216305 0.215135 0.213916 
0.212659 0.211376 0.210079 0.208782 0.207497 0.20624 0.205023 0.20386 0.202763 
0.201749 0.200825 0.200011 0.199304 0.198683 0.197811 0.195113 0.183869 0.14387 
0.167806 0.21037 0.219473 0.220473 0.219981 0.219261 0.218443 0.217563 0.216613 
0.215605 0.214544 0.21344 0.212302 0.211142 0.20997 0.208799 0.20764 0.206507 
0.20541 0.204364 0.203378 0.202468 0.201641 0.200915 0.200289 0.199743 0.198965 
0.196428 0.185467 0.145579 0.167203 0.209425 0.218424 0.219425 0.218975 0.218312 
0.217562 0.216758 0.215893 0.214977 0.214014 0.213014 0.211983 0.210934 0.209875 
0.208818 0.207773 0.206751 0.205764 0.204822 0.203937 0.203121 0.202382 0.201736 
0.201182 0.200705 0.200011 0.197624 0.186939 0.147186 0.166728 0.208594 0.217484 
0.218482 0.218069 0.217457 0.216769 0.216034 0.215246 0.214413 0.213539 0.212632 
0.211699 0.21075 0.209793 0.208838 0.207895 0.206975 0.206086 0.20524 0.204445 
0.203714 0.203054 0.20248 0.201992 0.201576 0.200959 0.198711 0.188295 0.148701 
0.166368 0.207868 0.216641 0.217633 0.217254 0.216688 0.216056 0.215383 0.214664 
0.213906 0.213112 0.212289 0.211445 0.210586 0.209721 0.208859 0.208009 0.20718 
0.20638 0.20562 0.204907 0.204253 0.203664 0.203155 0.202726 0.202365 0.201818 
0.1997 0.189547 0.150133 0.166114 0.207235 0.215886 0.216868 0.216519 0.215995 
0.215413 0.214797 0.21414 0.21345 0.212728 0.211982 0.211217 0.21044 0.209659 
0.208881 0.208114 0.207367 0.206648 0.205965 0.205326 0.204742 0.204218 0.203767 
0.203391 0.20308 0.202596 0.2006 0.190704 0.151489 0.165954 0.206687 0.21521 
0.216179 0.215856 0.21537 0.214834 0.214269 0.213669 0.21304 0.212384 0.211707 
0.211013 0.210311 0.209604 0.208902 0.208211 0.207538 0.206891 0.206278 0.205707 
0.205185 0.204719 0.204321 0.203993 0.203727 0.2033 0.201419 0.191775 0.152778 
0.165881 0.206213 0.214605 0.215559 0.215259 0.214808 0.214312 0.213793 0.213244 
0.212671 0.212074 0.21146 0.210831 0.210195 0.209557 0.208923 0.208299 0.207694 
0.207113 0.206563 0.206052 0.205587 0.205173 0.204824 0.204539 0.204313 0.203938 
0.202165 0.192767 0.154006 0.165886 0.205808 0.214065 0.215001 0.214721 0.2143 
0.213842 0.213365 0.212862 0.212339 0.211796 0.211237 0.210668 0.210092 0.209515 
0.208943 0.208381 0.207836 0.207314 0.206822 0.206365 0.205951 0.205585 0.205279 
0.205033 0.204843 0.204516 0.202845 0.193689 0.15518 0.165962 0.205464 0.213582 
0.214498 0.214237 0.213843 0.213419 0.212979 0.212518 0.21204 0.211546 0.211038 
0.210521 0.21 0.209478 0.208962 0.208456 0.207966 0.207497 0.207057 0.206649 
0.206281 0.205958 0.20569 0.20548 0.205323 0.205038 0.203464 0.194547 0.156306 
0.166098 0.205178 0.213151 0.214045 0.213799 0.213431 0.213037 0.212631 0.212209 
0.211771 0.21132 0.210859 0.21039 0.209917 0.209446 0.20898 0.208524 0.208084 
0.207664 0.207269 0.206906 0.20658 0.206296 0.206063 0.205884 0.205757 0.205512 
0.204029 0.195346 0.157388 0.166288 0.204948 0.212767 0.213637 0.213405 0.213059 
0.212693 0.212318 0.211929 0.211529 0.211118 0.210698 0.210272 0.209844 0.209418 
0.208997 0.208587 0.208191 0.207814 0.207462 0.207139 0.206851 0.206601 0.206401 
0.20625 0.20615 0.205941 0.204544 0.196092 0.158431 0.166527 0.204766 0.212425 
0.213269 0.21305 0.212724 0.212383 0.212036 0.211678 0.211311 0.210935 0.210553 
0.210166 0.209778 0.209393 0.209014 0.208644 0.208289 0.207951 0.207637 0.20735 
0.207096 0.206878 0.206706 0.206581 0.206505 0.206329 0.205014 0.196791 0.15944 
0.166811 0.20463 0.21212 0.212939 0.21273 0.212422 0.212103 0.211781 0.211452 
0.211115 0.210771 0.210422 0.210071 0.20972 0.209371 0.209029 0.208696 0.208377 
0.208076 0.207796 0.207541 0.207318 0.207129 0.206982 0.206881 0.206826 0.20668 
0.205444 0.197447 0.160419 0.167136 0.204532 0.211851 0.212641 0.212441 0.21215 
0.211851 0.211552 0.211248 0.210938 0.210623 0.210305 0.209986 0.209667 0.209352 
0.209043 0.208744 0.208458 0.208189 0.20794 0.207715 0.207519 0.207355 0.207232 
0.207152 0.207117 0.206999 0.205837 0.198062 0.161372 0.167498 0.204468 0.211613 
0.212373 0.212181 0.211905 0.211624 0.211346 0.211064 0.210779 0.210491 0.2102 
0.209909 0.20962 0.209335 0.209057 0.208788 0.208532 0.208291 0.20807 0.207872 
0.207701 0.207561 0.207459 0.207397 0.20738 0.207287 0.206196 0.198643 0.1623 
0.167896 0.204436 0.211404 0.212133 0.211946 0.211683 0.21142 0.211159 0.210898 
0.210635 0.210371 0.210105 0.209841 0.209578 0.20932 0.209069 0.208827 0.208598 
0.208384 0.208188 0.208014 0.207866 0.207746 0.207663 0.207619 0.207617 0.207548 
0.206525 0.199191 0.163209 0.168325 0.204431 0.21122 0.211916 0.211735 0.211484 
0.211235 0.210992 0.210749 0.210506 0.210263 0.21002 0.209779 0.209541 0.209307 
0.209081 0.208864 0.208659 0.208468 0.208295 0.208142 0.208015 0.207914 0.207848 
0.20782 0.207832 0.207784 0.206827 0.199709 0.1641 0.168784 0.204451 0.211059 
0.211721 0.211545 0.211304 0.211069 0.210841 0.210615 0.21039 0.210166 0.209944 
0.209724 0.209507 0.209296 0.209092 0.208897 0.208714 0.208544 0.208392 0.208259 
0.20815 0.208066 0.208016 0.208001 0.208027 0.207998 0.207103 0.2002 0.164975 
0.169271 0.204493 0.210919 0.211546 0.211373 0.211142 0.210919 0.210704 0.210494 
0.210285 0.210079 0.209875 0.209674 0.209477 0.209286 0.209102 0.208927 0.208764 
0.208614 0.20848 0.208365 0.208272 0.208204 0.208167 0.208165 0.208202 0.208192 
0.207357 0.200668 0.165838 0.169783 0.204555 0.210796 0.211389 0.211218 0.210997 
0.210784 0.210582 0.210385 0.210191 0.210001 0.209813 0.20963 0.20945 0.209277 
0.209111 0.208955 0.208809 0.208676 0.20856 0.20846 0.208382 0.208328 0.208304 
0.208313 0.208361 0.208368 0.207591 0.201113 0.166689 0.170319 0.204634 0.21069 
0.211248 0.211079 0.210865 0.210663 0.210471 0.210287 0.210106 0.20993 0.209758 
0.20959 0.209426 0.20927 0.20912 0.20898 0.20885 0.208733 0.208632 0.208547 
0.208483 0.208441 0.208428 0.208448 0.208505 0.208527 0.207806 0.201537 0.167532 
0.170878 0.204729 0.210599 0.211121 0.210954 0.210747 0.210554 0.210372 0.210199 
0.21003 0.209867 0.209708 0.209554 0.209405 0.209263 0.209128 0.209003 0.208888 
0.208785 0.208697 0.208625 0.208573 0.208543 0.208541 0.208569 0.208635 0.208671 
0.208003 0.201943 0.168367 0.171457 0.204837 0.21052 0.211008 0.210841 0.21064 
0.210455 0.210282 0.210119 0.209962 0.20981 0.209663 0.209522 0.209386 0.209257 
0.209136 0.209024 0.208922 0.208832 0.208756 0.208696 0.208655 0.208635 0.208642 
0.208679 0.208753 0.208802 0.208185 0.202332 0.169196 0.172057 0.204958 0.210453 
0.210906 0.210739 0.210544 0.210366 0.210202 0.210048 0.2099 0.209759 0.209623 
0.209493 0.209369 0.209252 0.209143 0.209043 0.208953 0.208875 0.20881 0.20876 
0.20873 0.208718 0.208734 0.208778 0.208859 0.20892 0.208353 0.202706 0.170021 
0.172675 0.205089 0.210397 0.210814 0.210647 0.210457 0.210287 0.210129 0.209983 
0.209844 0.209713 0.209587 0.209468 0.209354 0.209248 0.20915 0.209061 0.208981 
0.208913 0.208859 0.208819 0.208797 0.208794 0.208817 0.208868 0.208956 0.209028 
0.208509 0.203065 0.170843 0.173311 0.205229 0.210349 0.210732 0.210565 0.21038 
0.210215 0.210064 0.209926 0.209795 0.209672 0.209555 0.209445 0.209341 0.209245 
0.209156 0.209077 0.209007 0.208948 0.208903 0.208872 0.208858 0.208863 0.208892 
0.208949 0.209043 0.209125 0.208652 0.203411 0.171662 0.173965 0.205378 0.210309 
0.210658 0.210491 0.21031 0.21015 0.210006 0.209874 0.20975 0.209635 0.209526 
0.209424 0.209329 0.209242 0.209162 0.209091 0.209031 0.20898 0.208943 0.20892 
0.208913 0.208925 0.208961 0.209023 0.209122 0.209213 0.208784 0.203745 0.172481 
0.174634 0.205534 0.210277 0.210592 0.210424 0.210247 0.210092 0.209953 0.209827 
0.20971 0.209602 0.2095 0.209406 0.209319 0.209239 0.209168 0.209105 0.209052 
0.20901 0.20898 0.208963 0.208963 0.208981 0.209022 0.20909 0.209193 0.209294 
0.208907 0.204067 0.1733 0.175319 0.205695 0.210251 0.210533 0.210364 0.21019 
0.21004 0.209906 0.209785 0.209674 0.209572 0.209477 0.20939 0.20931 0.209237 
0.209173 0.209118 0.209072 0.209036 0.209013 0.209003 0.209009 0.209032 0.209078 
0.20915 0.209258 0.209366 0.209021 0.204379 0.174119 0.176018 0.205862 0.21023 
0.210481 0.21031 0.210139 0.209993 0.209863 0.209748 0.209642 0.209546 0.209456 
0.209376 0.209302 0.209236 0.209178 0.209129 0.20909 0.20906 0.209043 0.209039 
0.20905 0.209078 0.209129 0.209205 0.209316 0.209432 0.209126 0.204681 0.17494 
0.176732 0.206032 0.210214 0.210433 0.210262 0.210094 0.209951 0.209825 0.209714 
0.209613 0.209522 0.209438 0.209363 0.209295 0.209235 0.209183 0.20914 0.209106 
0.209082 0.209071 0.209071 0.209088 0.20912 0.209175 0.209254 0.209369 0.209492 
0.209224 0.204974 0.175764 0.17746 0.206207 0.210203 0.210391 0.210219 0.210053 
0.209913 0.209791 0.209684 0.209587 0.209501 0.209422 0.209352 0.209289 0.209234 
0.209188 0.20915 0.209121 0.209103 0.209096 0.209101 0.209122 0.209158 0.209217 
0.209299 0.209417 0.209546 0.209314 0.205258 0.176591 0.178202 0.206383 0.210195 
0.210353 0.21018 0.210016 0.20988 0.209761 0.209657 0.209564 0.209482 0.209408 
0.209342 0.209284 0.209234 0.209192 0.209159 0.209135 0.209121 0.209119 0.209128 
0.209153 0.209193 0.209255 0.20934 0.209461 0.209595 0.209399 0.205533 0.177422 
0.178956 0.206562 0.21019 0.210319 0.210145 0.209983 0.209849 0.209733 0.209633 
0.209544 0.209465 0.209395 0.209333 0.209279 0.209234 0.209196 0.209167 0.209148 
0.209138 0.209139 0.209153 0.209181 0.209224 0.209289 0.209377 0.2095 0.20964 
0.209477 0.205801 0.178256 0.179723 0.206742 0.210188 0.210289 0.210113 0.209953 
0.209822 0.209709 0.209612 0.209526 0.209451 0.209384 0.209326 0.209276 0.209234 
0.209201 0.209176 0.20916 0.209154 0.209159 0.209175 0.209206 0.209253 0.20932 
0.209411 0.209536 0.209681 0.209549 0.206061 0.179096 0.180503 0.206923 0.210188 
0.210262 0.210085 0.209927 0.209798 0.209687 0.209593 0.209509 0.209437 0.209374 
0.209319 0.209273 0.209235 0.209205 0.209183 0.209171 0.209168 0.209176 0.209196 
0.20923 0.209279 0.209349 0.209441 0.209569 0.209718 0.209617 0.206314 0.179942 
0.181295 0.207103 0.21019 0.210238 0.21006 0.209903 0.209777 0.209668 0.209576 
0.209495 0.209426 0.209365 0.209314 0.209271 0.209235 0.209209 0.20919 0.209181 
0.209181 0.209192 0.209214 0.209251 0.209302 0.209375 0.209469 0.209598 0.209751 
0.20968 0.20656 0.180793 0.182099 0.207284 0.210193 0.210216 0.210038 0.209882 
0.209757 0.20965 0.209561 0.209483 0.209416 0.209358 0.209309 0.209269 0.209237 
0.209213 0.209197 0.209191 0.209193 0.209207 0.209232 0.209271 0.209324 0.209398 
0.209494 0.209625 0.209781 0.209738 0.206799 0.18165 0.182915 0.207464 0.210198 
0.210197 0.210018 0.209863 0.20974 0.209635 0.209548 0.209472 0.209407 0.209352 
0.209306 0.209268 0.209238 0.209216 0.209204 0.2092 0.209205 0.209221 0.209248 
0.209289 0.209344 0.20942 0.209517 0.209649 0.209809 0.209792 0.207032 0.182514 
0.183743 0.207642 0.210204 0.21018 0.21 0.209847 0.209725 0.209622 0.209536 
0.209462 0.2094 0.209347 0.209303 0.209267 0.20924 0.20922 0.20921 0.209208 
0.209215 0.209234 0.209262 0.209305 0.209362 0.209439 0.209538 0.209671 0.209834 
0.209842 0.207258 0.183385 0.184582 0.207819 0.21021 0.210164 0.209984 0.209832 
0.209712 0.20961 0.209526 0.209454 0.209393 0.209342 0.2093 0.209267 0.209241 