# vtk DataFile Version 5.1
vtk output
ASCII
DATASET UNSTRUCTURED_GRID
POINTS 10043 double
-10.1 1.4499999993 7.5966234192e-08 -10.049999999 1.4499999993 9.0079772974e-08 -10.049999999 1.5 -3.5011566979e-07 
-9.9999999985 1.4499999993 9.3647720689e-08 -9.9999999985 1.5 -3.5856669456e-07 -9.9499999978 1.4499999993 9.382780064e-08 
-9.9499999978 1.5 -3.5875314097e-07 -9.899999997 1.4499999993 9.331120765e-08 -9.899999997 1.5 -3.5646758079e-07 
-9.8499999963 1.4499999993 9.2503576354e-08 -9.8499999963 1.5 -3.5344780258e-07 -9.7999999955 1.4499999993 9.1680483649e-08 
-9.7999999955 1.5 -3.5018115341e-07 -9.7499999948 1.4499999993 9.0857390944e-08 -9.7499999948 1.5 -3.4689878703e-07 
-9.699999994 1.4499999993 9.0027931776e-08 -9.699999994 1.5 -3.438146905e-07 -9.6499999933 1.4499999993 8.9220300481e-08 
-9.6499999933 1.5 -3.4090248846e-07 -9.5999999925 1.4499999993 8.8516351582e-08 -9.5999999925 1.5 -3.3815035749e-07 
-9.5499999918 1.4499999993 8.785242045e-08 -9.5499999918 1.5 -3.3557103052e-07 -9.4999999911 1.4499999993 8.7279438787e-08 
-9.4999999911 1.5 -3.3324545257e-07 -9.4499999903 1.4499999993 8.6665529864e-08 -9.4499999903 1.5 -3.3107176023e-07 
-9.3999999896 1.4499999993 8.6117104559e-08 -9.3999999896 1.5 -3.2906632441e-07 -9.3499999888 1.4499999993 8.5657809734e-08 
-9.3499999888 1.5 -3.2721277421e-07 -9.2999999881 1.4499999993 8.5206700362e-08 -9.2999999881 1.5 -3.2556749829e-07 
-9.2499999873 1.4499999993 8.4829260061e-08 -9.2499999873 1.5 -3.2402954275e-07 -9.1999999866 1.4499999993 8.4430901381e-08 
-9.1999999866 1.5 -3.2260373928e-07 -9.1499999858 1.4499999993 8.4100754805e-08 -9.1499999858 1.5 -3.2135199035e-07 
-9.0999999851 1.4499999993 8.3799712058e-08 -9.0999999851 1.5 -3.2018965612e-07 -9.0499999844 1.4499999993 8.3531411121e-08 
-9.0499999844 1.5 -3.1909644349e-07 -8.9999999836 1.4499999993 8.3297670983e-08 -8.9999999836 1.5 -3.1820422919e-07 
-8.9499999829 1.4499999993 8.3090306191e-08 -8.9499999829 1.5 -3.1739614315e-07 -8.8999999821 1.4499999993 8.2907952503e-08 
-8.8999999821 1.5 -3.1667627809e-07 -8.8499999814 1.4499999993 8.2735603257e-08 -8.8499999814 1.5 -3.1606646189e-07 
-8.7999999806 1.4499999993 8.2584627137e-08 -8.7999999806 1.5 -3.1549711821e-07 -8.7499999799 1.4499999993 8.2456843131e-08 
-8.7499999799 1.5 -3.1508147913e-07 -8.6999999791 1.4499999993 8.2434560511e-08 -8.6999999791 1.5 -3.1484501051e-07 
-8.6499999784 1.4499999993 8.2303138527e-08 -8.6499999784 1.5 -3.1456670513e-07 -8.5999999776 1.4499999993 8.2261756518e-08 
-8.5999999776 1.5 -3.1429249248e-07 -8.5499999769 1.4499999993 8.2229014708e-08 -8.5499999769 1.5 -3.1411559576e-07 
-8.4999999762 1.4499999993 8.2215827035e-08 -8.4999999762 1.5 -3.1406284506e-07 -8.4499999754 1.4499999993 8.2217646025e-08 
-8.4499999754 1.5 -3.1402009881e-07 -8.3999999747 1.4499999993 8.2206732088e-08 -8.3999999747 1.5 -3.1407694223e-07 
-8.3499999739 1.4499999993 8.2272215707e-08 -8.3499999739 1.5 -3.1421063795e-07 -8.2999999732 1.4499999993 8.2299500548e-08 
-8.2999999732 1.5 -3.1443755688e-07 -8.2499999724 1.4499999993 8.2368167398e-08 -8.2499999724 1.5 -3.1465401662e-07 
-8.1999999717 1.4499999993 8.2463209594e-08 -8.1999999717 1.5 -3.1499075703e-07 -8.1499999709 1.4499999993 8.2572348958e-08 
-8.1499999709 1.5 -3.1535932976e-07 -8.0999999702 1.4499999993 8.2687854785e-08 -8.0999999702 1.5 -3.1583817872e-07 
-8.0499999695 1.4499999993 8.2818367275e-08 -8.0499999695 1.5 -3.1633112485e-07 -7.9999999687 1.4499999993 8.2925232903e-08 
-7.9999999687 1.5 -3.1694867175e-07 -7.949999968 1.4499999993 8.3078937507e-08 -7.949999968 1.5 -3.1757213037e-07 
-7.8999999672 1.4499999993 8.3319498856e-08 -7.8999999672 1.5 -3.1826061786e-07 -7.8499999665 1.4499999993 8.3490029112e-08 
-7.8499999665 1.5 -3.1906733966e-07 -7.7999999657 1.4499999993 8.3715129051e-08 -7.7999999657 1.5 -3.1988679439e-07 
-7.749999965 1.4499999993 8.393340778e-08 -7.749999965 1.5 -3.2079219636e-07 -7.6999999642 1.4499999993 8.420625619e-08 
-7.6999999642 1.5 -3.2170942177e-07 -7.6499999635 1.4499999993 8.448092359e-08 -7.6499999635 1.5 -3.2271259442e-07 
-7.5999999627 1.4499999993 8.4725122917e-08 -7.5999999627 1.5 -3.2385946724e-07 -7.549999962 1.4499999993 8.5042991316e-08 
-7.549999962 1.5 -3.2493792901e-07 -7.4999999613 1.4499999993 8.5367226177e-08 -7.4999999613 1.5 -3.2615366763e-07 
-7.4499999605 1.4499999993 8.5698736996e-08 -7.4499999605 1.5 -3.2743969314e-07 -7.3999999598 1.4499999993 8.6026155088e-08 
-7.3999999598 1.5 -3.2876982914e-07 -7.349999959 1.4499999993 8.6404050137e-08 -7.349999959 1.5 -3.3015089684e-07 
-7.2999999583 1.4499999993 8.6809230027e-08 -7.2999999583 1.5 -3.3164837987e-07 -7.2499999575 1.4499999993 8.7205769717e-08 
-7.2499999575 1.5 -3.3316632653e-07 -7.1999999568 1.4499999993 8.7597307186e-08 -7.1999999568 1.5 -3.3479159356e-07 
-7.149999956 1.4499999993 8.8083886851e-08 -7.149999956 1.5 -3.3646006159e-07 -7.0999999553 1.4499999993 8.8316262747e-08 
-7.0999999553 1.5 -3.3734545468e-07 -7.0499999546 1.4499999993 8.8747363236e-08 -7.0499999546 1.5 -3.3914989217e-07 
-6.9999999538 1.4499999993 8.9268048953e-08 -6.9999999538 1.5 -3.4105892155e-07 -6.9499999531 1.4499999993 8.9767361544e-08 
-6.9499999531 1.5 -3.4299614526e-07 -6.8999999523 1.4499999993 9.0306237155e-08 -6.8999999523 1.5 -3.4503023016e-07 
-6.8499999516 1.4499999993 9.0873761849e-08 -6.8499999516 1.5 -3.4719255382e-07 -6.7999999508 1.4499999993 9.14485625e-08 
-6.7999999508 1.5 -3.4943764149e-07 -6.7499999501 1.4499999993 9.2051557488e-08 -6.7499999501 1.5 -3.5176367419e-07 
-6.6999999493 1.4499999993 9.2712305388e-08 -6.6999999493 1.5 -3.5417792787e-07 -6.6499999486 1.4499999993 9.3384421973e-08 
-6.6499999486 1.5 -3.5672860577e-07 -6.5999999478 1.4499999993 9.4048353105e-08 -6.5999999478 1.5 -3.5937159737e-07 
-6.5499999471 1.4499999993 9.480277896e-08 -6.5499999471 1.5 -3.6212571786e-07 -6.4999999464 1.4499999993 9.5570847236e-08 
-6.4999999464 1.5 -3.6501728573e-07 -6.4499999456 1.4499999993 9.6319361376e-08 -6.4499999456 1.5 -3.6805818127e-07 
-6.3999999449 1.4499999993 9.7174286395e-08 -6.3999999449 1.5 -3.7122185859e-07 -6.3499999441 1.4499999993 9.8049675046e-08 
-6.3499999441 1.5 -3.7455788515e-07 -6.2999999434 1.4499999993 9.8934613391e-08 -6.2999999434 1.5 -3.7803897612e-07 
-6.2499999426 1.4499999993 9.9890492322e-08 -6.2499999426 1.5 -3.8169923755e-07 -6.1999999419 1.4499999993 1.0091140012e-07 
-6.1999999419 1.5 -3.8552889237e-07 -6.1499999411 1.4499999993 1.0198096589e-07 -6.1499999411 1.5 -3.8957841753e-07 
-6.0999999404 1.4499999993 1.030744059e-07 -6.0999999404 1.5 -3.9383076e-07 -6.0499999397 1.4499999993 1.0425402053e-07 
-6.0499999397 1.5 -3.9834958443e-07 -5.9999999389 1.4499999993 1.054868406e-07 -5.9999999389 1.5 -4.0310874283e-07 
-5.9499999382 1.4499999993 1.0681811347e-07 -5.9499999382 1.5 -4.0811096369e-07 -5.8999999374 1.4499999993 1.0820827612e-07 
-5.8999999374 1.5 -4.1346885382e-07 -5.8499999367 1.4499999993 1.0969529995e-07 -5.8499999367 1.5 -4.1916291593e-07 
-5.7999999359 1.4499999993 1.1128486932e-07 -5.7999999359 1.5 -4.2519650378e-07 -5.7499999352 1.4499999993 1.1297039038e-07 
-5.7499999352 1.5 -4.3161435315e-07 -5.6999999344 1.4499999993 1.1477323625e-07 -5.6999999344 1.5 -4.3853287934e-07 
-5.6499999337 1.4499999993 1.1671318845e-07 -5.6499999337 1.5 -4.4593593884e-07 -5.5999999329 1.4499999993 1.1880116091e-07 
-5.5999999329 1.5 -4.5386582315e-07 -5.5499999322 1.4499999993 1.1990779569e-07 -5.5499999322 1.5 -4.5806075377e-07 
-5.4999999315 1.4499999993 1.2221109102e-07 -5.4999999315 1.5 -4.6696231948e-07 -5.4499999307 1.4499999993 1.2472675337e-07 
-5.4499999307 1.5 -4.7660250857e-07 -5.39999993 1.4499999993 1.2747501899e-07 -5.39999993 1.5 -4.8703213906e-07 
-5.3499999292 1.4499999993 1.304417907e-07 -5.3499999292 1.5 -4.9841764849e-07 -5.2999999285 1.4499999993 1.3370119234e-07 
-5.2999999285 1.5 -5.1081974561e-07 -5.2499999277 1.4499999993 1.3725890824e-07 -5.2499999277 1.5 -5.2442396736e-07 
-5.199999927 1.4499999993 1.4118019465e-07 -5.199999927 1.5 -5.3940198086e-07 -5.1499999262 1.4499999993 1.4549529226e-07 
-5.1499999262 1.5 -5.5590521697e-07 -5.0999999255 1.4499999993 1.5028150813e-07 -5.0999999255 1.5 -5.7419379118e-07 
-5.0499999247 1.4499999993 1.5560796385e-07 -5.0499999247 1.5 -5.9451713241e-07 -4.999999924 1.4499999993 1.6155696869e-07 
-4.999999924 1.5 -6.1721380007e-07 -4.9499999233 1.4499999993 1.68220609e-07 -4.9499999233 1.5 -6.4265873334e-07 
-4.8999999225 1.4499999993 1.7572848776e-07 -4.8999999225 1.5 -6.7132066306e-07 -4.8499999218 1.4499999993 1.842186208e-07 
-4.8499999218 1.5 -7.0373766903e-07 -4.799999921 1.4499999993 1.9387563555e-07 -4.799999921 1.5 -7.4057629718e-07 
-4.7499999203 1.4499999993 2.0492826991e-07 -4.7499999203 1.5 -7.8267635217e-07 -4.6999999195 1.4499999993 2.1759707636e-07 
-4.6999999195 1.5 -8.3102236204e-07 -4.6499999188 1.4499999993 2.3224107792e-07 -4.6499999188 1.5 -8.8686806521e-07 
-4.599999918 1.4499999993 2.4927885534e-07 -4.599999918 1.5 -9.5177324511e-07 -4.5499999173 1.4499999993 2.6919815355e-07 
-4.5499999173 1.5 -1.0277037745e-06 -4.4999999166 1.4499999993 2.9266925594e-07 -4.4999999166 1.5 -1.11708232e-06 
-4.4499999158 1.4499999993 3.2050979826e-07 -4.4499999158 1.5 -1.2231273558e-06 -4.3999999151 1.4499999993 3.5382004171e-07 
-4.3999999151 1.5 -1.3499836768e-06 -4.3499999143 1.4499999993 3.940751867e-07 -4.3499999143 1.5 -1.5030591385e-06 
-4.2999999136 1.4499999993 4.4311843794e-07 -4.2999999136 1.5 -1.6895775161e-06 -4.2499999128 1.4499999993 5.0360745263e-07 
-4.2499999128 1.5 -1.9193489607e-06 -4.1999999121 1.4499999993 5.7909596762e-07 -4.1999999121 1.5 -2.2058982267e-06 
-4.1499999113 1.4499999993 6.7466055498e-07 -4.1499999113 1.5 -2.5682988962e-06 -4.0999999106 1.4499999993 7.9765379724e-07 
-4.0999999106 1.5 -3.0340597732e-06 -4.0499999098 1.4499999993 9.590269201e-07 -4.0499999098 1.5 -3.6440421809e-06 
-3.9999999091 1.4499999993 1.1756841332e-06 -3.9999999091 1.5 -4.4611479098e-06 -3.9499999084 1.4499999993 1.3126763179e-06 
[...]
CELL_DATA 9510
FIELD FieldData 4
Water_Depth_m 1 9510 float
0.759994 0.759981 0.759969 0.759959 0.75995 0.759944 0.75994 0.75994 0.759944 
0.759951 0.759963 0.759979 0.759998 0.760022 0.760049 0.760079 0.760112 0.760147 
0.760184 0.760223 0.760261 0.7603 0.760339 0.760376 0.760413 0.760447 0.760479 
0.760509 0.760537 0.760561 0.760582 0.7606 0.760613 0.760622 0.760627 0.760625 
0.760617 0.760602 0.760578 0.760546 0.760504 0.760452 0.760389 0.760317 0.760236 
0.760147 0.760053 0.759954 0.759853 0.759752 0.759653 0.759558 0.759467 0.759382 
0.759303 0.759232 0.759169 0.759114 0.759069 0.759034 0.75901 0.758996 0.758994 
0.759004 0.759026 0.759059 0.759103 0.759157 0.759219 0.75929 0.759366 0.759448 
0.759533 0.759619 0.759706 0.759791 0.759875 0.759955 0.76003 0.7601 0.760165 
0.760223 0.760275 0.76032 0.760358 0.76039 0.760414 0.760433 0.760445 0.760452 
0.760454 0.760452 0.760447 0.76044 0.760432 0.760425 0.760419 0.760417 0.760419 
0.760426 0.760438 0.760456 0.760478 0.760505 0.760535 0.760567 0.760598 0.760628 
0.760655 0.76068 0.7607 0.760715 0.760726 0.760732 0.760733 0.760731 0.760725 
0.760716 0.760705 0.760692 0.760679 0.760667 0.760656 0.760649 0.760646 0.760651 
0.760665 0.760692 0.760739 0.760843 0.761097 0.761008 0.755535 0.742149 0.722614 
0.698603 0.671412 0.642168 0.611921 0.581674 0.552959 0.526648 0.503785 0.485881 
0.474895 0.473159 0.473294 0.473417 0.473532 0.473637 0.473732 0.473818 0.473898 
0.473972 0.474043 0.47411 0.474177 0.474245 0.474474 0.474422 0.470788 0.458194 
0.448328 0.44577 0.445569 0.445146 0.446156 0.448852 0.452504 0.455666 0.457179 
0.458514 0.46053 0.463242 0.466472 0.469154 0.469347 0.470378 0.473985 0.477692 
0.484732 0.491587 0.492277 0.493804 0.496302 0.498947 0.503282 0.508109 0.517417 
0.525913 0.53637 0.543984 0.551924 0.55398 0.557652 0.558339 0.552804 0.547843 
0.485411 0.487216 0.488225 0.488367 0.488047 0.489393 0.490159 0.489922 0.483694 
0.47564 0.475595 0.475638 0.475676 0.475711 0.475742 0.47577 0.475796 0.475819 
0.47584 0.475859 0.475876 0.475891 0.475904 0.475916 0.475926 0.475935 0.475942 
0.475949 0.475955 0.475959 0.475963 0.475966 0.475968 0.47597 0.475971 0.475972 
0.475972 0.475972 0.475971 0.47597 0.475969 0.475968 0.475966 0.475964 0.475962 
0.47596 0.475958 0.475955 0.475953 0.47595 0.475948 0.475945 0.475942 0.475939 
0.475936 0.475933 0.47593 0.475927 0.475923 0.47592 0.475917 0.475914 0.475911 
0.475908 0.475904 0.475901 0.475898 0.475895 0.475892 0.475889 0.475885 0.475882 
0.475879 0.475876 0.475873 0.47587 0.475867 0.475864 0.475861 0.475858 0.475855 
0.475852 0.475849 0.475847 0.475844 0.475841 0.475838 0.475836 0.475833 0.47583 
0.475828 0.475825 0.475823 0.47582 0.475818 0.475816 0.470312 0.759993 0.75998 
0.759968 0.759956 0.759947 0.75994 0.759936 0.759936 0.759939 0.759947 0.759958 
0.759974 0.759994 0.760017 0.760045 0.760075 0.760108 0.760144 0.760182 0.76022 
0.76026 0.760299 0.760338 0.760376 0.760413 0.760448 0.760481 0.760511 0.760539 
0.760564 0.760585 0.760603 0.760617 0.760626 0.76063 0.760629 0.760621 0.760605 
0.760582 0.760549 0.760506 0.760453 0.76039 0.760316 0.760234 0.760144 0.760048 
0.759948 0.759846 0.759745 0.759645 0.759549 0.759458 0.759373 0.759294 0.759223 
0.759159 0.759105 0.759059 0.759024 0.758998 0.758984 0.758982 0.758992 0.759013 
0.759047 0.759091 0.759145 0.759208 0.75928 0.759357 0.75944 0.759526 0.759613 
0.759701 0.759788 0.759873 0.759954 0.760031 0.760102 0.760168 0.760227 0.76028 
0.760325 0.760364 0.760395 0.76042 0.760438 0.76045 0.760456 0.760457 0.760454 
0.760448 0.76044 0.760431 0.760422 0.760415 0.760412 0.760413 0.760419 0.760432 
0.760449 0.760473 0.760501 0.760531 0.760564 0.760596 0.760628 0.760656 0.760681 
0.760702 0.760717 0.760728 0.760734 0.760736 0.760733 0.760726 0.760716 0.760704 
0.76069 0.760675 0.760661 0.760648 0.760638 0.760632 0.760632 0.76064 0.760657 
0.760686 0.760728 0.760812 0.760792 0.755884 0.743189 0.724111 0.70021 0.672859 
0.643278 0.612588 0.581813 0.552281 0.525155 0.501917 0.484334 0.474568 0.473188 
0.473315 0.473432 0.473544 0.473647 0.473741 0.473827 0.473905 0.473978 0.474047 
0.474114 0.474179 0.474245 0.47441 0.47435 0.470851 0.458396 0.449027 0.449918 
0.449959 0.449369 0.450581 0.452973 0.456517 0.459648 0.46023 0.461851 0.461988 
0.464159 0.466704 0.47127 0.477029 0.482197 0.483098 0.485071 0.489919 0.494696 
0.499637 0.502832 0.507875 0.512794 0.515769 0.520996 0.532147 0.544661 0.554375 
0.562055 0.563701 0.563358 0.555969 0.555771 0.555539 0.558205 0.504015 0.488414 
0.488489 0.488465 0.488728 0.490136 0.490945 0.490701 0.484135 0.47574 0.475572 
0.475614 0.475654 0.47569 0.475723 0.475754 0.475781 0.475806 0.475828 0.475848 
0.475866 0.475882 0.475896 0.475908 0.475919 0.475928 0.475936 0.475943 0.475949 
0.475954 0.475958 0.475961 0.475964 0.475966 0.475967 0.475968 0.475968 0.475968 
0.475968 0.475967 0.475966 0.475965 0.475963 0.475962 0.47596 0.475958 0.475955 
0.475953 0.475951 0.475948 0.475945 0.475943 0.47594 0.475937 0.475934 0.475931 
0.475928 0.475925 0.475922 0.475919 0.475915 0.475912 0.475909 0.475906 0.475903 
0.4759 0.475897 0.475893 0.47589 0.475887 0.475884 0.475881 0.475878 0.475875 
0.475872 0.475869 0.475866 0.475863 0.47586 0.475857 0.475854 0.475851 0.475848 
0.475845 0.475843 0.47584 0.475837 0.475834 0.475832 0.475829 0.475826 0.475824 
0.475821 0.475819 0.475816 0.475814 0.470308 0.759993 0.759978 0.759965 0.759952 
0.759942 0.759934 0.75993 0.759928 0.759931 0.759938 0.75995 0.759965 0.759985 
0.760009 0.760036 0.760068 0.760102 0.760138 0.760176 0.760216 0.760256 0.760297 
0.760337 0.760376 0.760414 0.76045 0.760484 0.760516 0.760545 0.76057 0.760592 
0.760611 0.760625 0.760634 0.760639 0.760637 0.760629 0.760613 0.760588 0.760554 
0.76051 0.760455 0.76039 0.760314 0.760229 0.760136 0.760038 0.759936 0.759832 
0.759729 0.759629 0.759532 0.759441 0.759356 0.759277 0.759205 0.759141 0.759086 
0.75904 0.759003 0.758977 0.758962 0.758959 0.758968 0.75899 0.759023 0.759068 
0.759123 0.759188 0.75926 0.75934 0.759425 0.759513 0.759603 0.759694 0.759784 
0.759871 0.759955 0.760034 0.760108 0.760175 0.760236 0.76029 0.760337 0.760376 
0.760408 0.760433 0.76045 0.760461 0.760466 0.760465 0.76046 0.760451 0.760441 
0.760429 0.760418 0.760409 0.760403 0.760402 0.760408 0.760419 0.760438 0.760462 
0.760492 0.760525 0.76056 0.760595 0.760629 0.760659 0.760686 0.760708 0.760725 
0.760736 0.760742 0.760744 0.76074 0.760732 0.760721 0.760706 0.76069 0.760673 
0.760656 0.760641 0.760628 0.760619 0.760616 0.760621 0.760636 0.760663 0.760707 
0.760837 0.760765 0.756007 0.743659 0.724911 0.701171 0.673788 0.644016 0.61302 
0.581896 0.551943 0.524464 0.501161 0.483895 0.474518 0.47318 0.473319 0.473445 
0.473558 0.47366 0.473752 0.473836 0.473912 0.473982 0.474047 0.474109 0.474169 
0.47423 0.474407 0.47435 0.470989 0.459211 0.451748 0.454484 0.456017 0.457039 
0.458137 0.46034 0.462527 0.464451 0.464918 0.465719 0.469281 0.472274 0.475993 
0.480371 0.486154 0.490848 0.491667 0.493292 0.497328 0.503024 0.508974 0.515065 
0.519458 0.52419 0.529261 0.53735 0.547609 0.558964 0.565698 0.569586 0.569954 
0.570036 0.574882 0.580312 0.588676 0.592981 0.531658 0.505541 0.492171 0.489456 
0.489527 0.490159 0.490992 0.490764 0.48433 0.475727 0.475576 0.475619 0.475659 
0.475696 0.475729 0.475759 0.475786 0.475811 0.475833 0.475853 0.47587 0.475886 
0.475899 0.475911 0.475922 0.475931 0.475939 0.475945 0.475951 0.475956 0.47596 
0.475963 0.475965 0.475967 0.475968 0.475969 0.475969 0.475969 0.475969 0.475968 
0.475967 0.475965 0.475964 0.475962 0.47596 0.475958 0.475956 0.475953 0.475951 
0.475948 0.475946 0.475943 0.47594 0.475937 0.475934 0.475931 0.475928 0.475925 
0.475922 0.475919 0.475916 0.475912 0.475909 0.475906 0.475903 0.4759 0.475897 
0.475894 0.47589 0.475887 0.475884 0.475881 0.475878 0.475875 0.475872 0.475869 
0.475866 0.475863 0.47586 0.475857 0.475854 0.475851 0.475848 0.475845 0.475843 
0.47584 0.475837 0.475834 0.475832 0.475829 0.475826 0.475824 0.475821 0.475819 
0.475816 0.475814 0.470309 0.759992 0.759975 0.75996 0.759946 0.759934 0.759925 
0.759919 0.759917 0.759919 0.759925 0.759936 0.759952 0.759972 0.759996 0.760024 
0.760056 0.760091 0.760129 0.760168 0.76021 0.760251 0.760294 0.760335 0.760376 
0.760416 0.760454 0.760489 0.760522 0.760552 0.760579 0.760602 0.760622 0.760636 
0.760646 0.760651 0.760649 0.76064 0.760623 0.760598 0.760562 0.760515 0.760458 
0.760389 0.760309 0.76022 0.760124 0.760022 0.759916 0.759811 0.759706 0.759605 
0.759508 0.759416 0.759331 0.759252 0.75918 0.759116 0.759059 0.759012 0.758974 
0.758947 0.75893 0.758926 0.758935 0.758956 0.758989 0.759035 0.759091 0.759158 
0.759233 0.759316 0.759404 0.759495 0.759589 0.759684 0.759777 0.759868 0.759956 
0.760039 0.760116 0.760186 0.76025 0.760306 0.760354 0.760395 0.760427 0.760451 
0.760468 0.760477 0.76048 0.760477 0.760469 0.760457 0.760442 0.760426 0.760411 
0.760398 0.760389 0.760386 0.760389 0.7604 0.760419 0.760446 0.760478 0.760515 
0.760554 0.760593 0.76063 0.760664 0.760694 0.760718 0.760736 0.760749 0.760755 
0.760755 0.760751 0.760741 0.760727 0.760711 0.760691 0.760671 0.76065 0.76063 
0.760612 0.760598 0.76059 0.76059 0.7606 0.760622 0.760658 0.76078 0.760721 
0.75603 0.743855 0.725306 0.701695 0.674325 0.64445 0.613268 0.58194 0.551771 
0.524177 0.500907 0.483792 0.474552 0.473215 0.473353 0.473476 0.473587 0.473687 
0.473775 0.473855 0.473928 0.473993 0.474054 0.474111 0.474165 0.474218 0.474372 
0.474318 0.471476 0.461255 0.455752 0.458456 0.460045 0.461159 0.462331 0.463599 
0.465681 0.467984 0.470728 0.474398 0.478218 0.481932 0.48388 0.487279 0.490679 
0.49432 0.496677 0.499115 0.503535 0.509524 0.515003 0.521284 0.525903 0.531441 
0.536666 0.544077 0.553465 0.563984 0.566964 0.569329 0.575933 0.582092 0.593031 
0.606464 0.615641 0.616391 0.551678 0.526181 0.501252 0.490514 0.49049 0.490877 
0.491687 0.491504 0.484996 0.475739 0.47558 0.475624 0.475664 0.475701 0.475735 
0.475765 0.475792 0.475817 0.475838 0.475858 0.475875 0.47589 0.475903 0.475915 
0.475925 0.475934 0.475941 0.475948 0.475953 0.475958 0.475961 0.475964 0.475967 
0.475968 0.475969 0.47597 0.47597 0.47597 0.475969 0.475969 0.475967 0.475966 
0.475964 0.475963 0.475961 0.475958 0.475956 0.475954 0.475951 0.475948 0.475946 
0.475943 0.47594 0.475937 0.475934 0.475931 0.475928 0.475925 0.475922 0.475919 
0.475916 0.475912 0.475909 0.475906 0.475903 0.4759 0.475897 0.475893 0.47589 
0.475887 0.475884 0.475881 0.475878 0.475875 0.475872 0.475869 0.475866 0.475863 
0.47586 0.475857 0.475854 0.475851 0.475848 0.475845 0.475843 0.47584 0.475837 
0.475834 0.475832 0.475829 0.475826 0.475824 0.475821 0.475819 0.475816 0.475814 
0.470308 0.759991 0.759972 0.759954 0.759938 0.759924 0.759913 0.759905 0.759902 
0.759903 0.759908 0.759919 0.759934 0.759954 0.759979 0.760008 0.760041 0.760077 
0.760117 0.760158 0.760201 0.760245 0.760289 0.760333 0.760376 0.760418 0.760458 
0.760495 0.76053 0.760562 0.760591 0.760615 0.760635 0.760651 0.760661 0.760666 
0.760664 0.760654 0.760636 0.760609 0.760571 0.760521 0.76046 0.760387 0.760303 
0.760209 0.760108 0.760001 0.759893 0.759784 0.759678 0.759575 0.759478 0.759387 
0.759302 0.759223 0.759151 0.759085 0.759028 0.758978 0.758939 0.758909 0.758891 
0.758886 0.758893 0.758914 0.758947 0.758994 0.759052 0.759121 0.7592 0.759286 
0.759378 0.759474 0.759573 0.759672 0.75977 0.759866 0.759959 0.760046 0.760127 
0.760202 0.760269 0.760328 0.760378 0.76042 0.760453 0.760477 0.760493 0.7605 
0.7605 0.760493 0.76048 0.760463 0.760443 0.760422 0.760401 0.760383 0.760369 
0.760362 0.760362 0.760373 0.760393 0.760422 0.760459 0.760501 0.760546 0.76059 
0.760633 0.760671 0.760705 0.760732 0.760752 0.760765 0.760772 0.760772 0.760766 
0.760754 0.760737 0.760717 0.760693 0.760668 0.760642 0.760616 0.760591 0.760571 
0.760556 0.760549 0.760553 0.76057 0.760603 0.760724 0.760662 0.756 0.743908 
0.725469 0.701942 0.674595 0.644673 0.613393 0.581963 0.551695 0.524074 0.500848 
0.483802 0.474596 0.473259 0.473397 0.473518 0.473626 0.473722 0.473806 0.473881 
0.473949 0.474009 0.474064 0.474114 0.474161 0.474204 0.47432 0.474276 0.472561 
0.466841 0.4623 0.462513 0.464099 0.465442 0.466892 0.467955 0.468174 0.469893 
0.474667 0.479528 0.483142 0.486103 0.487376 0.488982 0.493173 0.497054 0.501306 
0.505108 0.508679 0.512485 0.518476 0.523403 0.529586 0.534532 0.542011 0.547386 
0.553553 0.562939 0.565502 0.567716 0.578423 0.587921 0.600895 0.618419 0.624247 
0.623795 0.573628 0.543202 0.522118 0.500421 0.491557 0.492698 0.493178 0.49293 
0.485592 0.475773 0.475588 0.475633 0.475674 0.475711 0.475745 0.475775 0.475801 
0.475825 0.475847 0.475865 0.475882 0.475897 0.47591 0.475921 0.47593 0.475939 
0.475946 0.475952 0.475957 0.475961 0.475964 0.475967 0.475969 0.47597 0.475971 
0.475972 0.475972 0.475971 0.475971 0.47597 0.475969 0.475967 0.475965 0.475963 
0.475961 0.475959 0.475957 0.475954 0.475952 0.475949 0.475946 0.475943 0.47594 
0.475937 0.475934 0.475931 0.475928 0.475925 0.475922 0.475919 0.475916 0.475913 
0.475909 0.475906 0.475903 0.4759 0.475897 0.475894 0.47589 0.475887 0.475884 
0.475881 0.475878 0.475875 0.475872 0.475869 0.475866 0.475863 0.47586 0.475857 
0.475854 0.475851 0.475848 0.475845 0.475843 0.47584 0.475837 0.475834 0.475832 
0.475829 0.475826 0.475824 0.475821 0.475819 0.475816 0.475814 0.470308 0.759989 
0.759967 0.759946 0.759927 0.759911 0.759898 0.759888 0.759883 0.759883 0.759887 
0.759897 0.759913 0.759933 0.759958 0.759988 0.760023 0.760061 0.760102 0.760145 
0.76019 0.760237 0.760283 0.76033 0.760376 0.76042 0.760463 0.760503 0.76054 
0.760574 0.760604 0.76063 0.760651 0.760668 0.760679 0.760683 0.760681 0.760671 
0.760651 0.760622 0.760581 0.760528 0.760463 0.760386 0.760296 0.760198 0.760091 
0.75998 0.759868 0.759757 0.759649 0.759547 0.75945 0.759359 0.759274 0.759194 
0.759121 0.759054 0.758994 0.758942 0.758899 0.758867 0.758847 0.758839 0.758845 
0.758864 0.758898 0.758945 0.759006 0.759078 0.75916 0.75925 0.759347 0.759449 
0.759554 0.759659 0.759763 0.759865 0.759963 0.760056 0.760143 0.760221 0.760292 
0.760355 0.760408 0.760451 0.760485 0.760509 0.760523 0.760528 0.760524 0.760513 
0.760495 0.760472 0.760445 0.760416 0.760388 0.760362 0.760342 0.76033 0.760327 
0.760336 0.760359 0.760393 0.760436 0.760485 0.760536 0.760588 0.760638 0.760682 
0.76072 0.76075 0.760773 0.760787 0.760794 0.760793 0.760785 0.76077 0.76075 
0.760725 0.760696 0.760665 0.760632 0.760598 0.760566 0.760536 0.760512 0.760496 
0.760491 0.760501 0.760528 0.760645 0.760583 0.755931 0.743877 0.725495 0.702021 
0.674697 0.644762 0.613444 0.581976 0.551671 0.524056 0.500866 0.483852 0.474658 
0.47332 0.473455 0.473573 0.473676 0.473766 0.473846 0.473915 0.473976 0.474031 
0.474079 0.474122 0.47416 0.474192 0.474267 0.474235 0.473126 0.469302 0.466247 
0.467092 0.468487 0.469794 0.470847 0.472079 0.473313 0.475392 0.478649 0.482111 
0.485876 0.488808 0.491928 0.49505 0.498817 0.503388 0.508163 0.512581 0.516907 
0.521641 0.526826 0.532751 0.538518 0.544767 0.551631 0.55937 0.55972 0.559051 
0.562186 0.566535 0.577675 0.588181 0.600252 0.616693 0.622428 0.622103 0.593715 
0.564453 0.545816 0.524682 0.500897 0.493127 0.49416 0.493891 0.486059 0.475795 
0.475599 0.475645 0.475687 0.475724 0.475757 0.475787 0.475813 0.475836 0.475857 
0.475875 0.475891 0.475905 0.475917 0.475928 0.475937 0.475944 0.475951 0.475957 
0.475961 0.475965 0.475968 0.47597 0.475972 0.475973 0.475974 0.475974 0.475974 
0.475973 0.475972 0.475971 0.47597 0.475968 0.475966 0.475964 0.475962 0.47596 
0.475957 0.475955 0.475952 0.475949 0.475947 0.475944 0.475941 0.475938 0.475935 
0.475932 0.475928 0.475925 0.475922 0.475919 0.475916 0.475913 0.475909 0.475906 
0.475903 0.4759 0.475897 0.475894 0.47589 0.475887 0.475884 0.475881 0.475878 
0.475875 0.475872 0.475869 0.475866 0.475863 0.47586 0.475857 0.475854 0.475851 
0.475848 0.475845 0.475843 0.47584 0.475837 0.475834 0.475832 0.475829 0.475826 
0.475824 0.475821 0.475819 0.475816 0.475814 0.470308 0.759987 0.759961 0.759937 
0.759915 0.759896 0.75988 0.759869 0.759862 0.75986 0.759863 0.759872 0.759888 
0.759908 0.759934 0.759966 0.760001 0.760041 0.760084 0.76013 0.760178 0.760227 
0.760277 0.760327 0.760375 0.760422 0.760468 0.76051 0.76055 0.760586 0.760618 
0.760646 0.760669 0.760687 0.760698 0.760703 0.7607 0.760689 0.760668 0.760636 
0.760593 0.760537 0.760467 0.760385 0.760291 0.760188 0.760077 0.759962 0.759847 
0.759734 0.759626 0.759523 0.759427 0.759336 0.75925 0.759169 0.759094 0.759024 
0.75896 0.758904 0.758858 0.758822 0.758798 0.758787 0.75879 0.758809 0.758842 
0.75889 0.758953 0.759028 0.759114 0.759209 0.759311 0.759419 0.75953 0.759642 
0.759754 0.759863 0.759968 0.760067 0.76016 0.760244 0.760319 0.760385 0.760441 
0.760486 0.760521 0.760545 0.760558 0.760559 0.760552 0.760536 0.760512 0.760481 
0.760446 0.760408 0.760371 0.760336 0.760309 0.76029 0.760284 0.760294 0.760319 
0.760359 0.76041 0.760468 0.760529 0.76059 0.760646 0.760697 0.76074 0.760774 
0.760799 0.760814 0.760821 0.760819 0.760808 0.76079 0.760766 0.760736 0.760701 
0.760662 0.76062 0.760577 0.760534 0.760494 0.760458 0.760431 0.760414 0.760413 
0.760433 0.760543 0.760477 0.755828 0.743789 0.725437 0.701996 0.674696 0.644772 
0.613455 0.581987 0.551681 0.524083 0.500921 0.483927 0.474735 0.473396 0.473527 
0.47364 0.473737 0.473821 0.473894 0.473956 0.474011 0.474058 0.474099 0.474134 
0.474163 0.474186 0.474234 0.474212 0.47337 0.470342 0.469695 0.471359 0.472678 
0.473706 0.475022 0.476745 0.480228 0.483581 0.485313 0.488031 0.491951 0.49561 
0.499075 0.502372 0.506633 0.511559 0.51709 0.522455 0.526777 0.53139 0.537235 
0.543635 0.549473 0.555337 0.559966 0.562844 0.568955 0.573689 0.577649 0.581127 
0.584828 0.591631 0.597349 0.60692 0.615877 0.616825 0.617373 0.586257 0.565152 
0.543793 0.518279 0.497954 0.494311 0.49403 0.486087 0.475821 0.475614 0.475661 
0.475703 0.47574 0.475773 0.475802 0.475827 0.47585 0.47587 0.475887 0.475902 
0.475915 0.475926 0.475936 0.475944 0.475951 0.475957 0.475962 0.475967 0.47597 
0.475972 0.475974 0.475976 0.475976 0.475977 0.475977 0.475976 0.475975 0.475974 
0.475973 0.475971 0.47597 0.475968 0.475965 0.475963 0.475961 0.475958 0.475956 
0.475953 0.47595 0.475947 0.475944 0.475941 0.475938 0.475935 0.475932 0.475929 
0.475926 0.475922 0.475919 0.475916 0.475913 0.47591 0.475906 0.475903 0.4759 
0.475897 0.475894 0.475891 0.475887 0.475884 0.475881 0.475878 0.475875 0.475872 
0.475869 0.475866 0.475863 0.47586 0.475857 0.475854 0.475851 0.475848 0.475845 
0.475843 0.47584 0.475837 0.475834 0.475832 0.475829 0.475826 0.475824 0.475821 
0.475819 0.475816 0.475814 0.470308 0.759985 0.759955 0.759927 0.759901 0.759879 
0.759861 0.759847 0.759838 0.759834 0.759837 0.759845 0.75986 0.759881 0.759908 
0.759941 0.759978 0.76002 0.760065 0.760114 0.760165 0.760217 0.76027 0.760323 
0.760374 0.760425 0.760473 0.760519 0.760561 0.760599 0.760634 0.760663 0.760687 
0.760706 0.760718 0.760723 0.76072 0.760708 0.760686 0.760652 0.760606 0.760547 
0.760474 0.760387 0.760289 0.760181 0.760067 0.759949 0.759832 0.759718 0.759609 
0.759506 0.759408 0.759316 0.759229 0.759146 0.759067 0.758993 0.758925 0.758864 
0.758813 0.758772 0.758744 0.758729 0.75873 0.758747 0.75878 0.75883 0.758894 
0.758972 0.759063 0.759163 0.759271 0.759385 0.759502 0.759621 0.759739 0.759855 
0.759967 0.760073 0.760173 0.760264 0.760345 0.760415 0.760475 0.760522 0.760558 
0.760581 0.760593 0.760592 0.760581 0.760559 0.760529 0.760491 0.760447 0.760399 
0.760351 0.760308 0.760272 0.760248 0.760239 0.76025 0.760281 0.760328 0.760389 
0.760457 0.760528 0.760598 0.760662 0.760719 0.760767 0.760805 0.760832 0.760848 
0.760854 0.76085 0.760837 0.760814 0.760785 0.760749 0.760706 0.760659 0.760607 
0.760553 0.760498 0.760444 0.760393 0.76035 0.760319 0.760303 0.760307 0.760412 
0.760341 0.75569 0.743657 0.725321 0.701906 0.674635 0.644737 0.613445 0.582002 
0.551716 0.524144 0.501005 0.484023 0.474833 0.47349 0.473615 0.473721 0.473811 