# vtk DataFile Version 5.1
vtk output
ASCII
DATASET UNSTRUCTURED_GRID
POINTS 10043 double
-10.1 1.4499999993 0 -10.049999999 1.4499999993 0 -10.049999999 1.5 0 
-9.9999999985 1.4499999993 0 -9.9999999985 1.5 0 -9.9499999978 1.4499999993 0 
-9.9499999978 1.5 0 -9.899999997 1.4499999993 0 -9.899999997 1.5 0 
-9.8499999963 1.4499999993 0 -9.8499999963 1.5 0 -9.7999999955 1.4499999993 0 
-9.7999999955 1.5 0 -9.7499999948 1.4499999993 0 -9.7499999948 1.5 0 
-9.699999994 1.4499999993 0 -9.699999994 1.5 0 -9.6499999933 1.4499999993 0 
-9.6499999933 1.5 0 -9.5999999925 1.4499999993 0 -9.5999999925 1.5 0 
-9.5499999918 1.4499999993 0 -9.5499999918 1.5 0 -9.4999999911 1.4499999993 0 
-9.4999999911 1.5 0 -9.4499999903 1.4499999993 0 -9.4499999903 1.5 0 
-9.3999999896 1.4499999993 0 -9.3999999896 1.5 0 -9.3499999888 1.4499999993 0 
-9.3499999888 1.5 0 -9.2999999881 1.4499999993 0 -9.2999999881 1.5 0 
-9.2499999873 1.4499999993 0 -9.2499999873 1.5 0 -9.1999999866 1.4499999993 0 
-9.1999999866 1.5 0 -9.1499999858 1.4499999993 0 -9.1499999858 1.5 0 
-9.0999999851 1.4499999993 0 -9.0999999851 1.5 0 -9.0499999844 1.4499999993 0 
-9.0499999844 1.5 0 -8.9999999836 1.4499999993 0 -8.9999999836 1.5 0 
-8.9499999829 1.4499999993 0 -8.9499999829 1.5 0 -8.8999999821 1.4499999993 0 
-8.8999999821 1.5 0 -8.8499999814 1.4499999993 0 -8.8499999814 1.5 0 
-8.7999999806 1.4499999993 0 -8.7999999806 1.5 0 -8.7499999799 1.4499999993 0 
-8.7499999799 1.5 0 -8.6999999791 1.4499999993 0 -8.6999999791 1.5 0 
-8.6499999784 1.4499999993 0 -8.6499999784 1.5 0 -8.5999999776 1.4499999993 0 
-8.5999999776 1.5 0 -8.5499999769 1.4499999993 0 -8.5499999769 1.5 0 
-8.4999999762 1.4499999993 0 -8.4999999762 1.5 0 -8.4499999754 1.4499999993 0 
-8.4499999754 1.5 0 -8.3999999747 1.4499999993 0 -8.3999999747 1.5 0 
-8.3499999739 1.4499999993 0 -8.3499999739 1.5 0 -8.2999999732 1.4499999993 0 
-8.2999999732 1.5 0 -8.2499999724 1.4499999993 0 -8.2499999724 1.5 0 
-8.1999999717 1.4499999993 0 -8.1999999717 1.5 0 -8.1499999709 1.4499999993 0 
-8.1499999709 1.5 0 -8.0999999702 1.4499999993 0 -8.0999999702 1.5 0 
-8.0499999695 1.4499999993 0 -8.0499999695 1.5 0 -7.9999999687 1.4499999993 0 
-7.9999999687 1.5 0 -7.949999968 1.4499999993 0 -7.949999968 1.5 0 
-7.8999999672 1.4499999993 0 -7.8999999672 1.5 0 -7.8499999665 1.4499999993 0 
-7.8499999665 1.5 0 -7.7999999657 1.4499999993 0 -7.7999999657 1.5 0 
-7.749999965 1.4499999993 0 -7.749999965 1.5 0 -7.6999999642 1.4499999993 0 
-7.6999999642 1.5 0 -7.6499999635 1.4499999993 0 -7.6499999635 1.5 0 
-7.5999999627 1.4499999993 0 -7.5999999627 1.5 0 -7.549999962 1.4499999993 0 
-7.549999962 1.5 0 -7.4999999613 1.4499999993 0 -7.4999999613 1.5 0 
-7.4499999605 1.4499999993 0 -7.4499999605 1.5 0 -7.3999999598 1.4499999993 0 
-7.3999999598 1.5 0 -7.349999959 1.4499999993 0 -7.349999959 1.5 0 
-7.2999999583 1.4499999993 0 -7.2999999583 1.5 0 -7.2499999575 1.4499999993 0 
-7.2499999575 1.5 0 -7.1999999568 1.4499999993 0 -7.1999999568 1.5 0 
-7.149999956 1.4499999993 0 -7.149999956 1.5 0 -7.0999999553 1.4499999993 0 
-7.0999999553 1.5 0 -7.0499999546 1.4499999993 0 -7.0499999546 1.5 0 
-6.9999999538 1.4499999993 0 -6.9999999538 1.5 0 -6.9499999531 1.4499999993 0 
-6.9499999531 1.5 0 -6.8999999523 1.4499999993 0 -6.8999999523 1.5 0 
-6.8499999516 1.4499999993 0 -6.8499999516 1.5 0 -6.7999999508 1.4499999993 0 
-6.7999999508 1.5 0 -6.7499999501 1.4499999993 0 -6.7499999501 1.5 0 
-6.6999999493 1.4499999993 0 -6.6999999493 1.5 0 -6.6499999486 1.4499999993 0 
-6.6499999486 1.5 0 -6.5999999478 1.4499999993 0 -6.5999999478 1.5 0 
-6.5499999471 1.4499999993 0 -6.5499999471 1.5 0 -6.4999999464 1.4499999993 0 
-6.4999999464 1.5 0 -6.4499999456 1.4499999993 0 -6.4499999456 1.5 0 
-6.3999999449 1.4499999993 0 -6.3999999449 1.5 0 -6.3499999441 1.4499999993 0 
-6.3499999441 1.5 0 -6.2999999434 1.4499999993 0 -6.2999999434 1.5 0 
-6.2499999426 1.4499999993 0 -6.2499999426 1.5 0 -6.1999999419 1.4499999993 0 
-6.1999999419 1.5 0 -6.1499999411 1.4499999993 0 -6.1499999411 1.5 0 
-6.0999999404 1.4499999993 0 -6.0999999404 1.5 0 -6.0499999397 1.4499999993 0 
-6.0499999397 1.5 0 -5.9999999389 1.4499999993 0 -5.9999999389 1.5 0 
-5.9499999382 1.4499999993 0 -5.9499999382 1.5 0 -5.8999999374 1.4499999993 0 
-5.8999999374 1.5 0 -5.8499999367 1.4499999993 0 -5.8499999367 1.5 0 
-5.7999999359 1.4499999993 0 -5.7999999359 1.5 0 -5.7499999352 1.4499999993 0 
-5.7499999352 1.5 0 -5.6999999344 1.4499999993 0 -5.6999999344 1.5 0 
-5.6499999337 1.4499999993 0 -5.6499999337 1.5 0 -5.5999999329 1.4499999993 0 
-5.5999999329 1.5 0 -5.5499999322 1.4499999993 0 -5.5499999322 1.5 0 
-5.4999999315 1.4499999993 0 -5.4999999315 1.5 0 -5.4499999307 1.4499999993 0 
-5.4499999307 1.5 0 -5.39999993 1.4499999993 0 -5.39999993 1.5 0 
-5.3499999292 1.4499999993 0 -5.3499999292 1.5 0 -5.2999999285 1.4499999993 0 
-5.2999999285 1.5 0 -5.2499999277 1.4499999993 0 -5.2499999277 1.5 0 
-5.199999927 1.4499999993 0 -5.199999927 1.5 0 -5.1499999262 1.4499999993 0 
-5.1499999262 1.5 0 -5.0999999255 1.4499999993 0 -5.0999999255 1.5 0 
-5.0499999247 1.4499999993 0 -5.0499999247 1.5 0 -4.999999924 1.4499999993 0 
-4.999999924 1.5 0 -4.9499999233 1.4499999993 0 -4.9499999233 1.5 0 
-4.8999999225 1.4499999993 0 -4.8999999225 1.5 0 -4.8499999218 1.4499999993 0 
-4.8499999218 1.5 0 -4.799999921 1.4499999993 0 -4.799999921 1.5 0 
-4.7499999203 1.4499999993 0 -4.7499999203 1.5 0 -4.6999999195 1.4499999993 0 
-4.6999999195 1.5 0 -4.6499999188 1.4499999993 0 -4.6499999188 1.5 0 
-4.599999918 1.4499999993 0 -4.599999918 1.5 0 -4.5499999173 1.4499999993 0 
-4.5499999173 1.5 0 -4.4999999166 1.4499999993 0 -4.4999999166 1.5 0 
-4.4499999158 1.4499999993 0 -4.4499999158 1.5 0 -4.3999999151 1.4499999993 0 
-4.3999999151 1.5 0 -4.3499999143 1.4499999993 0 -4.3499999143 1.5 0 
-4.2999999136 1.4499999993 0 -4.2999999136 1.5 0 -4.2499999128 1.4499999993 0 
-4.2499999128 1.5 0 -4.1999999121 1.4499999993 0 -4.1999999121 1.5 0 
-4.1499999113 1.4499999993 0 -4.1499999113 1.5 0 -4.0999999106 1.4499999993 0 
-4.0999999106 1.5 0 -4.0499999098 1.4499999993 0 -4.0499999098 1.5 0 
-3.9999999091 1.4499999993 0 -3.9999999091 1.5 0 -3.9499999084 1.4499999993 0 
-3.9499999084 1.5 0 -3.8999999076 1.4499999993 0 -3.8999999076 1.5 0 
-3.8499999069 1.4499999993 0 -3.8499999069 1.5 0 -3.7999999061 1.4499999993 0 
-3.7999999061 1.5 0 -3.7499999054 1.4499999993 0 -3.7499999054 1.5 0 
-3.6999999046 1.4499999993 0 -3.6999999046 1.5 0 -3.6499999039 1.4499999993 0 
-3.6499999039 1.5 0 -3.5999999031 1.4499999993 0 -3.5999999031 1.5 0 
-3.5499999024 1.4499999993 0 -3.5499999024 1.5 0 -3.4999999017 1.4499999993 0 
-3.4999999017 1.5 0 -3.4499999009 1.4499999993 0 -3.4499999009 1.5 0 
-3.3999999002 1.4499999993 0 -3.3999999002 1.5 0 -3.3499998994 1.4499999993 0 
-3.3499998994 1.5 0 -3.2999998987 1.4499999993 0 -3.2999998987 1.5 0 
-3.2499998979 1.4499999993 0 -3.2499998979 1.5 0 -3.1999998972 1.4499999993 0 
-3.1999998972 1.5 0 -3.1499998964 1.4499999993 0 -3.1499998964 1.5 0 
-3.0999998957 1.4499999993 0 -3.0999998957 1.5 0 -3.0499998949 1.4499999993 0 
-3.0499998949 1.5 0 -2.9999998942 1.4499999993 0 -2.9999998942 1.5 0 
-2.9499998935 1.4499999993 0 -2.9499998935 1.5 0 -2.8999998927 1.4499999993 0 
-2.8999998927 1.5 0 -2.849999892 1.4499999993 0 -2.849999892 1.5 0 
-2.7999998912 1.4499999993 0 -2.7999998912 1.5 0 -2.7499998905 1.4499999993 0 
-2.7499998905 1.5 0 -2.6999998897 1.4499999993 0 -2.6999998897 1.5 0 
-2.649999889 1.4499999993 0 -2.649999889 1.5 0 -2.5999998882 1.4499999993 0 
-2.5999998882 1.5 0 -2.5499998875 1.4499999993 0 -2.5499998875 1.5 0 
-2.4999998868 1.4499999993 0 -2.4999998868 1.5 0 -2.449999886 1.4499999993 0 
-2.449999886 1.5 0 -2.3999998853 1.4499999993 0 -2.3999998853 1.5 0 
-2.3499998845 1.4499999993 0 -2.3499998845 1.5 0 -2.2999998838 1.4499999993 0 
-2.2999998838 1.5 0 -2.249999883 1.4499999993 0 -2.249999883 1.5 0 
-2.1999998823 1.4499999993 0 -2.1999998823 1.5 0 -2.1499998815 1.4499999993 0 
-2.1499998815 1.5 0 -2.0999998808 1.4499999993 0 -2.0999998808 1.5 0 
-2.04999988 1.4499999993 0 -2.04999988 1.5 0 -1.9999998793 1.4499999993 0 
-1.9999998793 1.5 0 -1.9499998786 1.4499999993 0 -1.9499998786 1.5 0 
-1.8999998778 1.4499999993 0 -1.8999998778 1.5 0 -1.8499998771 1.4499999993 0 
-1.8499998771 1.5 0 -1.7999998763 1.4499999993 0 -1.7999998763 1.5 0 
-1.7499998756 1.4499999993 0 -1.7499998756 1.5 0 -1.6999998748 1.4499999993 0 
-1.6999998748 1.5 0 -1.6499998741 1.4499999993 0 -1.6499998741 1.5 0 
-1.5999998733 1.4499999993 0 -1.5999998733 1.5 0 -1.5499998726 1.4499999993 0 
-1.5499998726 1.5 0 -1.4999998718 1.4499999993 0 -1.4999998718 1.5 0 
-1.4499998711 1.4499999993 0 -1.4499998711 1.5 0 -1.3999998704 1.4499999993 0 
-1.3999998704 1.5 0 -1.3499998696 1.4499999993 0 -1.3499998696 1.5 0 
-1.2999998689 1.4499999993 0 -1.2999998689 1.5 0 -1.2499998681 1.4499999993 0 
-1.2499998681 1.5 0 -1.1999998674 1.4499999993 0 -1.1999998674 1.5 0 
-1.1499998666 1.4499999993 0 -1.1499998666 1.5 0 -1.0999998659 1.4499999993 0 
-1.0999998659 1.5 0 -1.0499998651 1.4499999993 0 -1.0499998651 1.5 0 
-0.9999998644 1.4499999993 0 -0.9999998644 1.5 0 -0.94999986365 1.4499999993 0 
-0.94999986365 1.5 0 -0.89999986291 1.4499999993 0 -0.89999986291 1.5 0 
-0.84999986216 1.4499999993 0 -0.84999986216 1.5 0 -0.79999986142 1.4499999993 0 
-0.79999986142 1.5 0 -0.74999986067 1.4499999993 0 -0.74999986067 1.5 0 
-0.69999985993 1.4499999993 0 -0.69999985993 1.5 0 -0.64999985918 1.4499999993 0 
-0.64999985918 1.5 0 -0.59999985844 1.4499999993 0 -0.59999985844 1.5 0 
-0.54999985769 1.4499999993 0 -0.54999985769 1.5 0 -0.49999985695 1.4499999993 0 
-0.49999985695 1.5 0 -0.4499998562 1.4499999993 0 -0.4499998562 1.5 0 
-0.39999985546 1.4499999993 0 -0.39999985546 1.5 0 -0.34999985471 1.4499999993 0 
-0.34999985471 1.5 0 -0.29999985397 1.4499999993 0 -0.29999985397 1.5 0 
-0.24999985322 1.4499999993 0 -0.24999985322 1.5 0 -0.191663057 1.4499999993 0 
-0.17548248559 1.5 0 0.18862900414 1.4499999993 0 0.25000015423 1.4499999993 0 
[...]
CELL_DATA 9510
FIELD FieldData 4
Water_Depth_m 1 9510 float
0.290003 0.29001 0.290017 0.290024 0.290031 0.290038 0.290045 0.290052 0.290059 
0.290066 0.290073 0.29008 0.290087 0.290094 0.290101 0.290108 0.290114 0.290121 
0.290128 0.290135 0.290142 0.290149 0.290156 0.290163 0.29017 0.290177 0.290184 
0.290191 0.290198 0.290205 0.290211 0.290218 0.290225 0.290232 0.290239 0.290246 
0.290253 0.29026 0.290267 0.290274 0.290281 0.290288 0.290295 0.290301 0.290308 
0.290315 0.290322 0.290329 0.290336 0.290343 0.29035 0.290357 0.290364 0.290371 
0.290378 0.290384 0.290391 0.290398 0.290405 0.290412 0.290419 0.290426 0.290433 
0.29044 0.290447 0.290454 0.29046 0.290467 0.290474 0.290481 0.290488 0.290495 
0.290502 0.290509 0.290516 0.290523 0.290529 0.290536 0.290543 0.29055 0.290557 
0.290564 0.290571 0.290578 0.290585 0.290592 0.290598 0.290605 0.290612 0.290619 
0.290626 0.290633 0.29064 0.290647 0.290654 0.29066 0.290667 0.290674 0.290681 
0.290688 0.290695 0.290702 0.290709 0.290716 0.290722 0.290729 0.290736 0.290743 
0.29075 0.290757 0.290764 0.290771 0.290777 0.290784 0.290791 0.290798 0.290805 
0.290812 0.290819 0.290826 0.290832 0.290839 0.290846 0.290853 0.29086 0.290867 
0.290874 0.290881 0.290887 0.290894 0.290901 0.290908 0.290915 0.290922 0.290929 
0.290936 0.290942 0.290949 0.290956 0.290963 0.29097 0.290977 0.290984 0.29099 
0.290997 0.291004 0.291011 0.291018 0.291025 0.291032 0.291038 0.291045 0.291052 
0.291059 0.291066 0.291073 0.29108 0.291086 0.291093 0.2911 0.291107 0.291114 
0.291121 0.291128 0.291135 0.291141 0.291148 0.291155 0.291162 0.291169 0.291176 
0.291183 0.291189 0.291196 0.291203 0.29121 0.291217 0.291224 0.291231 0.291238 
0.291245 0.291252 0.291259 0.291266 0.291273 0.29128 0.291287 0.291294 0.291301 
0.291308 0.291315 0.291322 0.291329 0.291336 0.291342 0.291348 0.291352 0.291357 
0.409961 0.409964 0.409966 0.409968 0.40997 0.409972 0.409974 0.409976 0.409978 
0.409981 0.409983 0.409985 0.409987 0.409989 0.409991 0.409993 0.409996 0.409998 
0.41 0.410002 0.410004 0.410006 0.410009 0.410011 0.410013 0.410015 0.410017 
0.410019 0.410022 0.410024 0.410026 0.410028 0.41003 0.410032 0.410034 0.410037 
0.410039 0.410041 0.410043 0.410045 0.410047 0.41005 0.410052 0.410054 0.410056 
0.410058 0.41006 0.410063 0.410065 0.410067 0.410069 0.410071 0.410073 0.410075 
0.410078 0.41008 0.410082 0.410084 0.410086 0.410088 0.410091 0.410093 0.410095 
0.410097 0.410099 0.410101 0.410103 0.410106 0.410108 0.41011 0.410112 0.410114 
0.410116 0.410119 0.410121 0.410123 0.410125 0.410127 0.410129 0.410131 0.410134 
0.410136 0.410138 0.41014 0.410142 0.410144 0.410147 0.410149 0.410151 0.410153 
0.410155 0.410157 0.410159 0.410162 0.410164 0.410166 0.405921 0.290004 0.29001 
0.290017 0.290024 0.290031 0.290038 0.290045 0.290052 0.290059 0.290066 0.290073 
0.29008 0.290087 0.290094 0.290101 0.290108 0.290115 0.290121 0.290128 0.290135 
0.290142 0.290149 0.290156 0.290163 0.29017 0.290177 0.290184 0.290191 0.290198 
0.290205 0.290212 0.290218 0.290225 0.290232 0.290239 0.290246 0.290253 0.29026 
0.290267 0.290274 0.290281 0.290288 0.290295 0.290302 0.290308 0.290315 0.290322 
0.290329 0.290336 0.290343 0.29035 0.290357 0.290364 0.290371 0.290378 0.290384 
0.290391 0.290398 0.290405 0.290412 0.290419 0.290426 0.290433 0.29044 0.290447 
0.290454 0.29046 0.290467 0.290474 0.290481 0.290488 0.290495 0.290502 0.290509 
0.290516 0.290523 0.290529 0.290536 0.290543 0.29055 0.290557 0.290564 0.290571 
0.290578 0.290585 0.290592 0.290598 0.290605 0.290612 0.290619 0.290626 0.290633 
0.29064 0.290647 0.290654 0.29066 0.290667 0.290674 0.290681 0.290688 0.290695 
0.290702 0.290709 0.290716 0.290722 0.290729 0.290736 0.290743 0.29075 0.290757 
0.290764 0.290771 0.290777 0.290784 0.290791 0.290798 0.290805 0.290812 0.290819 
0.290826 0.290832 0.290839 0.290846 0.290853 0.29086 0.290867 0.290874 0.290881 
0.290887 0.290894 0.290901 0.290908 0.290915 0.290922 0.290929 0.290936 0.290942 
0.290949 0.290956 0.290963 0.29097 0.290977 0.290984 0.29099 0.290997 0.291004 
0.291011 0.291018 0.291025 0.291032 0.291039 0.291045 0.291052 0.291059 0.291066 
0.291073 0.29108 0.291087 0.291093 0.2911 0.291107 0.291114 0.291121 0.291128 
0.291135 0.291141 0.291148 0.291155 0.291162 0.291169 0.291176 0.291183 0.29119 
0.291196 0.291203 0.29121 0.291217 0.291224 0.291231 0.291238 0.291245 0.291252 
0.291259 0.291266 0.291273 0.29128 0.291287 0.291294 0.291301 0.291308 0.291315 
0.291322 0.291329 0.291336 0.291343 0.291349 0.291356 0.291358 0.409961 0.409964 
0.409966 0.409968 0.40997 0.409972 0.409974 0.409976 0.409978 0.409981 0.409983 
0.409985 0.409987 0.409989 0.409991 0.409993 0.409996 0.409998 0.41 0.410002 
0.410004 0.410006 0.410009 0.410011 0.410013 0.410015 0.410017 0.410019 0.410022 
0.410024 0.410026 0.410028 0.41003 0.410032 0.410034 0.410037 0.410039 0.410041 
0.410043 0.410045 0.410047 0.41005 0.410052 0.410054 0.410056 0.410058 0.41006 
0.410063 0.410065 0.410067 0.410069 0.410071 0.410073 0.410075 0.410078 0.41008 
0.410082 0.410084 0.410086 0.410088 0.410091 0.410093 0.410095 0.410097 0.410099 
0.410101 0.410103 0.410106 0.410108 0.41011 0.410112 0.410114 0.410116 0.410119 
0.410121 0.410123 0.410125 0.410127 0.410129 0.410131 0.410134 0.410136 0.410138 
0.41014 0.410142 0.410144 0.410147 0.410149 0.410151 0.410153 0.410155 0.410157 
0.410159 0.410162 0.410164 0.410166 0.405921 0.290004 0.29001 0.290017 0.290024 
0.290031 0.290038 0.290045 0.290052 0.290059 0.290066 0.290073 0.29008 0.290087 
0.290094 0.290101 0.290108 0.290115 0.290121 0.290128 0.290135 0.290142 0.290149 
0.290156 0.290163 0.29017 0.290177 0.290184 0.290191 0.290198 0.290205 0.290212 
0.290218 0.290225 0.290232 0.290239 0.290246 0.290253 0.29026 0.290267 0.290274 
0.290281 0.290288 0.290295 0.290302 0.290308 0.290315 0.290322 0.290329 0.290336 
0.290343 0.29035 0.290357 0.290364 0.290371 0.290378 0.290384 0.290391 0.290398 
0.290405 0.290412 0.290419 0.290426 0.290433 0.29044 0.290447 0.290454 0.29046 
0.290467 0.290474 0.290481 0.290488 0.290495 0.290502 0.290509 0.290516 0.290523 
0.290529 0.290536 0.290543 0.29055 0.290557 0.290564 0.290571 0.290578 0.290585 
0.290592 0.290598 0.290605 0.290612 0.290619 0.290626 0.290633 0.29064 0.290647 
0.290654 0.29066 0.290667 0.290674 0.290681 0.290688 0.290695 0.290702 0.290709 
0.290716 0.290722 0.290729 0.290736 0.290743 0.29075 0.290757 0.290764 0.290771 
0.290778 0.290784 0.290791 0.290798 0.290805 0.290812 0.290819 0.290826 0.290833 
0.290839 0.290846 0.290853 0.29086 0.290867 0.290874 0.290881 0.290887 0.290894 
0.290901 0.290908 0.290915 0.290922 0.290929 0.290936 0.290942 0.290949 0.290956 
0.290963 0.29097 0.290977 0.290984 0.290991 0.290997 0.291004 0.291011 0.291018 
0.291025 0.291032 0.291039 0.291045 0.291052 0.291059 0.291066 0.291073 0.29108 
0.291087 0.291093 0.2911 0.291107 0.291114 0.291121 0.291128 0.291135 0.291141 
0.291148 0.291155 0.291162 0.291169 0.291176 0.291183 0.29119 0.291196 0.291203 
0.29121 0.291217 0.291224 0.291231 0.291238 0.291245 0.291252 0.291259 0.291266 
0.291273 0.29128 0.291287 0.291294 0.291301 0.291308 0.291315 0.291322 0.291329 
0.291337 0.291344 0.291351 0.291359 0.291368 0.409962 0.409964 0.409966 0.409968 
0.40997 0.409972 0.409974 0.409976 0.409978 0.40998 0.409983 0.409985 0.409987 
0.409989 0.409991 0.409993 0.409996 0.409998 0.41 0.410002 0.410004 0.410006 
0.410009 0.410011 0.410013 0.410015 0.410017 0.410019 0.410022 0.410024 0.410026 
0.410028 0.41003 0.410032 0.410034 0.410037 0.410039 0.410041 0.410043 0.410045 
0.410047 0.41005 0.410052 0.410054 0.410056 0.410058 0.41006 0.410063 0.410065 
0.410067 0.410069 0.410071 0.410073 0.410075 0.410078 0.41008 0.410082 0.410084 
0.410086 0.410088 0.410091 0.410093 0.410095 0.410097 0.410099 0.410101 0.410103 
0.410106 0.410108 0.41011 0.410112 0.410114 0.410116 0.410119 0.410121 0.410123 
0.410125 0.410127 0.410129 0.410131 0.410134 0.410136 0.410138 0.41014 0.410142 
0.410144 0.410147 0.410149 0.410151 0.410153 0.410155 0.410157 0.410159 0.410162 
0.410164 0.410166 0.405921 0.290004 0.29001 0.290017 0.290024 0.290031 0.290038 
0.290045 0.290052 0.290059 0.290066 0.290073 0.29008 0.290087 0.290094 0.290101 
0.290108 0.290115 0.290121 0.290128 0.290135 0.290142 0.290149 0.290156 0.290163 
0.29017 0.290177 0.290184 0.290191 0.290198 0.290205 0.290212 0.290218 0.290225 
0.290232 0.290239 0.290246 0.290253 0.29026 0.290267 0.290274 0.290281 0.290288 
0.290295 0.290302 0.290308 0.290315 0.290322 0.290329 0.290336 0.290343 0.29035 
0.290357 0.290364 0.290371 0.290378 0.290384 0.290391 0.290398 0.290405 0.290412 
0.290419 0.290426 0.290433 0.29044 0.290447 0.290454 0.29046 0.290467 0.290474 
0.290481 0.290488 0.290495 0.290502 0.290509 0.290516 0.290523 0.290529 0.290536 
0.290543 0.29055 0.290557 0.290564 0.290571 0.290578 0.290585 0.290592 0.290598 
0.290605 0.290612 0.290619 0.290626 0.290633 0.29064 0.290647 0.290654 0.29066 
0.290667 0.290674 0.290681 0.290688 0.290695 0.290702 0.290709 0.290716 0.290722 
0.290729 0.290736 0.290743 0.29075 0.290757 0.290764 0.290771 0.290778 0.290784 
0.290791 0.290798 0.290805 0.290812 0.290819 0.290826 0.290833 0.290839 0.290846 
0.290853 0.29086 0.290867 0.290874 0.290881 0.290887 0.290894 0.290901 0.290908 
0.290915 0.290922 0.290929 0.290936 0.290942 0.290949 0.290956 0.290963 0.29097 
0.290977 0.290984 0.290991 0.290997 0.291004 0.291011 0.291018 0.291025 0.291032 
0.291039 0.291045 0.291052 0.291059 0.291066 0.291073 0.29108 0.291087 0.291093 
0.2911 0.291107 0.291114 0.291121 0.291128 0.291135 0.291141 0.291148 0.291155 
0.291162 0.291169 0.291176 0.291183 0.29119 0.291196 0.291203 0.29121 0.291217 
0.291224 0.291231 0.291238 0.291245 0.291252 0.291259 0.291266 0.291273 0.29128 
0.291287 0.291294 0.291301 0.291308 0.291315 0.291322 0.29133 0.291337 0.291345 
0.291353 0.291362 0.291377 0.409961 0.409964 0.409966 0.409968 0.40997 0.409972 
0.409974 0.409976 0.409978 0.40998 0.409983 0.409985 0.409987 0.409989 0.409991 
0.409993 0.409996 0.409998 0.41 0.410002 0.410004 0.410006 0.410009 0.410011 
0.410013 0.410015 0.410017 0.410019 0.410022 0.410024 0.410026 0.410028 0.41003 
0.410032 0.410034 0.410037 0.410039 0.410041 0.410043 0.410045 0.410047 0.41005 
0.410052 0.410054 0.410056 0.410058 0.41006 0.410063 0.410065 0.410067 0.410069 
0.410071 0.410073 0.410075 0.410078 0.41008 0.410082 0.410084 0.410086 0.410088 
0.410091 0.410093 0.410095 0.410097 0.410099 0.410101 0.410103 0.410106 0.410108 
0.41011 0.410112 0.410114 0.410116 0.410119 0.410121 0.410123 0.410125 0.410127 
0.410129 0.410131 0.410134 0.410136 0.410138 0.41014 0.410142 0.410144 0.410147 
0.410149 0.410151 0.410153 0.410155 0.410157 0.410159 0.410162 0.410164 0.410166 
0.405921 0.290004 0.29001 0.290017 0.290024 0.290031 0.290038 0.290045 0.290052 
0.290059 0.290066 0.290073 0.29008 0.290087 0.290094 0.290101 0.290108 0.290115 
0.290121 0.290128 0.290135 0.290142 0.290149 0.290156 0.290163 0.29017 0.290177 
0.290184 0.290191 0.290198 0.290205 0.290212 0.290218 0.290225 0.290232 0.290239 
0.290246 0.290253 0.29026 0.290267 0.290274 0.290281 0.290288 0.290295 0.290302 
0.290308 0.290315 0.290322 0.290329 0.290336 0.290343 0.29035 0.290357 0.290364 
0.290371 0.290378 0.290384 0.290391 0.290398 0.290405 0.290412 0.290419 0.290426 
0.290433 0.29044 0.290447 0.290454 0.29046 0.290467 0.290474 0.290481 0.290488 
0.290495 0.290502 0.290509 0.290516 0.290523 0.290529 0.290536 0.290543 0.29055 
0.290557 0.290564 0.290571 0.290578 0.290585 0.290592 0.290598 0.290605 0.290612 
0.290619 0.290626 0.290633 0.29064 0.290647 0.290654 0.29066 0.290667 0.290674 
0.290681 0.290688 0.290695 0.290702 0.290709 0.290716 0.290722 0.290729 0.290736 
0.290743 0.29075 0.290757 0.290764 0.290771 0.290778 0.290784 0.290791 0.290798 
0.290805 0.290812 0.290819 0.290826 0.290833 0.290839 0.290846 0.290853 0.29086 
0.290867 0.290874 0.290881 0.290887 0.290894 0.290901 0.290908 0.290915 0.290922 
0.290929 0.290936 0.290942 0.290949 0.290956 0.290963 0.29097 0.290977 0.290984 
0.290991 0.290997 0.291004 0.291011 0.291018 0.291025 0.291032 0.291039 0.291045 
0.291052 0.291059 0.291066 0.291073 0.29108 0.291087 0.291093 0.2911 0.291107 
0.291114 0.291121 0.291128 0.291135 0.291141 0.291148 0.291155 0.291162 0.291169 
0.291176 0.291183 0.29119 0.291196 0.291203 0.29121 0.291217 0.291224 0.291231 
0.291238 0.291245 0.291252 0.291259 0.291265 0.291272 0.291279 0.291286 0.291293 
0.291301 0.291308 0.291315 0.291322 0.29133 0.291337 0.291345 0.291354 0.291365 
0.291381 0.409961 0.409963 0.409966 0.409968 0.40997 0.409972 0.409974 0.409976 
0.409978 0.40998 0.409983 0.409985 0.409987 0.409989 0.409991 0.409993 0.409996 
0.409998 0.41 0.410002 0.410004 0.410006 0.410009 0.410011 0.410013 0.410015 
0.410017 0.410019 0.410022 0.410024 0.410026 0.410028 0.41003 0.410032 0.410034 
0.410037 0.410039 0.410041 0.410043 0.410045 0.410047 0.41005 0.410052 0.410054 
0.410056 0.410058 0.41006 0.410063 0.410065 0.410067 0.410069 0.410071 0.410073 
0.410075 0.410078 0.41008 0.410082 0.410084 0.410086 0.410088 0.410091 0.410093 
0.410095 0.410097 0.410099 0.410101 0.410103 0.410106 0.410108 0.41011 0.410112 
0.410114 0.410116 0.410119 0.410121 0.410123 0.410125 0.410127 0.410129 0.410131 
0.410134 0.410136 0.410138 0.41014 0.410142 0.410144 0.410147 0.410149 0.410151 
0.410153 0.410155 0.410157 0.410159 0.410162 0.410164 0.410166 0.405921 0.290004 
0.29001 0.290017 0.290024 0.290031 0.290038 0.290045 0.290052 0.290059 0.290066 
0.290073 0.29008 0.290087 0.290094 0.290101 0.290108 0.290115 0.290121 0.290128 
0.290135 0.290142 0.290149 0.290156 0.290163 0.29017 0.290177 0.290184 0.290191 
0.290198 0.290205 0.290212 0.290218 0.290225 0.290232 0.290239 0.290246 0.290253 
0.29026 0.290267 0.290274 0.290281 0.290288 0.290295 0.290302 0.290308 0.290315 
0.290322 0.290329 0.290336 0.290343 0.29035 0.290357 0.290364 0.290371 0.290378 
0.290384 0.290391 0.290398 0.290405 0.290412 0.290419 0.290426 0.290433 0.29044 
0.290447 0.290454 0.29046 0.290467 0.290474 0.290481 0.290488 0.290495 0.290502 
0.290509 0.290516 0.290523 0.290529 0.290536 0.290543 0.29055 0.290557 0.290564 
0.290571 0.290578 0.290585 0.290592 0.290598 0.290605 0.290612 0.290619 0.290626 
0.290633 0.29064 0.290647 0.290654 0.29066 0.290667 0.290674 0.290681 0.290688 
0.290695 0.290702 0.290709 0.290716 0.290722 0.290729 0.290736 0.290743 0.29075 
0.290757 0.290764 0.290771 0.290778 0.290784 0.290791 0.290798 0.290805 0.290812 
0.290819 0.290826 0.290833 0.290839 0.290846 0.290853 0.29086 0.290867 0.290874 
0.290881 0.290887 0.290894 0.290901 0.290908 0.290915 0.290922 0.290929 0.290936 
0.290942 0.290949 0.290956 0.290963 0.29097 0.290977 0.290984 0.290991 0.290997 
0.291004 0.291011 0.291018 0.291025 0.291032 0.291039 0.291045 0.291052 0.291059 
0.291066 0.291073 0.29108 0.291087 0.291093 0.2911 0.291107 0.291114 0.291121 
0.291128 0.291135 0.291141 0.291148 0.291155 0.291162 0.291169 0.291176 0.291183 
0.291189 0.291196 0.291203 0.29121 0.291217 0.291224 0.291231 0.291238 0.291245 
0.291252 0.291258 0.291265 0.291272 0.291279 0.291286 0.291293 0.2913 0.291307 
0.291315 0.291322 0.291329 0.291337 0.291345 0.291354 0.291364 0.29138 0.409961 
0.409963 0.409965 0.409968 0.40997 0.409972 0.409974 0.409976 0.409978 0.40998 
0.409983 0.409985 0.409987 0.409989 0.409991 0.409993 0.409996 0.409998 0.41 
0.410002 0.410004 0.410006 0.410009 0.410011 0.410013 0.410015 0.410017 0.410019 
0.410022 0.410024 0.410026 0.410028 0.41003 0.410032 0.410035 0.410037 0.410039 
0.410041 0.410043 0.410045 0.410047 0.41005 0.410052 0.410054 0.410056 0.410058 
0.41006 0.410063 0.410065 0.410067 0.410069 0.410071 0.410073 0.410075 0.410078 
0.41008 0.410082 0.410084 0.410086 0.410088 0.410091 0.410093 0.410095 0.410097 
0.410099 0.410101 0.410103 0.410106 0.410108 0.41011 0.410112 0.410114 0.410116 
0.410119 0.410121 0.410123 0.410125 0.410127 0.410129 0.410131 0.410134 0.410136 
0.410138 0.41014 0.410142 0.410144 0.410147 0.410149 0.410151 0.410153 0.410155 
0.410157 0.410159 0.410162 0.410164 0.410166 0.405921 0.290004 0.29001 0.290017 
0.290024 0.290031 0.290038 0.290045 0.290052 0.290059 0.290066 0.290073 0.29008 
0.290087 0.290094 0.290101 0.290108 0.290115 0.290121 0.290128 0.290135 0.290142 
0.290149 0.290156 0.290163 0.29017 0.290177 0.290184 0.290191 0.290198 0.290205 
0.290212 0.290218 0.290225 0.290232 0.290239 0.290246 0.290253 0.29026 0.290267 
0.290274 0.290281 0.290288 0.290295 0.290302 0.290308 0.290315 0.290322 0.290329 
0.290336 0.290343 0.29035 0.290357 0.290364 0.290371 0.290378 0.290384 0.290391 
0.290398 0.290405 0.290412 0.290419 0.290426 0.290433 0.29044 0.290447 0.290454 
0.29046 0.290467 0.290474 0.290481 0.290488 0.290495 0.290502 0.290509 0.290516 
0.290523 0.290529 0.290536 0.290543 0.29055 0.290557 0.290564 0.290571 0.290578 
0.290585 0.290592 0.290598 0.290605 0.290612 0.290619 0.290626 0.290633 0.29064 
0.290647 0.290654 0.29066 0.290667 0.290674 0.290681 0.290688 0.290695 0.290702 
0.290709 0.290716 0.290722 0.290729 0.290736 0.290743 0.29075 0.290757 0.290764 
0.290771 0.290777 0.290784 0.290791 0.290798 0.290805 0.290812 0.290819 0.290826 
0.290833 0.290839 0.290846 0.290853 0.29086 0.290867 0.290874 0.290881 0.290887 
0.290894 0.290901 0.290908 0.290915 0.290922 0.290929 0.290936 0.290942 0.290949 
0.290956 0.290963 0.29097 0.290977 0.290984 0.29099 0.290997 0.291004 0.291011 
0.291018 0.291025 0.291032 0.291039 0.291045 0.291052 0.291059 0.291066 0.291073 
0.29108 0.291087 0.291093 0.2911 0.291107 0.291114 0.291121 0.291128 0.291135 
0.291141 0.291148 0.291155 0.291162 0.291169 0.291176 0.291183 0.291189 0.291196 
0.291203 0.29121 0.291217 0.291224 0.291231 0.291238 0.291245 0.291251 0.291258 
0.291265 0.291272 0.291279 0.291286 0.291293 0.2913 0.291307 0.291314 0.291321 
0.291329 0.291336 0.291344 0.291352 0.291361 0.291374 0.409961 0.409963 0.409965 
0.409967 0.40997 0.409972 0.409974 0.409976 0.409978 0.40998 0.409983 0.409985 
0.409987 0.409989 0.409991 0.409993 0.409996 0.409998 0.41 0.410002 0.410004 
0.410006 0.410009 0.410011 0.410013 0.410015 0.410017 0.410019 0.410022 0.410024 
0.410026 0.410028 0.41003 0.410032 0.410035 0.410037 0.410039 0.410041 0.410043 
0.410045 0.410047 0.41005 0.410052 0.410054 0.410056 0.410058 0.41006 0.410063 
0.410065 0.410067 0.410069 0.410071 0.410073 0.410075 0.410078 0.41008 0.410082 
0.410084 0.410086 0.410088 0.410091 0.410093 0.410095 0.410097 0.410099 0.410101 
0.410103 0.410106 0.410108 0.41011 0.410112 0.410114 0.410116 0.410119 0.410121 
0.410123 0.410125 0.410127 0.410129 0.410131 0.410134 0.410136 0.410138 0.41014 
0.410142 0.410144 0.410147 0.410149 0.410151 0.410153 0.410155 0.410157 0.410159 
0.410162 0.410164 0.410166 0.405921 0.290004 0.29001 0.290017 0.290024 0.290031 
0.290038 0.290045 0.290052 0.290059 0.290066 0.290073 0.29008 0.290087 0.290094 
0.290101 0.290108 0.290115 0.290121 0.290128 0.290135 0.290142 0.290149 0.290156 
0.290163 0.29017 0.290177 0.290184 0.290191 0.290198 0.290205 0.290212 0.290218 
0.290225 0.290232 0.290239 0.290246 0.290253 0.29026 0.290267 0.290274 0.290281 
0.290288 0.290295 0.290302 0.290308 0.290315 0.290322 0.290329 0.290336 0.290343 
0.29035 0.290357 0.290364 0.290371 0.290378 0.290384 0.290391 0.290398 0.290405 
0.290412 0.290419 0.290426 0.290433 0.29044 0.290447 0.290454 0.29046 0.290467 
0.290474 0.290481 0.290488 0.290495 0.290502 0.290509 0.290516 0.290523 0.290529 
0.290536 0.290543 0.29055 0.290557 0.290564 0.290571 0.290578 0.290585 0.290592 
0.290598 0.290605 0.290612 0.290619 0.290626 0.290633 0.29064 0.290647 0.290654 
0.29066 0.290667 0.290674 0.290681 0.290688 0.290695 0.290702 0.290709 0.290716 
0.290722 0.290729 0.290736 0.290743 0.29075 0.290757 0.290764 0.290771 0.290777 
0.290784 0.290791 0.290798 0.290805 0.290812 0.290819 0.290826 0.290832 0.290839 
0.290846 0.290853 0.29086 0.290867 0.290874 0.290881 0.290887 0.290894 0.290901 
0.290908 0.290915 0.290922 0.290929 0.290936 0.290942 0.290949 0.290956 0.290963 
0.29097 0.290977 0.290984 0.29099 0.290997 0.291004 0.291011 0.291018 0.291025 