# vtk DataFile Version 5.1
vtk output
ASCII
DATASET UNSTRUCTURED_GRID
POINTS 10043 double
-10.1 1.4499999993 0 -10.049999999 1.4499999993 0 -10.049999999 1.5 0 
-9.9999999985 1.4499999993 0 -9.9999999985 1.5 0 -9.9499999978 1.4499999993 0 
-9.9499999978 1.5 0 -9.899999997 1.4499999993 0 -9.899999997 1.5 0 
-9.8499999963 1.4499999993 0 -9.8499999963 1.5 0 -9.7999999955 1.4499999993 0 
-9.7999999955 1.5 0 -9.7499999948 1.4499999993 0 -9.7499999948 1.5 0 
-9.699999994 1.4499999993 0 -9.699999994 1.5 0 -9.6499999933 1.4499999993 0 
-9.6499999933 1.5 0 -9.5999999925 1.4499999993 0 -9.5999999925 1.5 0 
-9.5499999918 1.4499999993 0 -9.5499999918 1.5 0 -9.4999999911 1.4499999993 0 
-9.4999999911 1.5 0 -9.4499999903 1.4499999993 0 -9.4499999903 1.5 0 
-9.3999999896 1.4499999993 0 -9.3999999896 1.5 0 -9.3499999888 1.4499999993 0 
-9.3499999888 1.5 0 -9.2999999881 1.4499999993 0 -9.2999999881 1.5 0 
-9.2499999873 1.4499999993 0 -9.2499999873 1.5 0 -9.1999999866 1.4499999993 0 
-9.1999999866 1.5 0 -9.1499999858 1.4499999993 0 -9.1499999858 1.5 0 
-9.0999999851 1.4499999993 0 -9.0999999851 1.5 0 -9.0499999844 1.4499999993 0 
-9.0499999844 1.5 0 -8.9999999836 1.4499999993 0 -8.9999999836 1.5 0 
-8.9499999829 1.4499999993 0 -8.9499999829 1.5 0 -8.8999999821 1.4499999993 0 
-8.8999999821 1.5 0 -8.8499999814 1.4499999993 0 -8.8499999814 1.5 0 
-8.7999999806 1.4499999993 0 -8.7999999806 1.5 0 -8.7499999799 1.4499999993 0 
-8.7499999799 1.5 0 -8.6999999791 1.4499999993 0 -8.6999999791 1.5 0 
-8.6499999784 1.4499999993 0 -8.6499999784 1.5 0 -8.5999999776 1.4499999993 0 
-8.5999999776 1.5 0 -8.5499999769 1.4499999993 0 -8.5499999769 1.5 0 
-8.4999999762 1.4499999993 0 -8.4999999762 1.5 0 -8.4499999754 1.4499999993 0 
-8.4499999754 1.5 0 -8.3999999747 1.4499999993 0 -8.3999999747 1.5 0 
-8.3499999739 1.4499999993 0 -8.3499999739 1.5 0 -8.2999999732 1.4499999993 0 
-8.2999999732 1.5 0 -8.2499999724 1.4499999993 0 -8.2499999724 1.5 0 
-8.1999999717 1.4499999993 0 -8.1999999717 1.5 0 -8.1499999709 1.4499999993 0 
-8.1499999709 1.5 0 -8.0999999702 1.4499999993 0 -8.0999999702 1.5 0 
-8.0499999695 1.4499999993 0 -8.0499999695 1.5 0 -7.9999999687 1.4499999993 0 
-7.9999999687 1.5 0 -7.949999968 1.4499999993 0 -7.949999968 1.5 0 
-7.8999999672 1.4499999993 0 -7.8999999672 1.5 0 -7.8499999665 1.4499999993 0 
-7.8499999665 1.5 0 -7.7999999657 1.4499999993 0 -7.7999999657 1.5 0 
-7.749999965 1.4499999993 0 -7.749999965 1.5 0 -7.6999999642 1.4499999993 0 
-7.6999999642 1.5 0 -7.6499999635 1.4499999993 0 -7.6499999635 1.5 0 
-7.5999999627 1.4499999993 0 -7.5999999627 1.5 0 -7.549999962 1.4499999993 0 
-7.549999962 1.5 0 -7.4999999613 1.4499999993 0 -7.4999999613 1.5 0 
-7.4499999605 1.4499999993 0 -7.4499999605 1.5 0 -7.3999999598 1.4499999993 0 
-7.3999999598 1.5 0 -7.349999959 1.4499999993 0 -7.349999959 1.5 0 
-7.2999999583 1.4499999993 0 -7.2999999583 1.5 0 -7.2499999575 1.4499999993 0 
-7.2499999575 1.5 0 -7.1999999568 1.4499999993 0 -7.1999999568 1.5 0 
-7.149999956 1.4499999993 0 -7.149999956 1.5 0 -7.0999999553 1.4499999993 0 
-7.0999999553 1.5 0 -7.0499999546 1.4499999993 0 -7.0499999546 1.5 0 
-6.9999999538 1.4499999993 0 -6.9999999538 1.5 0 -6.9499999531 1.4499999993 0 
-6.9499999531 1.5 0 -6.8999999523 1.4499999993 0 -6.8999999523 1.5 0 
-6.8499999516 1.4499999993 0 -6.8499999516 1.5 0 -6.7999999508 1.4499999993 0 
-6.7999999508 1.5 0 -6.7499999501 1.4499999993 0 -6.7499999501 1.5 0 
-6.6999999493 1.4499999993 0 -6.6999999493 1.5 0 -6.6499999486 1.4499999993 0 
-6.6499999486 1.5 0 -6.5999999478 1.4499999993 0 -6.5999999478 1.5 0 
-6.5499999471 1.4499999993 0 -6.5499999471 1.5 0 -6.4999999464 1.4499999993 0 
-6.4999999464 1.5 0 -6.4499999456 1.4499999993 0 -6.4499999456 1.5 0 
-6.3999999449 1.4499999993 0 -6.3999999449 1.5 0 -6.3499999441 1.4499999993 0 
-6.3499999441 1.5 0 -6.2999999434 1.4499999993 0 -6.2999999434 1.5 0 
-6.2499999426 1.4499999993 0 -6.2499999426 1.5 0 -6.1999999419 1.4499999993 0 
-6.1999999419 1.5 0 -6.1499999411 1.4499999993 0 -6.1499999411 1.5 0 
-6.0999999404 1.4499999993 0 -6.0999999404 1.5 0 -6.0499999397 1.4499999993 0 
-6.0499999397 1.5 0 -5.9999999389 1.4499999993 0 -5.9999999389 1.5 0 
-5.9499999382 1.4499999993 0 -5.9499999382 1.5 0 -5.8999999374 1.4499999993 0 
-5.8999999374 1.5 0 -5.8499999367 1.4499999993 0 -5.8499999367 1.5 0 
-5.7999999359 1.4499999993 0 -5.7999999359 1.5 0 -5.7499999352 1.4499999993 0 
-5.7499999352 1.5 0 -5.6999999344 1.4499999993 0 -5.6999999344 1.5 0 
-5.6499999337 1.4499999993 0 -5.6499999337 1.5 0 -5.5999999329 1.4499999993 0 
-5.5999999329 1.5 0 -5.5499999322 1.4499999993 0 -5.5499999322 1.5 0 
-5.4999999315 1.4499999993 0 -5.4999999315 1.5 0 -5.4499999307 1.4499999993 0 
-5.4499999307 1.5 0 -5.39999993 1.4499999993 0 -5.39999993 1.5 0 
-5.3499999292 1.4499999993 0 -5.3499999292 1.5 0 -5.2999999285 1.4499999993 0 
-5.2999999285 1.5 0 -5.2499999277 1.4499999993 0 -5.2499999277 1.5 0 
-5.199999927 1.4499999993 0 -5.199999927 1.5 0 -5.1499999262 1.4499999993 0 
-5.1499999262 1.5 0 -5.0999999255 1.4499999993 0 -5.0999999255 1.5 0 
-5.0499999247 1.4499999993 0 -5.0499999247 1.5 0 -4.999999924 1.4499999993 0 
-4.999999924 1.5 0 -4.9499999233 1.4499999993 0 -4.9499999233 1.5 0 
-4.8999999225 1.4499999993 0 -4.8999999225 1.5 0 -4.8499999218 1.4499999993 0 
-4.8499999218 1.5 0 -4.799999921 1.4499999993 0 -4.799999921 1.5 0 
-4.7499999203 1.4499999993 0 -4.7499999203 1.5 0 -4.6999999195 1.4499999993 0 
-4.6999999195 1.5 0 -4.6499999188 1.4499999993 0 -4.6499999188 1.5 0 
-4.599999918 1.4499999993 0 -4.599999918 1.5 0 -4.5499999173 1.4499999993 0 
-4.5499999173 1.5 0 -4.4999999166 1.4499999993 0 -4.4999999166 1.5 0 
-4.4499999158 1.4499999993 0 -4.4499999158 1.5 0 -4.3999999151 1.4499999993 0 
-4.3999999151 1.5 0 -4.3499999143 1.4499999993 0 -4.3499999143 1.5 0 
-4.2999999136 1.4499999993 0 -4.2999999136 1.5 0 -4.2499999128 1.4499999993 0 
-4.2499999128 1.5 0 -4.1999999121 1.4499999993 0 -4.1999999121 1.5 0 
-4.1499999113 1.4499999993 0 -4.1499999113 1.5 0 -4.0999999106 1.4499999993 0 
-4.0999999106 1.5 0 -4.0499999098 1.4499999993 0 -4.0499999098 1.5 0 
-3.9999999091 1.4499999993 0 -3.9999999091 1.5 0 -3.9499999084 1.4499999993 0 
-3.9499999084 1.5 0 -3.8999999076 1.4499999993 0 -3.8999999076 1.5 0 
-3.8499999069 1.4499999993 0 -3.8499999069 1.5 0 -3.7999999061 1.4499999993 0 
-3.7999999061 1.5 0 -3.7499999054 1.4499999993 0 -3.7499999054 1.5 0 
-3.6999999046 1.4499999993 0 -3.6999999046 1.5 0 -3.6499999039 1.4499999993 0 
-3.6499999039 1.5 0 -3.5999999031 1.4499999993 0 -3.5999999031 1.5 0 
-3.5499999024 1.4499999993 0 -3.5499999024 1.5 0 -3.4999999017 1.4499999993 0 
-3.4999999017 1.5 0 -3.4499999009 1.4499999993 0 -3.4499999009 1.5 0 
-3.3999999002 1.4499999993 0 -3.3999999002 1.5 0 -3.3499998994 1.4499999993 0 
-3.3499998994 1.5 0 -3.2999998987 1.4499999993 0 -3.2999998987 1.5 0 
-3.2499998979 1.4499999993 0 -3.2499998979 1.5 0 -3.1999998972 1.4499999993 0 
-3.1999998972 1.5 0 -3.1499998964 1.4499999993 0 -3.1499998964 1.5 0 
-3.0999998957 1.4499999993 0 -3.0999998957 1.5 0 -3.0499998949 1.4499999993 0 
-3.0499998949 1.5 0 -2.9999998942 1.4499999993 0 -2.9999998942 1.5 0 
-2.9499998935 1.4499999993 0 -2.9499998935 1.5 0 -2.8999998927 1.4499999993 0 
-2.8999998927 1.5 0 -2.849999892 1.4499999993 0 -2.849999892 1.5 0 
-2.7999998912 1.4499999993 0 -2.7999998912 1.5 0 -2.7499998905 1.4499999993 0 
-2.7499998905 1.5 0 -2.6999998897 1.4499999993 0 -2.6999998897 1.5 0 
-2.649999889 1.4499999993 0 -2.649999889 1.5 0 -2.5999998882 1.4499999993 0 
-2.5999998882 1.5 0 -2.5499998875 1.4499999993 0 -2.5499998875 1.5 0 
-2.4999998868 1.4499999993 0 -2.4999998868 1.5 0 -2.449999886 1.4499999993 0 
-2.449999886 1.5 0 -2.3999998853 1.4499999993 0 -2.3999998853 1.5 0 
-2.3499998845 1.4499999993 0 -2.3499998845 1.5 0 -2.2999998838 1.4499999993 0 
-2.2999998838 1.5 0 -2.249999883 1.4499999993 0 -2.249999883 1.5 0 
-2.1999998823 1.4499999993 0 -2.1999998823 1.5 0 -2.1499998815 1.4499999993 0 
-2.1499998815 1.5 0 -2.0999998808 1.4499999993 0 -2.0999998808 1.5 0 
-2.04999988 1.4499999993 0 -2.04999988 1.5 0 -1.9999998793 1.4499999993 0 
-1.9999998793 1.5 0 -1.9499998786 1.4499999993 0 -1.9499998786 1.5 0 
-1.8999998778 1.4499999993 0 -1.8999998778 1.5 0 -1.8499998771 1.4499999993 0 
-1.8499998771 1.5 0 -1.7999998763 1.4499999993 0 -1.7999998763 1.5 0 
-1.7499998756 1.4499999993 0 -1.7499998756 1.5 0 -1.6999998748 1.4499999993 0 
-1.6999998748 1.5 0 -1.6499998741 1.4499999993 0 -1.6499998741 1.5 0 
-1.5999998733 1.4499999993 0 -1.5999998733 1.5 0 -1.5499998726 1.4499999993 0 
-1.5499998726 1.5 0 -1.4999998718 1.4499999993 0 -1.4999998718 1.5 0 
-1.4499998711 1.4499999993 0 -1.4499998711 1.5 0 -1.3999998704 1.4499999993 0 
-1.3999998704 1.5 0 -1.3499998696 1.4499999993 0 -1.3499998696 1.5 0 
-1.2999998689 1.4499999993 0 -1.2999998689 1.5 0 -1.2499998681 1.4499999993 0 
-1.2499998681 1.5 0 -1.1999998674 1.4499999993 0 -1.1999998674 1.5 0 
-1.1499998666 1.4499999993 0 -1.1499998666 1.5 0 -1.0999998659 1.4499999993 0 
-1.0999998659 1.5 0 -1.0499998651 1.4499999993 0 -1.0499998651 1.5 0 
-0.9999998644 1.4499999993 0 -0.9999998644 1.5 0 -0.94999986365 1.4499999993 0 
-0.94999986365 1.5 0 -0.89999986291 1.4499999993 0 -0.89999986291 1.5 0 
-0.84999986216 1.4499999993 0 -0.84999986216 1.5 0 -0.79999986142 1.4499999993 0 
-0.79999986142 1.5 0 -0.74999986067 1.4499999993 0 -0.74999986067 1.5 0 
-0.69999985993 1.4499999993 0 -0.69999985993 1.5 0 -0.64999985918 1.4499999993 0 
-0.64999985918 1.5 0 -0.59999985844 1.4499999993 0 -0.59999985844 1.5 0 
-0.54999985769 1.4499999993 0 -0.54999985769 1.5 0 -0.49999985695 1.4499999993 0 
-0.49999985695 1.5 0 -0.4499998562 1.4499999993 0 -0.4499998562 1.5 0 
-0.39999985546 1.4499999993 0 -0.39999985546 1.5 0 -0.34999985471 1.4499999993 0 
-0.34999985471 1.5 0 -0.29999985397 1.4499999993 0 -0.29999985397 1.5 0 
-0.24999985322 1.4499999993 0 -0.24999985322 1.5 0 -0.191663057 1.4499999993 0 
-0.17548248559 1.5 0 0.18862900414 1.4499999993 0 0.25000015423 1.4499999993 0 
[...]
CELL_DATA 9510
FIELD FieldData 4
Water_Depth_m 1 9510 float
0.344994 0.344984 0.344973 0.344964 0.344954 0.344945 0.344937 0.34493 0.344923 
0.344918 0.344914 0.344911 0.344911 0.344911 0.344914 0.344919 0.344926 0.344936 
0.344948 0.344962 0.344979 0.344999 0.345021 0.345046 0.345074 0.345105 0.345137 
0.345173 0.34521 0.34525 0.345291 0.345335 0.345379 0.345425 0.345471 0.345518 
0.345566 0.345613 0.34566 0.345707 0.345753 0.345798 0.345841 0.345883 0.345924 
0.345962 0.345999 0.346033 0.346065 0.346094 0.346121 0.346146 0.346167 0.346186 
0.346202 0.346215 0.346226 0.346233 0.346237 0.346239 0.346237 0.346233 0.346225 
0.346214 0.346201 0.346184 0.346164 0.346141 0.346115 0.346086 0.346054 0.346019 
0.345981 0.345939 0.345895 0.345847 0.345797 0.345743 0.345688 0.345629 0.345569 
0.345507 0.345443 0.345378 0.345312 0.345247 0.345182 0.345118 0.345056 0.344997 
0.344941 0.344889 0.344843 0.344802 0.344768 0.34474 0.34472 0.344707 0.344703 
0.344706 0.344717 0.344736 0.344761 0.344792 0.344828 0.344868 0.344912 0.344957 
0.345002 0.345048 0.345091 0.345133 0.34517 0.345204 0.345233 0.345257 0.345275 
0.345287 0.345294 0.345295 0.345291 0.345282 0.345269 0.345252 0.345231 0.345209 
0.345185 0.34516 0.345135 0.345111 0.345089 0.34507 0.345053 0.34504 0.345032 
0.345027 0.345027 0.345031 0.345039 0.345051 0.345066 0.345084 0.345104 0.345126 
0.34515 0.345175 0.3452 0.345226 0.345251 0.345277 0.345302 0.345326 0.34535 
0.345373 0.345395 0.345417 0.345438 0.345458 0.345477 0.345496 0.345514 0.345532 
0.345549 0.345565 0.345581 0.345597 0.345612 0.345628 0.345643 0.345659 0.345675 
0.345692 0.345711 0.34573 0.345751 0.345775 0.3458 0.34583 0.345862 0.3459 
0.345942 0.345991 0.346047 0.346111 0.346185 0.346269 0.346366 0.346476 0.346601 
0.346743 0.346904 0.347082 0.347283 0.347503 0.347744 0.347943 0.348225 0.348536 
0.352399 0.352813 0.353152 0.353464 0.353747 0.354004 0.354237 0.354446 0.354633 
0.354801 0.354952 0.355086 0.355206 0.355314 0.35541 0.355495 0.355572 0.355641 
0.355702 0.355757 0.355807 0.355852 0.355892 0.355928 0.35596 0.35599 0.356016 
0.356041 0.356063 0.356082 0.356101 0.356117 0.356132 0.356146 0.356159 0.356171 
0.356181 0.356191 0.3562 0.356209 0.356217 0.356224 0.356231 0.356237 0.356243 
0.356248 0.356254 0.356259 0.356263 0.356268 0.356272 0.356276 0.356279 0.356283 
0.356286 0.35629 0.356293 0.356296 0.356299 0.356301 0.356304 0.356306 0.356309 
0.356311 0.356314 0.356316 0.356318 0.35632 0.356322 0.356324 0.356326 0.356328 
0.35633 0.356331 0.356333 0.356335 0.356336 0.356338 0.356339 0.356341 0.356342 
0.356344 0.356345 0.356346 0.356347 0.356349 0.35635 0.356351 0.356352 0.356353 
0.356354 0.356355 0.356356 0.356357 0.356304 0.356299 0.351562 0.344994 0.344984 
0.344974 0.344964 0.344954 0.344945 0.344937 0.344929 0.344923 0.344917 0.344913 
0.34491 0.344909 0.34491 0.344913 0.344917 0.344924 0.344934 0.344945 0.34496 
0.344976 0.344996 0.345018 0.345043 0.345071 0.345101 0.345134 0.34517 0.345207 
0.345247 0.345288 0.345332 0.345376 0.345422 0.345469 0.345516 0.345564 0.345612 
0.345659 0.345706 0.345752 0.345797 0.345841 0.345883 0.345924 0.345963 0.345999 
0.346034 0.346066 0.346096 0.346123 0.346147 0.346169 0.346188 0.346204 0.346218 
0.346228 0.346236 0.34624 0.346242 0.34624 0.346236 0.346229 0.346218 0.346205 
0.346188 0.346168 0.346146 0.34612 0.346091 0.346059 0.346023 0.345985 0.345944 
0.345899 0.345852 0.345801 0.345748 0.345692 0.345633 0.345573 0.34551 0.345446 
0.34538 0.345314 0.345248 0.345182 0.345118 0.345055 0.344995 0.344938 0.344886 
0.344839 0.344797 0.344762 0.344734 0.344713 0.344701 0.344696 0.344699 0.34471 
0.344729 0.344755 0.344786 0.344823 0.344864 0.344908 0.344955 0.345001 0.345048 
0.345093 0.345135 0.345174 0.345208 0.345238 0.345262 0.34528 0.345293 0.3453 
0.345301 0.345297 0.345287 0.345274 0.345256 0.345235 0.345212 0.345187 0.345161 
0.345136 0.345111 0.345088 0.345068 0.345051 0.345038 0.345028 0.345024 0.345023 
0.345027 0.345036 0.345048 0.345063 0.345082 0.345102 0.345125 0.345149 0.345174 
0.3452 0.345225 0.345251 0.345277 0.345302 0.345326 0.34535 0.345373 0.345396 
0.345417 0.345438 0.345458 0.345478 0.345497 0.345515 0.345532 0.345549 0.345565 
0.345581 0.345597 0.345612 0.345627 0.345643 0.345658 0.345675 0.345691 0.345709 
0.345728 0.345749 0.345772 0.345797 0.345826 0.345858 0.345894 0.345936 0.345984 
0.346038 0.346101 0.346173 0.346256 0.34635 0.346458 0.346581 0.346721 0.346879 
0.347056 0.347255 0.347469 0.347708 0.347965 0.3483 0.348787 0.352394 0.352812 
0.353155 0.353468 0.353753 0.354012 0.354244 0.354454 0.354641 0.354809 0.354959 
0.355093 0.355213 0.35532 0.355415 0.355501 0.355577 0.355645 0.355706 0.355761 
0.35581 0.355854 0.355894 0.35593 0.355962 0.355992 0.356018 0.356042 0.356064 
0.356084 0.356102 0.356118 0.356133 0.356147 0.35616 0.356171 0.356182 0.356192 
0.356201 0.356209 0.356217 0.356224 0.356231 0.356237 0.356243 0.356249 0.356254 
0.356259 0.356263 0.356268 0.356272 0.356276 0.356279 0.356283 0.356286 0.35629 
0.356293 0.356296 0.356299 0.356301 0.356304 0.356306 0.356309 0.356311 0.356314 
0.356316 0.356318 0.35632 0.356322 0.356324 0.356326 0.356328 0.35633 0.356331 
0.356333 0.356335 0.356336 0.356338 0.356339 0.356341 0.356342 0.356344 0.356345 
0.356346 0.356348 0.356349 0.35635 0.356351 0.356352 0.356353 0.356354 0.356355 
0.356356 0.356357 0.356304 0.356299 0.351562 0.344994 0.344983 0.344973 0.344963 
0.344953 0.344944 0.344935 0.344927 0.344921 0.344915 0.34491 0.344907 0.344906 
0.344906 0.344909 0.344913 0.34492 0.344929 0.34494 0.344955 0.344971 0.344991 
0.345013 0.345038 0.345066 0.345096 0.345129 0.345165 0.345203 0.345243 0.345285 
0.345328 0.345374 0.34542 0.345467 0.345515 0.345563 0.345611 0.345659 0.345707 
0.345753 0.345799 0.345843 0.345886 0.345927 0.345966 0.346003 0.346038 0.34607 
0.3461 0.346128 0.346152 0.346174 0.346194 0.34621 0.346223 0.346234 0.346241 
0.346246 0.346248 0.346246 0.346242 0.346234 0.346224 0.34621 0.346194 0.346174 
0.346151 0.346125 0.346096 0.346064 0.346028 0.34599 0.345948 0.345903 0.345855 
0.345804 0.34575 0.345694 0.345635 0.345573 0.34551 0.345445 0.345378 0.345311 
0.345244 0.345177 0.345111 0.345047 0.344986 0.344928 0.344874 0.344826 0.344783 
0.344747 0.344719 0.344698 0.344685 0.34468 0.344684 0.344696 0.344716 0.344743 
0.344776 0.344815 0.344858 0.344904 0.344953 0.345002 0.34505 0.345097 0.345141 
0.345182 0.345217 0.345248 0.345273 0.345291 0.345304 0.34531 0.345311 0.345306 
0.345296 0.345281 0.345261 0.345239 0.345214 0.345187 0.34516 0.345133 0.345107 
0.345082 0.345061 0.345043 0.345029 0.34502 0.345015 0.345015 0.345019 0.345028 
0.345041 0.345058 0.345077 0.345099 0.345122 0.345147 0.345173 0.345199 0.345226 
0.345252 0.345278 0.345303 0.345327 0.345351 0.345375 0.345397 0.345419 0.34544 
0.34546 0.345479 0.345498 0.345516 0.345533 0.34555 0.345566 0.345582 0.345597 
0.345613 0.345627 0.345642 0.345658 0.345673 0.34569 0.345707 0.345725 0.345745 
0.345767 0.345791 0.345819 0.34585 0.345885 0.345925 0.34597 0.346023 0.346083 
0.346152 0.346232 0.346323 0.346428 0.346548 0.346684 0.346839 0.347013 0.347209 
0.347427 0.347662 0.347937 0.348258 0.348642 0.352403 0.352827 0.353174 0.35349 
0.353778 0.354037 0.35427 0.354479 0.354665 0.354832 0.35498 0.355113 0.355231 
0.355336 0.35543 0.355514 0.355589 0.355656 0.355716 0.35577 0.355818 0.355862 
0.355901 0.355936 0.355968 0.355997 0.356023 0.356046 0.356067 0.356087 0.356105 
0.356121 0.356136 0.356149 0.356162 0.356173 0.356183 0.356193 0.356202 0.35621 
0.356218 0.356225 0.356232 0.356238 0.356244 0.356249 0.356254 0.356259 0.356264 
0.356268 0.356272 0.356276 0.35628 0.356283 0.356287 0.35629 0.356293 0.356296 
0.356299 0.356301 0.356304 0.356307 0.356309 0.356311 0.356314 0.356316 0.356318 
0.35632 0.356322 0.356324 0.356326 0.356328 0.35633 0.356331 0.356333 0.356335 
0.356336 0.356338 0.356339 0.356341 0.356342 0.356344 0.356345 0.356346 0.356348 
0.356349 0.35635 0.356351 0.356352 0.356353 0.356354 0.356355 0.356356 0.356357 
0.356304 0.356299 0.351562 0.344993 0.344983 0.344972 0.344962 0.344951 0.344942 
0.344933 0.344924 0.344917 0.344911 0.344906 0.344902 0.344901 0.344901 0.344903 
0.344907 0.344913 0.344922 0.344933 0.344947 0.344964 0.344983 0.345005 0.34503 
0.345058 0.345089 0.345122 0.345158 0.345196 0.345237 0.345279 0.345324 0.345369 
0.345416 0.345464 0.345513 0.345562 0.345611 0.345659 0.345708 0.345755 0.345801 
0.345846 0.345889 0.345931 0.345971 0.346008 0.346044 0.346077 0.346107 0.346135 
0.34616 0.346182 0.346202 0.346218 0.346232 0.346242 0.34625 0.346255 0.346256 
0.346255 0.34625 0.346243 0.346232 0.346219 0.346202 0.346182 0.346159 0.346133 
0.346104 0.346071 0.346036 0.345997 0.345955 0.345909 0.345861 0.345809 0.345754 
0.345697 0.345637 0.345574 0.345509 0.345443 0.345375 0.345306 0.345237 0.345168 
0.345101 0.345035 0.344972 0.344912 0.344857 0.344806 0.344763 0.344725 0.344696 
0.344674 0.344661 0.344657 0.344662 0.344675 0.344696 0.344725 0.344761 0.344803 
0.344849 0.344899 0.34495 0.345003 0.345055 0.345104 0.345151 0.345194 0.345232 
0.345264 0.345289 0.345309 0.345321 0.345327 0.345326 0.34532 0.345308 0.345291 
0.34527 0.345245 0.345217 0.345188 0.345158 0.345128 0.3451 0.345074 0.345051 
0.345031 0.345016 0.345006 0.345002 0.345002 0.345007 0.345017 0.345031 0.345049 
0.34507 0.345093 0.345118 0.345144 0.345171 0.345199 0.345226 0.345252 0.345279 
0.345304 0.345329 0.345353 0.345377 0.345399 0.345421 0.345442 0.345462 0.345481 
0.3455 0.345518 0.345535 0.345552 0.345568 0.345583 0.345598 0.345613 0.345627 
0.345642 0.345656 0.345671 0.345687 0.345703 0.345721 0.345739 0.34576 0.345783 
0.345809 0.345837 0.34587 0.345908 0.345951 0.346 0.346057 0.346122 0.346197 
0.346284 0.346383 0.346497 0.346628 0.346778 0.346947 0.347139 0.347357 0.347591 
0.347869 0.348162 0.348498 0.352416 0.35285 0.353204 0.353525 0.353815 0.354076 
0.354309 0.354516 0.354702 0.354866 0.355012 0.355143 0.355258 0.355361 0.355453 
0.355535 0.355608 0.355673 0.355732 0.355784 0.355831 0.355873 0.355911 0.355945 
0.355976 0.356004 0.356029 0.356052 0.356073 0.356092 0.356109 0.356125 0.356139 
0.356152 0.356164 0.356175 0.356186 0.356195 0.356204 0.356212 0.356219 0.356226 
0.356233 0.356239 0.356245 0.35625 0.356255 0.35626 0.356264 0.356269 0.356273 
0.356276 0.35628 0.356284 0.356287 0.35629 0.356293 0.356296 0.356299 0.356302 
0.356304 0.356307 0.356309 0.356312 0.356314 0.356316 0.356318 0.35632 0.356322 
0.356324 0.356326 0.356328 0.35633 0.356331 0.356333 0.356335 0.356336 0.356338 
0.356339 0.356341 0.356342 0.356344 0.356345 0.356346 0.356348 0.356349 0.35635 
0.356351 0.356352 0.356353 0.356354 0.356355 0.356356 0.356357 0.356304 0.356299 
0.351562 0.344993 0.344982 0.344971 0.34496 0.344949 0.344939 0.344929 0.34492 
0.344912 0.344906 0.3449 0.344896 0.344894 0.344893 0.344894 0.344898 0.344904 
0.344912 0.344923 0.344937 0.344953 0.344972 0.344995 0.34502 0.345048 0.345079 
0.345112 0.345149 0.345188 0.345229 0.345272 0.345317 0.345364 0.345412 0.345461 
0.34551 0.34556 0.34561 0.34566 0.345709 0.345757 0.345804 0.34585 0.345894 
0.345937 0.345977 0.346016 0.346051 0.346085 0.346116 0.346144 0.34617 0.346192 
0.346212 0.346229 0.346243 0.346254 0.346261 0.346266 0.346268 0.346266 0.346262 
0.346254 0.346244 0.34623 0.346213 0.346193 0.34617 0.346144 0.346114 0.346081 
0.346045 0.346006 0.345963 0.345917 0.345868 0.345815 0.34576 0.345701 0.34564 
0.345575 0.345509 0.345441 0.345371 0.3453 0.345228 0.345157 0.345087 0.345018 
0.344953 0.34489 0.344833 0.34478 0.344734 0.344696 0.344665 0.344643 0.344629 
0.344625 0.344631 0.344646 0.344669 0.344701 0.34474 0.344786 0.344836 0.344891 
0.344947 0.345004 0.34506 0.345114 0.345165 0.345211 0.345251 0.345285 0.345312 
0.345332 0.345344 0.345349 0.345347 0.345339 0.345325 0.345305 0.345281 0.345253 
0.345222 0.345189 0.345155 0.345122 0.345091 0.345062 0.345036 0.345015 0.344999 
0.344988 0.344983 0.344984 0.34499 0.345002 0.345018 0.345038 0.345061 0.345086 
0.345113 0.345141 0.345169 0.345198 0.345226 0.345254 0.345281 0.345307 0.345332 
0.345356 0.345379 0.345402 0.345424 0.345444 0.345464 0.345484 0.345502 0.34552 
0.345537 0.345554 0.345569 0.345585 0.345599 0.345613 0.345627 0.345641 0.345655 
0.345669 0.345684 0.345699 0.345715 0.345732 0.345751 0.345772 0.345795 0.345822 
0.345852 0.345886 0.345925 0.34597 0.346022 0.346082 0.346151 0.346232 0.346324 
0.346431 0.346554 0.346696 0.346858 0.347044 0.347256 0.347487 0.347762 0.348035 
0.348338 0.352433 0.352882 0.353245 0.353573 0.353867 0.354129 0.354361 0.354568 
0.35475 0.354912 0.355055 0.355182 0.355295 0.355395 0.355483 0.355562 0.355633 
0.355696 0.355752 0.355802 0.355847 0.355888 0.355924 0.355957 0.355987 0.356014 
0.356038 0.35606 0.35608 0.356098 0.356115 0.35613 0.356144 0.356156 0.356168 
0.356179 0.356189 0.356198 0.356206 0.356214 0.356221 0.356228 0.356235 0.35624 
0.356246 0.356251 0.356256 0.356261 0.356265 0.356269 0.356273 0.356277 0.356281 
0.356284 0.356287 0.356291 0.356294 0.356296 0.356299 0.356302 0.356304 0.356307 
0.356309 0.356312 0.356314 0.356316 0.356318 0.35632 0.356322 0.356324 0.356326 
0.356328 0.35633 0.356332 0.356333 0.356335 0.356336 0.356338 0.356339 0.356341 
0.356342 0.356344 0.356345 0.356346 0.356348 0.356349 0.35635 0.356351 0.356352 
0.356353 0.356354 0.356355 0.356356 0.356357 0.356304 0.356299 0.351562 0.344993 
0.344981 0.344969 0.344958 0.344946 0.344935 0.344925 0.344915 0.344907 0.344899 
0.344893 0.344888 0.344885 0.344884 0.344885 0.344888 0.344893 0.344901 0.344911 
0.344924 0.344941 0.34496 0.344982 0.345007 0.345035 0.345066 0.3451 0.345137 
0.345177 0.345219 0.345263 0.345309 0.345357 0.345406 0.345456 0.345507 0.345558 
0.34561 0.34566 0.345711 0.34576 0.345809 0.345856 0.345901 0.345944 0.345985 
0.346025 0.346061 0.346095 0.346127 0.346156 0.346182 0.346205 0.346225 0.346242 
0.346256 0.346267 0.346275 0.34628 0.346282 0.34628 0.346276 0.346268 0.346258 
0.346244 0.346227 0.346207 0.346183 0.346157 0.346127 0.346094 0.346057 0.346017 
0.345974 0.345927 0.345877 0.345823 0.345766 0.345706 0.345643 0.345577 0.345509 
0.345438 0.345366 0.345292 0.345218 0.345143 0.34507 0.344998 0.344929 0.344863 
0.344803 0.344747 0.344699 0.344658 0.344626 0.344603 0.344589 0.344585 0.344592 
0.344609 0.344635 0.344671 0.344714 0.344765 0.344821 0.344881 0.344943 0.345006 
0.345068 0.345127 0.345182 0.345232 0.345275 0.345312 0.34534 0.345361 0.345373 
0.345377 0.345374 0.345364 0.345346 0.345323 0.345295 0.345262 0.345227 0.34519 
0.345152 0.345114 0.345078 0.345046 0.345017 0.344994 0.344976 0.344964 0.344959 
0.344961 0.344969 0.344983 0.345001 0.345024 0.34505 0.345078 0.345107 0.345137 
0.345168 0.345198 0.345227 0.345256 0.345283 0.34531 0.345335 0.34536 0.345383 
0.345405 0.345427 0.345448 0.345468 0.345487 0.345506 0.345523 0.34554 0.345556 
0.345572 0.345587 0.345601 0.345614 0.345628 0.345641 0.345653 0.345666 0.34568 
0.345693 0.345708 0.345724 0.34574 0.345759 0.34578 0.345803 0.34583 0.34586 
0.345894 0.345934 0.345981 0.346034 0.346096 0.346168 0.346252 0.346349 0.346462 
0.346593 0.346745 0.346921 0.347126 0.347349 0.347619 0.347879 0.348154 0.352457 
0.352925 0.353301 0.353636 0.353934 0.354197 0.354429 0.354633 0.354812 0.35497 
0.355109 0.355231 0.35534 0.355436 0.355521 0.355596 0.355663 0.355723 0.355777 
0.355825 0.355867 0.355906 0.355941 0.355972 0.356 0.356025 0.356049 0.356069 
0.356088 0.356106 0.356122 0.356136 0.356149 0.356161 0.356173 0.356183 0.356192 
0.356201 0.356209 0.356217 0.356224 0.35623 0.356237 0.356242 0.356248 0.356253 
0.356257 0.356262 0.356266 0.35627 0.356274 0.356278 0.356281 0.356285 0.356288 
0.356291 0.356294 0.356297 0.3563 0.356302 0.356305 0.356307 0.35631 0.356312 
0.356314 0.356316 0.356318 0.35632 0.356322 0.356324 0.356326 0.356328 0.35633 
0.356332 0.356333 0.356335 0.356336 0.356338 0.356339 0.356341 0.356342 0.356344 
0.356345 0.356346 0.356348 0.356349 0.35635 0.356351 0.356352 0.356353 0.356354 
0.356355 0.356356 0.356357 0.356304 0.356299 0.351562 0.344992 0.34498 0.344967 
0.344955 0.344943 0.344931 0.34492 0.344909 0.3449 0.344891 0.344884 0.344879 
0.344875 0.344873 0.344873 0.344875 0.34488 0.344887 0.344897 0.34491 0.344925 
0.344944 0.344966 0.344991 0.34502 0.345052 0.345086 0.345124 0.345165 0.345208 
0.345253 0.3453 0.345349 0.3454 0.345451 0.345504 0.345556 0.345609 0.345661 
0.345713 0.345764 0.345814 0.345862 0.345908 0.345953 0.345995 0.346035 0.346073 
0.346108 0.34614 0.346169 0.346196 0.34622 0.34624 0.346258 0.346272 0.346283 
0.346291 0.346296 0.346298 0.346296 0.346292 0.346284 0.346274 0.34626 0.346243 
0.346222 0.346199 0.346172 0.346141 0.346108 0.346071 0.34603 0.345986 0.345938 
0.345887 0.345832 0.345774 0.345712 0.345647 0.345579 0.345508 0.345435 0.345359 
0.345283 0.345205 0.345127 0.345049 0.344974 0.344901 0.344831 0.344767 0.344708 
0.344656 0.344613 0.344579 0.344554 0.34454 0.344537 0.344545 0.344565 0.344594 
0.344634 0.344683 0.344739 0.344802 0.344869 0.344938 0.345008 0.345077 0.345143 
0.345203 0.345258 0.345306 0.345345 0.345375 0.345397 0.345408 0.345411 0.345406 
0.345393 0.345372 0.345345 0.345312 0.345274 0.345233 0.34519 0.345146 0.345103 
0.345063 0.345025 0.344993 0.344967 0.344947 0.344935 0.34493 0.344933 0.344943 
0.344959 0.344981 0.345007 0.345036 0.345068 0.3451 0.345134 0.345166 0.345198 
0.345229 0.345259 0.345287 0.345314 0.34534 0.345364 0.345387 0.34541 0.345432 
0.345452 0.345472 0.345492 0.34551 0.345527 0.345544 0.34556 0.345575 0.345589 
0.345603 0.345616 0.345628 0.34564 0.345652 0.345664 0.345676 0.345688 0.3457 
0.345714 0.345729 0.345745 0.345762 0.345782 0.345805 0.34583 0.34586 0.345893 
0.345933 0.345979 0.346032 0.346095 0.346168 0.346253 0.346354 0.346471 0.346609 
0.346771 0.346962 0.347174 0.347433 0.347685 0.347949 0.35249 0.352982 0.353372 
0.353717 0.354019 0.354282 0.354512 0.354712 0.354887 0.35504 0.355173 0.35529 
0.355393 0.355485 0.355565 0.355636 0.355699 0.355756 0.355806 0.355851 0.355891 
0.355927 0.35596 0.355989 0.356015 0.356039 0.356061 0.356081 0.356099 0.356115 
0.35613 0.356143 0.356156 0.356167 0.356178 0.356188 0.356197 0.356205 0.356213 
0.35622 0.356227 0.356233 0.356239 0.356244 0.356249 0.356254 0.356259 0.356263 
0.356267 0.356271 0.356275 0.356279 0.356282 0.356285 0.356289 0.356292 0.356295 
0.356297 0.3563 0.356303 0.356305 0.356308 0.35631 0.356312 0.356314 0.356317 
0.356319 0.356321 0.356323 0.356325 0.356326 0.356328 0.35633 0.356332 0.356333 
0.356335 0.356337 0.356338 0.35634 0.356341 0.356342 0.356344 0.356345 0.356346 
0.356348 0.356349 0.35635 0.356351 0.356352 0.356353 0.356354 0.356355 0.356356 
0.356357 0.356304 0.356299 0.351562 0.344992 0.344978 0.344965 0.344952 0.344939 
0.344926 0.344914 0.344902 0.344892 0.344883 0.344875 0.344868 0.344863 0.34486 
0.344859 0.344861 0.344865 0.344871 0.344881 0.344893 0.344908 0.344927 0.344949 
0.344974 0.345003 0.345035 0.34507 0.345109 0.34515 0.345195 0.345241 0.34529 
0.345341 0.345393 0.345446 0.3455 0.345554 0.345609 0.345663 0.345716 0.345769 
0.34582 0.345869 0.345917 0.345963 0.346006 0.346048 0.346086 0.346122 0.346155 
0.346185 0.346212 0.346236 0.346257 0.346275 0.34629 0.346301 0.346309 0.346314 
0.346316 0.346315 0.34631 0.346303 0.346292 0.346278 0.34626 0.34624 0.346216 
0.346189 0.346158 0.346123 0.346086 0.346044 0.345999 0.345951 0.345898 0.345842 
0.345782 0.345719 0.345652 0.345581 0.345508 0.345431 0.345353 0.345272 0.34519 
0.345108 0.345026 0.344946 0.344868 0.344794 0.344725 0.344662 0.344607 0.34456 
0.344524 0.344498 0.344483 0.344481 0.344491 0.344512 0.344546 0.344591 0.344646 
0.34471 0.34478 0.344855 0.344933 0.345012 0.345088 0.345161 0.345229 0.345289 
0.345341 0.345384 0.345416 0.345438 0.34545 0.345451 0.345444 0.345427 0.345402 
0.34537 0.345331 0.345287 0.34524 0.34519 0.345139 0.34509 0.345043 0.345001 
0.344964 0.344934 0.344912 0.344899 0.344894 0.344899 0.344912 0.344932 0.344958 
0.344988 0.345022 0.345058 0.345094 0.345131 0.345166 0.345201 0.345233 0.345264 