# vtk DataFile Version 5.1
vtk output
ASCII
DATASET UNSTRUCTURED_GRID
POINTS 10043 double
-10.1 1.4499999993 -3.1683089219e-07 -10.049999999 1.4499999993 -1.9979982824e-07 -10.049999999 1.5 7.3252681432e-07 
-9.9999999985 1.4499999993 -1.5377302987e-07 -9.9999999985 1.5 5.7977899814e-07 -9.9499999978 1.4499999993 -1.3029988111e-07 
-9.9499999978 1.5 4.9448112804e-07 -9.899999997 1.4499999993 -1.1525775534e-07 -9.899999997 1.5 4.387336503e-07 
-9.8499999963 1.4499999993 -1.0465395661e-07 -9.8499999963 1.5 3.9890323933e-07 -9.7999999955 1.4499999993 -9.6690421003e-08 
-9.7999999955 1.5 3.688335255e-07 -9.7499999948 1.4499999993 -9.0487667137e-08 -9.7499999948 1.5 3.4527306525e-07 
-9.699999994 1.4499999993 -8.5529102023e-08 -9.699999994 1.5 3.2626644497e-07 -9.6499999933 1.4499999993 -8.1365435278e-08 
-9.6499999933 1.5 3.1054219107e-07 -9.5999999925 1.4499999993 -7.7907536422e-08 -9.5999999925 1.5 2.9739271667e-07 
-9.5499999918 1.4499999993 -7.4979872977e-08 -9.5499999918 1.5 2.8623685466e-07 -9.4999999911 1.4499999993 -7.2482400526e-08 
-9.4999999911 1.5 2.7661985769e-07 -9.4499999903 1.4499999993 -7.0181378931e-08 -9.4499999903 1.5 2.6828888622e-07 
-9.3999999896 1.4499999993 -6.8335104686e-08 -9.3999999896 1.5 2.6095381145e-07 -9.3499999888 1.4499999993 -6.6678914834e-08 
-9.3499999888 1.5 2.5453550734e-07 -9.2999999881 1.4499999993 -6.5124588389e-08 -9.2999999881 1.5 2.4889845918e-07 
-9.2499999873 1.4499999993 -6.382310147e-08 -9.2499999873 1.5 2.438471256e-07 -9.1999999866 1.4499999993 -6.2686233093e-08 
-9.1999999866 1.5 2.3935422178e-07 -9.1499999858 1.4499999993 -6.1623033787e-08 -9.1499999858 1.5 2.3532426496e-07 
-9.0999999851 1.4499999993 -6.0682616265e-08 -9.0999999851 1.5 2.3169720009e-07 -9.0499999844 1.4499999993 -5.9821324783e-08 
-9.0499999844 1.5 2.2849850723e-07 -8.9999999836 1.4499999993 -5.9046431744e-08 -8.9999999836 1.5 2.2559267165e-07 
-8.9499999829 1.4499999993 -5.8390686064e-08 -8.9499999829 1.5 2.2301243519e-07 -8.8999999821 1.4499999993 -5.7783143603e-08 
-8.8999999821 1.5 2.2062501159e-07 -8.8499999814 1.4499999993 -5.7207433457e-08 -8.8499999814 1.5 2.1856682508e-07 
-8.7999999806 1.4499999993 -5.669538794e-08 -8.7999999806 1.5 2.1664597227e-07 -8.7499999799 1.4499999993 -5.6272472904e-08 
-8.7499999799 1.5 2.1495795011e-07 -8.6999999791 1.4499999993 -5.6091483458e-08 -8.6999999791 1.5 2.1418124163e-07 
-8.6499999784 1.4499999993 -5.5700400736e-08 -8.6499999784 1.5 2.1276788686e-07 -8.5999999776 1.4499999993 -5.5344788308e-08 
-8.5999999776 1.5 2.1145275753e-07 -8.5499999769 1.4499999993 -5.5098315244e-08 -8.5499999769 1.5 2.1039137721e-07 
-8.4999999762 1.4499999993 -5.478817755e-08 -8.4999999762 1.5 2.0936001022e-07 -8.4499999754 1.4499999993 -5.4539885497e-08 
-8.4499999754 1.5 2.0849871873e-07 -8.3999999747 1.4499999993 -5.4419832196e-08 -8.3999999747 1.5 2.0779840781e-07 
-8.3499999739 1.4499999993 -5.4278860517e-08 -8.3499999739 1.5 2.0714448112e-07 -8.2999999732 1.4499999993 -5.4146983786e-08 
-8.2999999732 1.5 2.0662061218e-07 -8.2499999724 1.4499999993 -5.4013288064e-08 -8.2499999724 1.5 2.0620952057e-07 
-8.1999999717 1.4499999993 -5.3902329711e-08 -8.1999999717 1.5 2.0585117966e-07 -8.1499999709 1.4499999993 -5.3865949923e-08 
-8.1499999709 1.5 2.0560925407e-07 -8.0999999702 1.4499999993 -5.3767724495e-08 -8.0999999702 1.5 2.053800614e-07 
-8.0499999695 1.4499999993 -5.379955681e-08 -8.0499999695 1.5 2.0530048062e-07 -7.9999999687 1.4499999993 -5.375317258e-08 
-7.9999999687 1.5 2.0536050727e-07 -7.949999968 1.4499999993 -5.3701331382e-08 -7.949999968 1.5 2.0542826462e-07 
-7.8999999672 1.4499999993 -5.3792735599e-08 -7.8999999672 1.5 2.0551102864e-07 -7.8499999665 1.4499999993 -5.3890051532e-08 
-7.8499999665 1.5 2.0567337344e-07 -7.7999999657 1.4499999993 -5.3901420216e-08 -7.7999999657 1.5 2.0588119298e-07 
-7.749999965 1.4499999993 -5.4016016549e-08 -7.749999965 1.5 2.0627273045e-07 -7.6999999642 1.4499999993 -5.4142436312e-08 
-7.6999999642 1.5 2.065564928e-07 -7.6499999635 1.4499999993 -5.4219743362e-08 -7.6499999635 1.5 2.0698304581e-07 
-7.5999999627 1.4499999993 -5.4352984336e-08 -7.5999999627 1.5 2.0745552831e-07 -7.549999962 1.4499999993 -5.447758511e-08 
-7.549999962 1.5 2.0795711464e-07 -7.4999999613 1.4499999993 -5.4610826083e-08 -7.4999999613 1.5 2.0850553994e-07 
-7.4499999605 1.4499999993 -5.4761802204e-08 -7.4499999605 1.5 2.0908261433e-07 -7.3999999598 1.4499999993 -5.4951886597e-08 
-7.3999999598 1.5 2.0973017456e-07 -7.349999959 1.4499999993 -5.5111502917e-08 -7.349999959 1.5 2.104354877e-07 
-7.2999999583 1.4499999993 -5.5289309131e-08 -7.2999999583 1.5 2.1109669035e-07 -7.2499999575 1.4499999993 -5.5464386861e-08 
-7.2499999575 1.5 2.1185248045e-07 -7.1999999568 1.4499999993 -5.5655835496e-08 -7.1999999568 1.5 2.1260872529e-07 
-7.149999956 1.4499999993 -5.5876970606e-08 -7.149999956 1.5 2.133972572e-07 -7.0999999553 1.4499999993 -5.598643682e-08 
-7.0999999553 1.5 2.137919779e-07 -7.0499999546 1.4499999993 -5.6191982623e-08 -7.0499999546 1.5 2.1461279687e-07 
-6.9999999538 1.4499999993 -5.6443457908e-08 -6.9999999538 1.5 2.1545089623e-07 -6.9499999531 1.4499999993 -5.6645820479e-08 
-6.9499999531 1.5 2.1627444369e-07 -6.8999999523 1.4499999993 -5.6870010923e-08 -6.8999999523 1.5 2.1715347032e-07 
-6.8499999516 1.4499999993 -5.7088744398e-08 -6.8499999516 1.5 2.1806296502e-07 -6.7999999508 1.4499999993 -5.7300656664e-08 
-6.7999999508 1.5 2.1894653912e-07 -6.7499999501 1.4499999993 -5.7545765486e-08 -6.7499999501 1.5 2.1977145082e-07 
-6.6999999493 1.4499999993 -5.7787691077e-08 -6.6999999493 1.5 2.2065638916e-07 -6.6499999486 1.4499999993 -5.8009153037e-08 
-6.6499999486 1.5 2.2149630752e-07 -6.5999999478 1.4499999993 -5.8213334597e-08 -6.5999999478 1.5 2.2233440689e-07 
-6.5499999471 1.4499999993 -5.8471176345e-08 -6.5499999471 1.5 2.2313339798e-07 -6.4999999464 1.4499999993 -5.8634430644e-08 
-6.4999999464 1.5 2.2392283938e-07 -6.4499999456 1.4499999993 -5.8810872616e-08 -6.4499999456 1.5 2.2462951677e-07 
-6.3999999449 1.4499999993 -5.8991862062e-08 -6.3999999449 1.5 2.2531800425e-07 -6.3499999441 1.4499999993 -5.9174670497e-08 
-6.3499999441 1.5 2.2591008531e-07 -6.2999999434 1.4499999993 -5.9264710472e-08 -6.2999999434 1.5 2.2647488152e-07 
-6.2499999426 1.4499999993 -5.9394540841e-08 -6.2499999426 1.5 2.2691575907e-07 -6.1999999419 1.4499999993 -5.951755e-08 
-6.1999999419 1.5 2.2725477322e-07 -6.1499999411 1.4499999993 -5.9548018072e-08 -6.1499999411 1.5 2.2748805861e-07 
-6.0999999404 1.4499999993 -5.9600768765e-08 -6.0999999404 1.5 2.2757355111e-07 -6.0499999397 1.4499999993 -5.9579850387e-08 
-6.0499999397 1.5 2.2749624407e-07 -5.9999999389 1.4499999993 -5.9507545558e-08 -5.9999999389 1.5 2.2728819715e-07 
-5.9499999382 1.4499999993 -5.9404317909e-08 -5.9499999382 1.5 2.2683117606e-07 -5.8999999374 1.4499999993 -5.9202410085e-08 
-5.8999999374 1.5 2.2615746786e-07 -5.8499999367 1.4499999993 -5.8971853178e-08 -5.8499999367 1.5 2.2521818721e-07 
-5.7999999359 1.4499999993 -5.863420327e-08 -5.7999999359 1.5 2.2395421695e-07 -5.7499999352 1.4499999993 -5.8250851254e-08 
-5.7499999352 1.5 2.2237351516e-07 -5.6999999344 1.4499999993 -5.7720843216e-08 -5.6999999344 1.5 2.2039036196e-07 
-5.6499999337 1.4499999993 -5.7060095315e-08 -5.6499999337 1.5 2.1796110161e-07 -5.5999999329 1.4499999993 -5.631684985e-08 
-5.5999999329 1.5 2.1499410252e-07 -5.5499999322 1.4499999993 -5.5848875746e-08 -5.5499999322 1.5 2.1331790379e-07 
-5.4999999315 1.4499999993 -5.4846157838e-08 -5.4999999315 1.5 2.0950302826e-07 -5.4499999307 1.4499999993 -5.365608402e-08 
-5.4499999307 1.5 2.0495419051e-07 -5.39999993 1.4499999993 -5.2272287832e-08 -5.39999993 1.5 1.9960522479e-07 
-5.3499999292 1.4499999993 -5.0623146564e-08 -5.3499999292 1.5 1.9334108003e-07 -5.2999999285 1.4499999993 -4.8693880927e-08 
-5.2999999285 1.5 1.8603283536e-07 -5.2499999277 1.4499999993 -4.6474259108e-08 -5.2499999277 1.5 1.7752451242e-07 
-5.199999927 1.4499999993 -4.3893795265e-08 -5.199999927 1.5 1.6761897825e-07 -5.1499999262 1.4499999993 -4.0875864471e-08 
-5.1499999262 1.5 1.5610704907e-07 -5.0999999255 1.4499999993 -3.7371581385e-08 -5.0999999255 1.5 1.4279341087e-07 
-5.0499999247 1.4499999993 -3.3339336625e-08 -5.0499999247 1.5 1.2732267862e-07 -4.999999924 1.4499999993 -2.8622812565e-08 
-4.999999924 1.5 1.093977815e-07 -4.9499999233 1.4499999993 -2.3178804653e-08 -4.9499999233 1.5 8.8586951108e-08 
-4.8999999225 1.4499999993 -1.6839171835e-08 -4.8999999225 1.5 6.4427361224e-08 -4.8499999218 1.4499999993 -9.4748795476e-09 
-4.8499999218 1.5 3.6297830519e-08 -4.799999921 1.4499999993 -8.7617535449e-10 -4.799999921 1.5 3.5158882472e-09 
-4.7499999203 1.4499999993 9.1651006784e-09 -4.7499999203 1.5 -3.4752350331e-08 -4.6999999195 1.4499999993 2.0937600098e-08 
-4.6999999195 1.5 -7.9583962531e-08 -4.6499999188 1.4499999993 3.4738274479e-08 -4.6499999188 1.5 -1.322865586e-07 
-4.599999918 1.4499999993 5.1064613871e-08 -4.599999918 1.5 -1.9442892096e-07 -4.5499999173 1.4499999993 7.0382277784e-08 
-4.5499999173 1.5 -2.6804138997e-07 -4.4999999166 1.4499999993 9.3374531218e-08 -4.4999999166 1.5 -3.5567643408e-07 
-4.4499999158 1.4499999993 1.2095064506e-07 -4.4499999158 1.5 -4.6057698455e-07 -4.3999999151 1.4499999993 1.5413469612e-07 
-4.3999999151 1.5 -5.8698969951e-07 -4.3499999143 1.4499999993 1.9446373756e-07 -4.3499999143 1.5 -7.4036597653e-07 
-4.2999999136 1.4499999993 2.4384985409e-07 -4.2999999136 1.5 -9.2811546892e-07 -4.2499999128 1.4499999993 3.0493526992e-07 
-4.2499999128 1.5 -1.1601647429e-06 -4.1999999121 1.4499999993 3.8131861402e-07 -4.1999999121 1.5 -1.4501356418e-06 
-4.1499999113 1.4499999993 4.7813898618e-07 -4.1499999113 1.5 -1.8172748923e-06 -4.0999999106 1.4499999993 6.027589734e-07 
-4.0999999106 1.5 -2.2892406832e-06 -4.0499999098 1.4499999993 7.6620642631e-07 -4.0499999098 1.5 -2.9071277368e-06 
-3.9999999091 1.4499999993 9.8542636806e-07 -3.9999999091 1.5 -3.7340157633e-06 -3.9499999084 1.4499999993 1.1239126252e-06 
[...]
CELL_DATA 9510
FIELD FieldData 4
Water_Depth_m 1 9510 float
0.75 0.750001 0.750001 0.750001 0.750001 0.750002 0.750002 0.750002 0.750003 
0.750003 0.750003 0.750004 0.750004 0.750004 0.750005 0.750005 0.750005 0.750006 
0.750006 0.750006 0.750006 0.750007 0.750007 0.750007 0.750008 0.750008 0.750008 
0.750009 0.750009 0.750009 0.75001 0.75001 0.75001 0.750011 0.750011 0.750011 
0.750012 0.750012 0.750012 0.750012 0.750013 0.750013 0.750013 0.750014 0.750014 
0.750014 0.750015 0.750015 0.750015 0.750016 0.750016 0.750016 0.750017 0.750017 
0.750017 0.750017 0.750018 0.750018 0.750018 0.750019 0.750019 0.750019 0.75002 
0.75002 0.75002 0.750021 0.750021 0.750021 0.750022 0.750022 0.750022 0.750022 
0.750023 0.750023 0.750023 0.750024 0.750024 0.750024 0.750025 0.750025 0.750025 
0.750026 0.750026 0.750026 0.750027 0.750027 0.750027 0.750028 0.750028 0.750028 
0.750029 0.750029 0.750029 0.75003 0.75003 0.75003 0.750031 0.750031 0.750032 
0.750032 0.750032 0.750033 0.750033 0.750034 0.750034 0.750035 0.750035 0.750036 
0.750036 0.750037 0.750037 0.750038 0.750039 0.75004 0.750041 0.750042 0.750043 
0.750044 0.750045 0.750047 0.750049 0.750051 0.750053 0.750056 0.75006 0.750065 
0.750072 0.750082 0.750103 0.750169 0.750376 0.750269 0.744826 0.731512 0.712089 
0.688229 0.66123 0.632217 0.602238 0.572287 0.543869 0.517813 0.495101 0.477179 
0.466055 0.46417 0.46417 0.464172 0.464176 0.464181 0.464186 0.46419 0.464195 
0.464199 0.464204 0.464208 0.464213 0.464217 0.464222 0.464227 0.464232 0.464237 
0.464243 0.464249 0.464255 0.464262 0.464269 0.464276 0.464285 0.464293 0.464302 
0.464312 0.467817 0.482912 0.48367 0.482454 0.48217 0.480754 0.48043 0.480862 
0.481969 0.47634 0.447245 0.415906 0.383006 0.355472 0.325367 0.303623 0.314842 
0.328339 0.344532 0.360498 0.383999 0.410943 0.443051 0.476361 0.51352 0.552641 
0.630816 0.600613 0.575019 0.54667 0.518226 0.501269 0.500942 0.50376 0.503465 
0.492898 0.492633 0.492481 0.492432 0.492411 0.4924 0.492394 0.49239 0.492388 
0.492387 0.492387 0.492387 0.492388 0.492388 0.492389 0.49239 0.492391 0.492392 
0.492393 0.492394 0.492396 0.492397 0.492398 0.492399 0.492401 0.492402 0.492403 
0.492405 0.492406 0.492407 0.492409 0.49241 0.492411 0.492413 0.492414 0.492415 
0.492416 0.492418 0.492419 0.49242 0.492422 0.492423 0.492424 0.492426 0.492427 
0.492428 0.492429 0.492431 0.492432 0.492433 0.492435 0.492436 0.492437 0.492439 
0.49244 0.492441 0.492442 0.492444 0.492445 0.492446 0.492448 0.492449 0.49245 
0.492452 0.492453 0.492454 0.492455 0.492457 0.492458 0.492459 0.492461 0.492462 
0.492463 0.492465 0.492466 0.492467 0.492468 0.49247 0.492471 0.492472 0.492474 
0.492475 0.492476 0.492478 0.492479 0.49248 0.492481 0.488335 0.750001 0.750001 
0.750001 0.750001 0.750002 0.750002 0.750002 0.750003 0.750003 0.750003 0.750003 
0.750004 0.750004 0.750004 0.750005 0.750005 0.750005 0.750006 0.750006 0.750006 
0.750006 0.750007 0.750007 0.750007 0.750008 0.750008 0.750008 0.750009 0.750009 
0.750009 0.75001 0.75001 0.75001 0.750011 0.750011 0.750011 0.750012 0.750012 
0.750012 0.750012 0.750013 0.750013 0.750013 0.750014 0.750014 0.750014 0.750015 
0.750015 0.750015 0.750016 0.750016 0.750016 0.750017 0.750017 0.750017 0.750017 
0.750018 0.750018 0.750018 0.750019 0.750019 0.750019 0.75002 0.75002 0.75002 
0.750021 0.750021 0.750021 0.750022 0.750022 0.750022 0.750023 0.750023 0.750023 
0.750023 0.750024 0.750024 0.750024 0.750025 0.750025 0.750025 0.750026 0.750026 
0.750026 0.750027 0.750027 0.750027 0.750028 0.750028 0.750028 0.750029 0.750029 
0.750029 0.75003 0.75003 0.75003 0.750031 0.750031 0.750032 0.750032 0.750032 
0.750033 0.750033 0.750034 0.750034 0.750035 0.750035 0.750036 0.750036 0.750037 
0.750037 0.750038 0.750039 0.750039 0.75004 0.750041 0.750042 0.750043 0.750044 
0.750045 0.750046 0.750047 0.750049 0.750051 0.750052 0.750054 0.750057 0.750059 
0.750063 0.750068 0.750105 0.750066 0.745186 0.732561 0.713594 0.689842 0.662682 
0.63333 0.602908 0.572429 0.543195 0.516324 0.493231 0.475623 0.465716 0.464188 
0.46418 0.464177 0.464179 0.464183 0.464187 0.464191 0.464196 0.4642 0.464205 
0.464209 0.464214 0.464218 0.464223 0.464228 0.464233 0.464238 0.464244 0.464249 
0.464256 0.464263 0.46427 0.464277 0.464286 0.464293 0.464301 0.464311 0.467753 
0.482636 0.48361 0.482008 0.481888 0.481338 0.480597 0.481075 0.480736 0.471721 
0.433442 0.401644 0.367537 0.331934 0.307122 0.29744 0.304503 0.316596 0.334101 
0.355341 0.382473 0.417484 0.453502 0.48235 0.523013 0.545198 0.62066 0.590693 
0.559273 0.535787 0.519359 0.504536 0.508559 0.509806 0.507435 0.493519 0.492387 
0.492384 0.492381 0.49238 0.49238 0.49238 0.49238 0.492381 0.492382 0.492383 
0.492384 0.492385 0.492386 0.492388 0.492389 0.49239 0.492391 0.492393 0.492394 
0.492395 0.492397 0.492398 0.492399 0.492401 0.492402 0.492403 0.492405 0.492406 
0.492407 0.492409 0.49241 0.492411 0.492413 0.492414 0.492415 0.492417 0.492418 
0.492419 0.49242 0.492422 0.492423 0.492424 0.492426 0.492427 0.492428 0.49243 
0.492431 0.492432 0.492433 0.492435 0.492436 0.492437 0.492439 0.49244 0.492441 
0.492443 0.492444 0.492445 0.492446 0.492448 0.492449 0.49245 0.492452 0.492453 
0.492454 0.492456 0.492457 0.492458 0.492459 0.492461 0.492462 0.492463 0.492465 
0.492466 0.492467 0.492468 0.49247 0.492471 0.492472 0.492474 0.492475 0.492476 
0.492478 0.492479 0.49248 0.492481 0.488335 0.75 0.750001 0.750001 0.750001 
0.750001 0.750002 0.750002 0.750002 0.750003 0.750003 0.750003 0.750004 0.750004 
0.750004 0.750005 0.750005 0.750005 0.750006 0.750006 0.750006 0.750006 0.750007 
0.750007 0.750007 0.750008 0.750008 0.750008 0.750009 0.750009 0.750009 0.75001 
0.75001 0.75001 0.750011 0.750011 0.750011 0.750012 0.750012 0.750012 0.750012 
0.750013 0.750013 0.750013 0.750014 0.750014 0.750014 0.750015 0.750015 0.750015 
0.750016 0.750016 0.750016 0.750017 0.750017 0.750017 0.750017 0.750018 0.750018 
0.750018 0.750019 0.750019 0.750019 0.75002 0.75002 0.75002 0.750021 0.750021 
0.750021 0.750022 0.750022 0.750022 0.750022 0.750023 0.750023 0.750023 0.750024 
0.750024 0.750024 0.750025 0.750025 0.750025 0.750026 0.750026 0.750026 0.750027 
0.750027 0.750027 0.750028 0.750028 0.750028 0.750029 0.750029 0.750029 0.75003 
0.75003 0.75003 0.750031 0.750031 0.750032 0.750032 0.750032 0.750033 0.750033 
0.750034 0.750034 0.750035 0.750035 0.750035 0.750036 0.750037 0.750037 0.750038 
0.750038 0.750039 0.75004 0.750041 0.750042 0.750042 0.750044 0.750045 0.750046 
0.750047 0.750049 0.75005 0.750052 0.750054 0.750057 0.75006 0.750064 0.750073 
0.750158 0.750065 0.745333 0.733053 0.714412 0.69082 0.663625 0.634079 0.603348 
0.572516 0.542857 0.515628 0.492461 0.475163 0.465645 0.464158 0.464164 0.46417 
0.464175 0.46418 0.464185 0.46419 0.464194 0.464199 0.464203 0.464208 0.464212 
0.464217 0.464221 0.464226 0.464231 0.464236 0.464241 0.464247 0.464253 0.464259 
0.464266 0.464273 0.464281 0.46429 0.4643 0.46431 0.467494 0.481807 0.483103 
0.481249 0.481067 0.480997 0.480414 0.481132 0.479116 0.462285 0.43069 0.400742 
0.363756 0.32892 0.296828 0.271285 0.280101 0.304667 0.329367 0.357524 0.389037 
0.423476 0.457597 0.49434 0.531858 0.556272 0.628113 0.59384 0.570532 0.546831 
0.520694 0.508067 0.513395 0.514179 0.510774 0.493178 0.49239 0.492388 0.492382 
0.49238 0.49238 0.49238 0.49238 0.492381 0.492382 0.492383 0.492384 0.492385 
0.492386 0.492388 0.492389 0.49239 0.492391 0.492393 0.492394 0.492395 0.492397 
0.492398 0.492399 0.492401 0.492402 0.492403 0.492405 0.492406 0.492407 0.492409 
0.49241 0.492411 0.492413 0.492414 0.492415 0.492416 0.492418 0.492419 0.49242 
0.492422 0.492423 0.492424 0.492426 0.492427 0.492428 0.492429 0.492431 0.492432 
0.492433 0.492435 0.492436 0.492437 0.492439 0.49244 0.492441 0.492442 0.492444 
0.492445 0.492446 0.492448 0.492449 0.49245 0.492452 0.492453 0.492454 0.492455 
0.492457 0.492458 0.492459 0.492461 0.492462 0.492463 0.492464 0.492466 0.492467 
0.492468 0.49247 0.492471 0.492472 0.492474 0.492475 0.492476 0.492477 0.492479 
0.49248 0.492481 0.488335 0.75 0.750001 0.750001 0.750001 0.750001 0.750002 
0.750002 0.750002 0.750003 0.750003 0.750003 0.750004 0.750004 0.750004 0.750005 
0.750005 0.750005 0.750006 0.750006 0.750006 0.750006 0.750007 0.750007 0.750007 
0.750008 0.750008 0.750008 0.750009 0.750009 0.750009 0.75001 0.75001 0.75001 
0.750011 0.750011 0.750011 0.750012 0.750012 0.750012 0.750012 0.750013 0.750013 
0.750013 0.750014 0.750014 0.750014 0.750015 0.750015 0.750015 0.750016 0.750016 
0.750016 0.750017 0.750017 0.750017 0.750017 0.750018 0.750018 0.750018 0.750019 
0.750019 0.750019 0.75002 0.75002 0.75002 0.750021 0.750021 0.750021 0.750022 
0.750022 0.750022 0.750022 0.750023 0.750023 0.750023 0.750024 0.750024 0.750024 
0.750025 0.750025 0.750025 0.750026 0.750026 0.750026 0.750027 0.750027 0.750027 
0.750028 0.750028 0.750028 0.750029 0.750029 0.750029 0.75003 0.75003 0.75003 
0.750031 0.750031 0.750032 0.750032 0.750032 0.750033 0.750033 0.750034 0.750034 
0.750034 0.750035 0.750035 0.750036 0.750036 0.750037 0.750038 0.750038 0.750039 
0.75004 0.75004 0.750041 0.750042 0.750043 0.750044 0.750045 0.750047 0.750048 
0.75005 0.750051 0.750053 0.750055 0.750057 0.75006 0.750063 0.750142 0.750062 
0.745395 0.733285 0.71484 0.691373 0.664185 0.634531 0.603608 0.572566 0.542682 
0.515326 0.492182 0.47503 0.465645 0.46416 0.464166 0.464171 0.464176 0.464181 
0.464186 0.46419 0.464195 0.464199 0.464203 0.464208 0.464212 0.464216 0.464221 
0.464225 0.46423 0.464235 0.46424 0.464246 0.464251 0.464258 0.464264 0.464272 
0.464279 0.464288 0.464297 0.464308 0.467598 0.481905 0.482691 0.481087 0.480431 
0.479646 0.478961 0.480814 0.476123 0.445705 0.416362 0.390636 0.354887 0.320034 
0.2908 0.278968 0.294666 0.313325 0.338565 0.362938 0.391528 0.424346 0.456238 
0.494137 0.529424 0.554054 0.632276 0.594216 0.570221 0.546598 0.520609 0.511927 
0.516746 0.516849 0.512036 0.493463 0.492376 0.492376 0.492376 0.492377 0.492377 
0.492378 0.492379 0.49238 0.492381 0.492382 0.492384 0.492385 0.492386 0.492387 
0.492389 0.49239 0.492391 0.492393 0.492394 0.492395 0.492397 0.492398 0.492399 
0.492401 0.492402 0.492403 0.492405 0.492406 0.492407 0.492409 0.49241 0.492411 
0.492413 0.492414 0.492415 0.492416 0.492418 0.492419 0.49242 0.492422 0.492423 
0.492424 0.492426 0.492427 0.492428 0.492429 0.492431 0.492432 0.492433 0.492435 
0.492436 0.492437 0.492439 0.49244 0.492441 0.492442 0.492444 0.492445 0.492446 
0.492448 0.492449 0.49245 0.492452 0.492453 0.492454 0.492455 0.492457 0.492458 
0.492459 0.492461 0.492462 0.492463 0.492464 0.492466 0.492467 0.492468 0.49247 
0.492471 0.492472 0.492474 0.492475 0.492476 0.492477 0.492479 0.49248 0.492481 
0.488335 0.75 0.750001 0.750001 0.750001 0.750001 0.750002 0.750002 0.750002 
0.750003 0.750003 0.750003 0.750004 0.750004 0.750004 0.750005 0.750005 0.750005 
0.750006 0.750006 0.750006 0.750006 0.750007 0.750007 0.750007 0.750008 0.750008 
0.750008 0.750009 0.750009 0.750009 0.75001 0.75001 0.75001 0.750011 0.750011 
0.750011 0.750012 0.750012 0.750012 0.750012 0.750013 0.750013 0.750013 0.750014 
0.750014 0.750014 0.750015 0.750015 0.750015 0.750016 0.750016 0.750016 0.750017 
0.750017 0.750017 0.750017 0.750018 0.750018 0.750018 0.750019 0.750019 0.750019 
0.75002 0.75002 0.75002 0.750021 0.750021 0.750021 0.750022 0.750022 0.750022 
0.750022 0.750023 0.750023 0.750023 0.750024 0.750024 0.750024 0.750025 0.750025 
0.750025 0.750026 0.750026 0.750026 0.750027 0.750027 0.750027 0.750028 0.750028 
0.750028 0.750029 0.750029 0.750029 0.75003 0.75003 0.75003 0.750031 0.750031 
0.750031 0.750032 0.750032 0.750033 0.750033 0.750033 0.750034 0.750034 0.750035 
0.750035 0.750036 0.750036 0.750037 0.750037 0.750038 0.750039 0.750039 0.75004 
0.750041 0.750042 0.750043 0.750044 0.750045 0.750046 0.750047 0.750049 0.750051 
0.750052 0.750054 0.750056 0.750059 0.750063 0.750143 0.75006 0.74542 0.733391 
0.715051 0.691661 0.664488 0.634779 0.603748 0.572592 0.542596 0.5152 0.492088 
0.474997 0.465645 0.46416 0.464166 0.464172 0.464177 0.464182 0.464186 0.464191 
0.464195 0.464199 0.464203 0.464208 0.464212 0.464216 0.46422 0.464225 0.464229 
0.464234 0.464239 0.464244 0.46425 0.464256 0.464262 0.464269 0.464277 0.464285 
0.464294 0.464304 0.467636 0.482086 0.483047 0.480802 0.481477 0.481166 0.480843 
0.478188 0.468921 0.43098 0.401145 0.372263 0.341109 0.306549 0.295454 0.309844 
0.323625 0.342129 0.360286 0.377167 0.397949 0.424914 0.445936 0.484204 0.511263 
0.539905 0.627035 0.588156 0.562297 0.539766 0.519819 0.515602 0.519735 0.519659 
0.513694 0.493363 0.492374 0.492375 0.492375 0.492375 0.492376 0.492377 0.492379 
0.49238 0.492381 0.492382 0.492384 0.492385 0.492386 0.492387 0.492389 0.49239 
0.492391 0.492393 0.492394 0.492395 0.492397 0.492398 0.492399 0.492401 0.492402 
0.492403 0.492405 0.492406 0.492407 0.492409 0.49241 0.492411 0.492413 0.492414 
0.492415 0.492416 0.492418 0.492419 0.49242 0.492422 0.492423 0.492424 0.492426 
0.492427 0.492428 0.492429 0.492431 0.492432 0.492433 0.492435 0.492436 0.492437 
0.492439 0.49244 0.492441 0.492442 0.492444 0.492445 0.492446 0.492448 0.492449 
0.49245 0.492452 0.492453 0.492454 0.492455 0.492457 0.492458 0.492459 0.492461 
0.492462 0.492463 0.492464 0.492466 0.492467 0.492468 0.49247 0.492471 0.492472 
0.492474 0.492475 0.492476 0.492477 0.492479 0.49248 0.492481 0.488335 0.75 
0.750001 0.750001 0.750001 0.750001 0.750002 0.750002 0.750002 0.750003 0.750003 
0.750003 0.750004 0.750004 0.750004 0.750005 0.750005 0.750005 0.750006 0.750006 
0.750006 0.750006 0.750007 0.750007 0.750007 0.750008 0.750008 0.750008 0.750009 
0.750009 0.750009 0.75001 0.75001 0.75001 0.750011 0.750011 0.750011 0.750012 
0.750012 0.750012 0.750012 0.750013 0.750013 0.750013 0.750014 0.750014 0.750014 
0.750015 0.750015 0.750015 0.750016 0.750016 0.750016 0.750017 0.750017 0.750017 
0.750017 0.750018 0.750018 0.750018 0.750019 0.750019 0.750019 0.75002 0.75002 
0.75002 0.750021 0.750021 0.750021 0.750022 0.750022 0.750022 0.750022 0.750023 
0.750023 0.750023 0.750024 0.750024 0.750024 0.750025 0.750025 0.750025 0.750026 
0.750026 0.750026 0.750027 0.750027 0.750027 0.750028 0.750028 0.750028 0.750029 
0.750029 0.750029 0.75003 0.75003 0.75003 0.750031 0.750031 0.750031 0.750032 
0.750032 0.750033 0.750033 0.750033 0.750034 0.750034 0.750035 0.750035 0.750036 
0.750036 0.750037 0.750037 0.750038 0.750039 0.750039 0.75004 0.750041 0.750041 
0.750042 0.750043 0.750044 0.750045 0.750047 0.750048 0.75005 0.750051 0.750053 
0.750055 0.750057 0.750061 0.75014 0.750058 0.745429 0.733433 0.715144 0.691797 
0.664636 0.6349 0.603816 0.572605 0.542555 0.515148 0.492058 0.474993 0.465649 
0.464163 0.464168 0.464173 0.464178 0.464183 0.464187 0.464191 0.464196 0.4642 
0.464204 0.464207 0.464211 0.464215 0.46422 0.464224 0.464228 0.464233 0.464237 
0.464242 0.464248 0.464253 0.464259 0.464266 0.464273 0.464281 0.46429 0.464299 
0.467761 0.483137 0.48428 0.482111 0.481363 0.481758 0.482511 0.477565 0.45424 
0.417608 0.386319 0.354071 0.322838 0.302984 0.311238 0.3251 0.337233 0.354259 
0.368563 0.385771 0.404117 0.428912 0.453815 0.482797 0.520432 0.539119 0.612724 
0.589398 0.569478 0.545785 0.524948 0.518555 0.522491 0.522361 0.515417 0.493497 
0.49237 0.492372 0.492372 0.492374 0.492375 0.492377 0.492378 0.492379 0.492381 
0.492382 0.492383 0.492385 0.492386 0.492387 0.492389 0.49239 0.492391 0.492393 
0.492394 0.492395 0.492397 0.492398 0.492399 0.492401 0.492402 0.492403 0.492405 
0.492406 0.492407 0.492409 0.49241 0.492411 0.492413 0.492414 0.492415 0.492416 
0.492418 0.492419 0.49242 0.492422 0.492423 0.492424 0.492426 0.492427 0.492428 
0.492429 0.492431 0.492432 0.492433 0.492435 0.492436 0.492437 0.492439 0.49244 
0.492441 0.492442 0.492444 0.492445 0.492446 0.492448 0.492449 0.49245 0.492452 
0.492453 0.492454 0.492455 0.492457 0.492458 0.492459 0.492461 0.492462 0.492463 
0.492464 0.492466 0.492467 0.492468 0.49247 0.492471 0.492472 0.492474 0.492475 
0.492476 0.492477 0.492479 0.49248 0.492481 0.488335 0.75 0.750001 0.750001 
0.750001 0.750001 0.750002 0.750002 0.750002 0.750003 0.750003 0.750003 0.750004 
0.750004 0.750004 0.750005 0.750005 0.750005 0.750006 0.750006 0.750006 0.750006 
0.750007 0.750007 0.750007 0.750008 0.750008 0.750008 0.750009 0.750009 0.750009 
0.75001 0.75001 0.75001 0.750011 0.750011 0.750011 0.750012 0.750012 0.750012 
0.750012 0.750013 0.750013 0.750013 0.750014 0.750014 0.750014 0.750015 0.750015 
0.750015 0.750016 0.750016 0.750016 0.750017 0.750017 0.750017 0.750017 0.750018 
0.750018 0.750018 0.750019 0.750019 0.750019 0.75002 0.75002 0.75002 0.750021 
0.750021 0.750021 0.750022 0.750022 0.750022 0.750022 0.750023 0.750023 0.750023 
0.750024 0.750024 0.750024 0.750025 0.750025 0.750025 0.750026 0.750026 0.750026 
0.750027 0.750027 0.750027 0.750028 0.750028 0.750028 0.750029 0.750029 0.750029 
0.75003 0.75003 0.75003 0.750031 0.750031 0.750031 0.750032 0.750032 0.750033 
0.750033 0.750033 0.750034 0.750034 0.750035 0.750035 0.750036 0.750036 0.750037 
0.750037 0.750038 0.750038 0.750039 0.75004 0.75004 0.750041 0.750042 0.750043 
0.750044 0.750045 0.750046 0.750047 0.750049 0.75005 0.750052 0.750054 0.750056 
0.750059 0.750138 0.750056 0.745428 0.733443 0.715175 0.691848 0.664695 0.634951 
0.603845 0.572611 0.542537 0.515127 0.492049 0.474995 0.465652 0.464165 0.464171 
0.464175 0.46418 0.464184 0.464188 0.464192 0.464196 0.4642 0.464204 0.464207 
0.464211 0.464215 0.464219 0.464223 0.464227 0.464231 0.464235 0.46424 0.464245 
0.46425 0.464256 0.464262 0.464269 0.464276 0.464284 0.464294 0.46772 0.482954 
0.484176 0.482048 0.481235 0.481645 0.482487 0.476526 0.446355 0.409681 0.379011 
0.347241 0.314919 0.315287 0.324903 0.33395 0.346478 0.360723 0.375453 0.390318 
0.40571 0.428488 0.453591 0.483755 0.521967 0.551141 0.626793 0.598328 0.576921 
0.55314 0.527643 0.521056 0.525357 0.525175 0.517159 0.493573 0.492368 0.49237 
0.49237 0.492372 0.492374 0.492376 0.492377 0.492379 0.49238 0.492382 0.492383 
0.492384 0.492386 0.492387 0.492389 0.49239 0.492391 0.492393 0.492394 0.492395 
0.492397 0.492398 0.492399 0.492401 0.492402 0.492403 0.492405 0.492406 0.492407 
0.492409 0.49241 0.492411 0.492413 0.492414 0.492415 0.492416 0.492418 0.492419 
0.49242 0.492422 0.492423 0.492424 0.492426 0.492427 0.492428 0.492429 0.492431 
0.492432 0.492433 0.492435 0.492436 0.492437 0.492439 0.49244 0.492441 0.492442 
0.492444 0.492445 0.492446 0.492448 0.492449 0.49245 0.492452 0.492453 0.492454 
0.492455 0.492457 0.492458 0.492459 0.492461 0.492462 0.492463 0.492464 0.492466 
0.492467 0.492468 0.49247 0.492471 0.492472 0.492474 0.492475 0.492476 0.492477 
0.492479 0.49248 0.492481 0.488335 0.75 0.750001 0.750001 0.750001 0.750001 
0.750002 0.750002 0.750002 0.750003 0.750003 0.750003 0.750004 0.750004 0.750004 
0.750005 0.750005 0.750005 0.750006 0.750006 0.750006 0.750006 0.750007 0.750007 
0.750007 0.750008 0.750008 0.750008 0.750009 0.750009 0.750009 0.75001 0.75001 
0.75001 0.750011 0.750011 0.750011 0.750012 0.750012 0.750012 0.750012 0.750013 
0.750013 0.750013 0.750014 0.750014 0.750014 0.750015 0.750015 0.750015 0.750016 
0.750016 0.750016 0.750017 0.750017 0.750017 0.750017 0.750018 0.750018 0.750018 
0.750019 0.750019 0.750019 0.75002 0.75002 0.75002 0.750021 0.750021 0.750021 
0.750022 0.750022 0.750022 0.750022 0.750023 0.750023 0.750023 0.750024 0.750024 
0.750024 0.750025 0.750025 0.750025 0.750026 0.750026 0.750026 0.750027 0.750027 
0.750027 0.750028 0.750028 0.750028 0.750029 0.750029 0.750029 0.75003 0.75003 
0.75003 0.750031 0.750031 0.750031 0.750032 0.750032 0.750032 0.750033 0.750033 
0.750034 0.750034 0.750035 0.750035 0.750035 0.750036 0.750036 0.750037 0.750037 
0.750038 0.750039 0.750039 0.75004 0.750041 0.750041 0.750042 0.750043 0.750044 
0.750045 0.750046 0.750047 0.750049 0.75005 0.750052 0.750054 0.750057 0.750135 
0.750053 0.745424 0.73344 0.715176 0.691858 0.66471 0.634965 0.603854 0.572614 
0.542531 0.51512 0.492049 0.474999 0.465656 0.464168 0.464173 0.464178 0.464182 