# vtk DataFile Version 5.1
vtk output
ASCII
DATASET UNSTRUCTURED_GRID
POINTS 10043 double
-10.1 1.4499999993 0 -10.049999999 1.4499999993 0 -10.049999999 1.5 0 
-9.9999999985 1.4499999993 0 -9.9999999985 1.5 0 -9.9499999978 1.4499999993 0 
-9.9499999978 1.5 0 -9.899999997 1.4499999993 0 -9.899999997 1.5 0 
-9.8499999963 1.4499999993 0 -9.8499999963 1.5 0 -9.7999999955 1.4499999993 0 
-9.7999999955 1.5 0 -9.7499999948 1.4499999993 0 -9.7499999948 1.5 0 
-9.699999994 1.4499999993 0 -9.699999994 1.5 0 -9.6499999933 1.4499999993 0 
-9.6499999933 1.5 0 -9.5999999925 1.4499999993 0 -9.5999999925 1.5 0 
-9.5499999918 1.4499999993 0 -9.5499999918 1.5 0 -9.4999999911 1.4499999993 0 
-9.4999999911 1.5 0 -9.4499999903 1.4499999993 0 -9.4499999903 1.5 0 
-9.3999999896 1.4499999993 0 -9.3999999896 1.5 0 -9.3499999888 1.4499999993 0 
-9.3499999888 1.5 0 -9.2999999881 1.4499999993 0 -9.2999999881 1.5 0 
-9.2499999873 1.4499999993 0 -9.2499999873 1.5 0 -9.1999999866 1.4499999993 0 
-9.1999999866 1.5 0 -9.1499999858 1.4499999993 0 -9.1499999858 1.5 0 
-9.0999999851 1.4499999993 0 -9.0999999851 1.5 0 -9.0499999844 1.4499999993 0 
-9.0499999844 1.5 0 -8.9999999836 1.4499999993 0 -8.9999999836 1.5 0 
-8.9499999829 1.4499999993 0 -8.9499999829 1.5 0 -8.8999999821 1.4499999993 0 
-8.8999999821 1.5 0 -8.8499999814 1.4499999993 0 -8.8499999814 1.5 0 
-8.7999999806 1.4499999993 0 -8.7999999806 1.5 0 -8.7499999799 1.4499999993 0 
-8.7499999799 1.5 0 -8.6999999791 1.4499999993 0 -8.6999999791 1.5 0 
-8.6499999784 1.4499999993 0 -8.6499999784 1.5 0 -8.5999999776 1.4499999993 0 
-8.5999999776 1.5 0 -8.5499999769 1.4499999993 0 -8.5499999769 1.5 0 
-8.4999999762 1.4499999993 0 -8.4999999762 1.5 0 -8.4499999754 1.4499999993 0 
-8.4499999754 1.5 0 -8.3999999747 1.4499999993 0 -8.3999999747 1.5 0 
-8.3499999739 1.4499999993 0 -8.3499999739 1.5 0 -8.2999999732 1.4499999993 0 
-8.2999999732 1.5 0 -8.2499999724 1.4499999993 0 -8.2499999724 1.5 0 
-8.1999999717 1.4499999993 0 -8.1999999717 1.5 0 -8.1499999709 1.4499999993 0 
-8.1499999709 1.5 0 -8.0999999702 1.4499999993 0 -8.0999999702 1.5 0 
-8.0499999695 1.4499999993 0 -8.0499999695 1.5 0 -7.9999999687 1.4499999993 0 
-7.9999999687 1.5 0 -7.949999968 1.4499999993 0 -7.949999968 1.5 0 
-7.8999999672 1.4499999993 0 -7.8999999672 1.5 0 -7.8499999665 1.4499999993 0 
-7.8499999665 1.5 0 -7.7999999657 1.4499999993 0 -7.7999999657 1.5 0 
-7.749999965 1.4499999993 0 -7.749999965 1.5 0 -7.6999999642 1.4499999993 0 
-7.6999999642 1.5 0 -7.6499999635 1.4499999993 0 -7.6499999635 1.5 0 
-7.5999999627 1.4499999993 0 -7.5999999627 1.5 0 -7.549999962 1.4499999993 0 
-7.549999962 1.5 0 -7.4999999613 1.4499999993 0 -7.4999999613 1.5 0 
-7.4499999605 1.4499999993 0 -7.4499999605 1.5 0 -7.3999999598 1.4499999993 0 
-7.3999999598 1.5 0 -7.349999959 1.4499999993 0 -7.349999959 1.5 0 
-7.2999999583 1.4499999993 0 -7.2999999583 1.5 0 -7.2499999575 1.4499999993 0 
-7.2499999575 1.5 0 -7.1999999568 1.4499999993 0 -7.1999999568 1.5 0 
-7.149999956 1.4499999993 0 -7.149999956 1.5 0 -7.0999999553 1.4499999993 0 
-7.0999999553 1.5 0 -7.0499999546 1.4499999993 0 -7.0499999546 1.5 0 
-6.9999999538 1.4499999993 0 -6.9999999538 1.5 0 -6.9499999531 1.4499999993 0 
-6.9499999531 1.5 0 -6.8999999523 1.4499999993 0 -6.8999999523 1.5 0 
-6.8499999516 1.4499999993 0 -6.8499999516 1.5 0 -6.7999999508 1.4499999993 0 
-6.7999999508 1.5 0 -6.7499999501 1.4499999993 0 -6.7499999501 1.5 0 
-6.6999999493 1.4499999993 0 -6.6999999493 1.5 0 -6.6499999486 1.4499999993 0 
-6.6499999486 1.5 0 -6.5999999478 1.4499999993 0 -6.5999999478 1.5 0 
-6.5499999471 1.4499999993 0 -6.5499999471 1.5 0 -6.4999999464 1.4499999993 0 
-6.4999999464 1.5 0 -6.4499999456 1.4499999993 0 -6.4499999456 1.5 0 
-6.3999999449 1.4499999993 0 -6.3999999449 1.5 0 -6.3499999441 1.4499999993 0 
-6.3499999441 1.5 0 -6.2999999434 1.4499999993 0 -6.2999999434 1.5 0 
-6.2499999426 1.4499999993 0 -6.2499999426 1.5 0 -6.1999999419 1.4499999993 0 
-6.1999999419 1.5 0 -6.1499999411 1.4499999993 0 -6.1499999411 1.5 0 
-6.0999999404 1.4499999993 0 -6.0999999404 1.5 0 -6.0499999397 1.4499999993 0 
-6.0499999397 1.5 0 -5.9999999389 1.4499999993 0 -5.9999999389 1.5 0 
-5.9499999382 1.4499999993 0 -5.9499999382 1.5 0 -5.8999999374 1.4499999993 0 
-5.8999999374 1.5 0 -5.8499999367 1.4499999993 0 -5.8499999367 1.5 0 
-5.7999999359 1.4499999993 0 -5.7999999359 1.5 0 -5.7499999352 1.4499999993 0 
-5.7499999352 1.5 0 -5.6999999344 1.4499999993 0 -5.6999999344 1.5 0 
-5.6499999337 1.4499999993 0 -5.6499999337 1.5 0 -5.5999999329 1.4499999993 0 
-5.5999999329 1.5 0 -5.5499999322 1.4499999993 0 -5.5499999322 1.5 0 
-5.4999999315 1.4499999993 0 -5.4999999315 1.5 0 -5.4499999307 1.4499999993 0 
-5.4499999307 1.5 0 -5.39999993 1.4499999993 0 -5.39999993 1.5 0 
-5.3499999292 1.4499999993 0 -5.3499999292 1.5 0 -5.2999999285 1.4499999993 0 
-5.2999999285 1.5 0 -5.2499999277 1.4499999993 0 -5.2499999277 1.5 0 
-5.199999927 1.4499999993 0 -5.199999927 1.5 0 -5.1499999262 1.4499999993 0 
-5.1499999262 1.5 0 -5.0999999255 1.4499999993 0 -5.0999999255 1.5 0 
-5.0499999247 1.4499999993 0 -5.0499999247 1.5 0 -4.999999924 1.4499999993 0 
-4.999999924 1.5 0 -4.9499999233 1.4499999993 0 -4.9499999233 1.5 0 
-4.8999999225 1.4499999993 0 -4.8999999225 1.5 0 -4.8499999218 1.4499999993 0 
-4.8499999218 1.5 0 -4.799999921 1.4499999993 0 -4.799999921 1.5 0 
-4.7499999203 1.4499999993 0 -4.7499999203 1.5 0 -4.6999999195 1.4499999993 0 
-4.6999999195 1.5 0 -4.6499999188 1.4499999993 0 -4.6499999188 1.5 0 
-4.599999918 1.4499999993 0 -4.599999918 1.5 0 -4.5499999173 1.4499999993 0 
-4.5499999173 1.5 0 -4.4999999166 1.4499999993 0 -4.4999999166 1.5 0 
-4.4499999158 1.4499999993 0 -4.4499999158 1.5 0 -4.3999999151 1.4499999993 0 
-4.3999999151 1.5 0 -4.3499999143 1.4499999993 0 -4.3499999143 1.5 0 
-4.2999999136 1.4499999993 0 -4.2999999136 1.5 0 -4.2499999128 1.4499999993 0 
-4.2499999128 1.5 0 -4.1999999121 1.4499999993 0 -4.1999999121 1.5 0 
-4.1499999113 1.4499999993 0 -4.1499999113 1.5 0 -4.0999999106 1.4499999993 0 
-4.0999999106 1.5 0 -4.0499999098 1.4499999993 0 -4.0499999098 1.5 0 
-3.9999999091 1.4499999993 0 -3.9999999091 1.5 0 -3.9499999084 1.4499999993 0 
-3.9499999084 1.5 0 -3.8999999076 1.4499999993 0 -3.8999999076 1.5 0 
-3.8499999069 1.4499999993 0 -3.8499999069 1.5 0 -3.7999999061 1.4499999993 0 
-3.7999999061 1.5 0 -3.7499999054 1.4499999993 0 -3.7499999054 1.5 0 
-3.6999999046 1.4499999993 0 -3.6999999046 1.5 0 -3.6499999039 1.4499999993 0 
-3.6499999039 1.5 0 -3.5999999031 1.4499999993 0 -3.5999999031 1.5 0 
-3.5499999024 1.4499999993 0 -3.5499999024 1.5 0 -3.4999999017 1.4499999993 0 
-3.4999999017 1.5 0 -3.4499999009 1.4499999993 0 -3.4499999009 1.5 0 
-3.3999999002 1.4499999993 0 -3.3999999002 1.5 0 -3.3499998994 1.4499999993 0 
-3.3499998994 1.5 0 -3.2999998987 1.4499999993 0 -3.2999998987 1.5 0 
-3.2499998979 1.4499999993 0 -3.2499998979 1.5 0 -3.1999998972 1.4499999993 0 
-3.1999998972 1.5 0 -3.1499998964 1.4499999993 0 -3.1499998964 1.5 0 
-3.0999998957 1.4499999993 0 -3.0999998957 1.5 0 -3.0499998949 1.4499999993 0 
-3.0499998949 1.5 0 -2.9999998942 1.4499999993 0 -2.9999998942 1.5 0 
-2.9499998935 1.4499999993 0 -2.9499998935 1.5 0 -2.8999998927 1.4499999993 0 
-2.8999998927 1.5 0 -2.849999892 1.4499999993 0 -2.849999892 1.5 0 
-2.7999998912 1.4499999993 0 -2.7999998912 1.5 0 -2.7499998905 1.4499999993 0 
-2.7499998905 1.5 0 -2.6999998897 1.4499999993 0 -2.6999998897 1.5 0 
-2.649999889 1.4499999993 0 -2.649999889 1.5 0 -2.5999998882 1.4499999993 0 
-2.5999998882 1.5 0 -2.5499998875 1.4499999993 0 -2.5499998875 1.5 0 
-2.4999998868 1.4499999993 0 -2.4999998868 1.5 0 -2.449999886 1.4499999993 0 
-2.449999886 1.5 0 -2.3999998853 1.4499999993 0 -2.3999998853 1.5 0 
-2.3499998845 1.4499999993 0 -2.3499998845 1.5 0 -2.2999998838 1.4499999993 0 
-2.2999998838 1.5 0 -2.249999883 1.4499999993 0 -2.249999883 1.5 0 
-2.1999998823 1.4499999993 0 -2.1999998823 1.5 0 -2.1499998815 1.4499999993 0 
-2.1499998815 1.5 0 -2.0999998808 1.4499999993 0 -2.0999998808 1.5 0 
-2.04999988 1.4499999993 0 -2.04999988 1.5 0 -1.9999998793 1.4499999993 0 
-1.9999998793 1.5 0 -1.9499998786 1.4499999993 0 -1.9499998786 1.5 0 
-1.8999998778 1.4499999993 0 -1.8999998778 1.5 0 -1.8499998771 1.4499999993 0 
-1.8499998771 1.5 0 -1.7999998763 1.4499999993 0 -1.7999998763 1.5 0 
-1.7499998756 1.4499999993 0 -1.7499998756 1.5 0 -1.6999998748 1.4499999993 0 
-1.6999998748 1.5 0 -1.6499998741 1.4499999993 0 -1.6499998741 1.5 0 
-1.5999998733 1.4499999993 0 -1.5999998733 1.5 0 -1.5499998726 1.4499999993 0 
-1.5499998726 1.5 0 -1.4999998718 1.4499999993 0 -1.4999998718 1.5 0 
-1.4499998711 1.4499999993 0 -1.4499998711 1.5 0 -1.3999998704 1.4499999993 0 
-1.3999998704 1.5 0 -1.3499998696 1.4499999993 0 -1.3499998696 1.5 0 
-1.2999998689 1.4499999993 0 -1.2999998689 1.5 0 -1.2499998681 1.4499999993 0 
-1.2499998681 1.5 0 -1.1999998674 1.4499999993 0 -1.1999998674 1.5 0 
-1.1499998666 1.4499999993 0 -1.1499998666 1.5 0 -1.0999998659 1.4499999993 0 
-1.0999998659 1.5 0 -1.0499998651 1.4499999993 0 -1.0499998651 1.5 0 
-0.9999998644 1.4499999993 0 -0.9999998644 1.5 0 -0.94999986365 1.4499999993 0 
-0.94999986365 1.5 0 -0.89999986291 1.4499999993 0 -0.89999986291 1.5 0 
-0.84999986216 1.4499999993 0 -0.84999986216 1.5 0 -0.79999986142 1.4499999993 0 
-0.79999986142 1.5 0 -0.74999986067 1.4499999993 0 -0.74999986067 1.5 0 
-0.69999985993 1.4499999993 0 -0.69999985993 1.5 0 -0.64999985918 1.4499999993 0 
-0.64999985918 1.5 0 -0.59999985844 1.4499999993 0 -0.59999985844 1.5 0 
-0.54999985769 1.4499999993 0 -0.54999985769 1.5 0 -0.49999985695 1.4499999993 0 
-0.49999985695 1.5 0 -0.4499998562 1.4499999993 0 -0.4499998562 1.5 0 
-0.39999985546 1.4499999993 0 -0.39999985546 1.5 0 -0.34999985471 1.4499999993 0 
-0.34999985471 1.5 0 -0.29999985397 1.4499999993 0 -0.29999985397 1.5 0 
-0.24999985322 1.4499999993 0 -0.24999985322 1.5 0 -0.191663057 1.4499999993 0 
-0.17548248559 1.5 0 0.18862900414 1.4499999993 0 0.25000015423 1.4499999993 0 
[...]
CELL_DATA 9510
FIELD FieldData 4
Water_Depth_m 1 9510 float
0.440001 0.440003 0.440004 0.440006 0.440008 0.44001 0.440012 0.440013 0.440015 
0.440017 0.440019 0.440021 0.440022 0.440024 0.440026 0.440028 0.44003 0.440031 
0.440033 0.440035 0.440037 0.440039 0.44004 0.440042 0.440044 0.440046 0.440048 
0.440049 0.440051 0.440053 0.440055 0.440056 0.440058 0.44006 0.440062 0.440064 
0.440065 0.440067 0.440069 0.440071 0.440072 0.440074 0.440076 0.440078 0.44008 
0.440081 0.440083 0.440085 0.440087 0.440088 0.44009 0.440092 0.440094 0.440096 
0.440097 0.440099 0.440101 0.440103 0.440104 0.440106 0.440108 0.44011 0.440112 
0.440113 0.440115 0.440117 0.440119 0.44012 0.440122 0.440124 0.440126 0.440127 
0.440129 0.440131 0.440133 0.440135 0.440136 0.440138 0.44014 0.440142 0.440144 
0.440145 0.440147 0.440149 0.440151 0.440152 0.440154 0.440156 0.440158 0.440159 
0.440161 0.440163 0.440165 0.440167 0.440168 0.44017 0.440172 0.440174 0.440176 
0.440177 0.440179 0.440181 0.440183 0.440184 0.440186 0.440188 0.44019 0.440191 
0.440193 0.440195 0.440197 0.440199 0.4402 0.440202 0.440204 0.440206 0.440207 
0.440209 0.440211 0.440213 0.440214 0.440216 0.440218 0.44022 0.440221 0.440223 
0.440225 0.440227 0.440228 0.44023 0.440232 0.440234 0.440235 0.440237 0.440239 
0.440241 0.440242 0.440244 0.440246 0.440248 0.440249 0.440251 0.440253 0.440254 
0.440256 0.440258 0.44026 0.440261 0.440263 0.440265 0.440267 0.440268 0.44027 
0.440272 0.440273 0.440275 0.440277 0.440279 0.44028 0.440282 0.440284 0.440285 
0.440287 0.440289 0.440291 0.440292 0.440294 0.440296 0.440297 0.440299 0.440301 
0.440303 0.440304 0.440306 0.440308 0.44031 0.440311 0.440313 0.440315 0.440317 
0.440319 0.44032 0.440322 0.440324 0.440326 0.440328 0.44033 0.440332 0.440334 
0.440336 0.440338 0.44034 0.440342 0.440344 0.440345 0.440347 0.440347 0.440342 
0.524671 0.524638 0.524519 0.524335 0.524108 0.523852 0.523578 0.523295 0.52301 
0.522729 0.522455 0.522193 0.521944 0.521709 0.521491 0.521289 0.521103 0.520932 
0.520776 0.520634 0.520505 0.520389 0.520284 0.520191 0.520107 0.520033 0.519969 
0.519912 0.519863 0.51982 0.519784 0.519752 0.519725 0.519702 0.519682 0.519663 
0.519647 0.519631 0.519616 0.519602 0.519588 0.519574 0.519559 0.519545 0.519532 
0.519518 0.519506 0.519495 0.519485 0.519478 0.519472 0.519469 0.519468 0.519471 
0.519476 0.519484 0.519495 0.519509 0.519526 0.519545 0.519567 0.519591 0.519618 
0.519647 0.519678 0.519712 0.519748 0.519788 0.519831 0.519877 0.519929 0.519986 
0.52005 0.520122 0.520202 0.520293 0.520394 0.520509 0.520636 0.520777 0.520933 
0.521104 0.521288 0.521486 0.521695 0.521912 0.522133 0.522353 0.522565 0.522762 
0.522936 0.52308 0.523191 0.523271 0.523328 0.523381 0.523468 0.440001 0.440003 
0.440004 0.440006 0.440008 0.44001 0.440012 0.440013 0.440015 0.440017 0.440019 
0.440021 0.440022 0.440024 0.440026 0.440028 0.44003 0.440031 0.440033 0.440035 
0.440037 0.440039 0.44004 0.440042 0.440044 0.440046 0.440048 0.440049 0.440051 
0.440053 0.440055 0.440056 0.440058 0.44006 0.440062 0.440064 0.440065 0.440067 
0.440069 0.440071 0.440072 0.440074 0.440076 0.440078 0.44008 0.440081 0.440083 
0.440085 0.440087 0.440088 0.44009 0.440092 0.440094 0.440096 0.440097 0.440099 
0.440101 0.440103 0.440104 0.440106 0.440108 0.44011 0.440112 0.440113 0.440115 
0.440117 0.440119 0.44012 0.440122 0.440124 0.440126 0.440128 0.440129 0.440131 
0.440133 0.440135 0.440136 0.440138 0.44014 0.440142 0.440144 0.440145 0.440147 
0.440149 0.440151 0.440152 0.440154 0.440156 0.440158 0.440159 0.440161 0.440163 
0.440165 0.440167 0.440168 0.44017 0.440172 0.440174 0.440176 0.440177 0.440179 
0.440181 0.440183 0.440184 0.440186 0.440188 0.44019 0.440191 0.440193 0.440195 
0.440197 0.440199 0.4402 0.440202 0.440204 0.440206 0.440207 0.440209 0.440211 
0.440213 0.440214 0.440216 0.440218 0.44022 0.440221 0.440223 0.440225 0.440227 
0.440228 0.44023 0.440232 0.440234 0.440235 0.440237 0.440239 0.440241 0.440242 
0.440244 0.440246 0.440248 0.440249 0.440251 0.440253 0.440254 0.440256 0.440258 
0.44026 0.440261 0.440263 0.440265 0.440267 0.440268 0.44027 0.440272 0.440273 
0.440275 0.440277 0.440279 0.44028 0.440282 0.440284 0.440285 0.440287 0.440289 
0.440291 0.440292 0.440294 0.440296 0.440298 0.440299 0.440301 0.440303 0.440304 
0.440306 0.440308 0.44031 0.440311 0.440313 0.440315 0.440317 0.440319 0.44032 
0.440322 0.440324 0.440326 0.440328 0.44033 0.440332 0.440334 0.440336 0.440338 
0.44034 0.440342 0.440344 0.440346 0.440348 0.440349 0.44035 0.524571 0.524542 
0.52443 0.524257 0.524038 0.523789 0.523521 0.523243 0.522962 0.522685 0.522415 
0.522156 0.52191 0.521679 0.521464 0.521264 0.52108 0.520912 0.520758 0.520617 
0.52049 0.520375 0.520272 0.52018 0.520097 0.520024 0.51996 0.519905 0.519856 
0.519815 0.519779 0.519748 0.519722 0.519699 0.51968 0.519662 0.519646 0.519631 
0.519616 0.519602 0.519588 0.519573 0.519559 0.519545 0.519531 0.519517 0.519505 
0.519493 0.519483 0.519475 0.519469 0.519466 0.519465 0.519468 0.519473 0.519481 
0.519492 0.519506 0.519523 0.519542 0.519564 0.519589 0.519615 0.519644 0.519675 
0.519709 0.519745 0.519783 0.519825 0.519871 0.519922 0.519978 0.52004 0.52011 
0.520189 0.520278 0.520378 0.52049 0.520615 0.520754 0.520907 0.521075 0.521258 
0.521453 0.521659 0.521874 0.522094 0.522313 0.522526 0.522725 0.522902 0.52305 
0.523164 0.523242 0.523291 0.523326 0.522726 0.440001 0.440003 0.440004 0.440006 
0.440008 0.44001 0.440012 0.440013 0.440015 0.440017 0.440019 0.440021 0.440022 
0.440024 0.440026 0.440028 0.44003 0.440031 0.440033 0.440035 0.440037 0.440039 
0.44004 0.440042 0.440044 0.440046 0.440048 0.440049 0.440051 0.440053 0.440055 
0.440056 0.440058 0.44006 0.440062 0.440064 0.440065 0.440067 0.440069 0.440071 
0.440072 0.440074 0.440076 0.440078 0.44008 0.440081 0.440083 0.440085 0.440087 
0.440088 0.44009 0.440092 0.440094 0.440096 0.440097 0.440099 0.440101 0.440103 
0.440104 0.440106 0.440108 0.44011 0.440112 0.440113 0.440115 0.440117 0.440119 
0.44012 0.440122 0.440124 0.440126 0.440128 0.440129 0.440131 0.440133 0.440135 
0.440136 0.440138 0.44014 0.440142 0.440144 0.440145 0.440147 0.440149 0.440151 
0.440152 0.440154 0.440156 0.440158 0.440159 0.440161 0.440163 0.440165 0.440167 
0.440168 0.44017 0.440172 0.440174 0.440176 0.440177 0.440179 0.440181 0.440183 
0.440184 0.440186 0.440188 0.44019 0.440191 0.440193 0.440195 0.440197 0.440199 
0.4402 0.440202 0.440204 0.440206 0.440207 0.440209 0.440211 0.440213 0.440214 
0.440216 0.440218 0.44022 0.440221 0.440223 0.440225 0.440227 0.440228 0.44023 
0.440232 0.440234 0.440235 0.440237 0.440239 0.440241 0.440242 0.440244 0.440246 
0.440248 0.440249 0.440251 0.440253 0.440254 0.440256 0.440258 0.44026 0.440261 
0.440263 0.440265 0.440267 0.440268 0.44027 0.440272 0.440273 0.440275 0.440277 
0.440279 0.44028 0.440282 0.440284 0.440285 0.440287 0.440289 0.440291 0.440292 
0.440294 0.440296 0.440298 0.440299 0.440301 0.440303 0.440304 0.440306 0.440308 
0.44031 0.440311 0.440313 0.440315 0.440317 0.440319 0.44032 0.440322 0.440324 
0.440326 0.440328 0.44033 0.440332 0.440334 0.440336 0.440338 0.44034 0.440342 
0.440344 0.440346 0.440349 0.440351 0.440353 0.524432 0.524403 0.524295 0.524128 
0.523919 0.523681 0.523423 0.523153 0.52288 0.52261 0.522346 0.522093 0.521853 
0.521627 0.521417 0.521222 0.521042 0.520878 0.520727 0.52059 0.520465 0.520352 
0.520251 0.52016 0.52008 0.520008 0.519946 0.519892 0.519845 0.519804 0.51977 
0.519741 0.519716 0.519695 0.519676 0.51966 0.519644 0.51963 0.519616 0.519602 
0.519588 0.519574 0.519559 0.519544 0.51953 0.519516 0.519503 0.519491 0.51948 
0.519471 0.519465 0.519461 0.51946 0.519462 0.519467 0.519476 0.519487 0.519501 
0.519518 0.519538 0.519561 0.519585 0.519612 0.519641 0.519672 0.519705 0.51974 
0.519778 0.519819 0.519863 0.519912 0.519966 0.520026 0.520093 0.520169 0.520255 
0.520351 0.52046 0.520582 0.520717 0.520867 0.521031 0.52121 0.521401 0.521604 
0.521816 0.522034 0.522252 0.522466 0.522668 0.52285 0.523004 0.523121 0.523196 
0.523228 0.523202 0.521502 0.440001 0.440003 0.440004 0.440006 0.440008 0.44001 
0.440012 0.440014 0.440015 0.440017 0.440019 0.440021 0.440022 0.440024 0.440026 
0.440028 0.44003 0.440031 0.440033 0.440035 0.440037 0.440039 0.44004 0.440042 
0.440044 0.440046 0.440048 0.440049 0.440051 0.440053 0.440055 0.440056 0.440058 
0.44006 0.440062 0.440064 0.440065 0.440067 0.440069 0.440071 0.440072 0.440074 
0.440076 0.440078 0.44008 0.440081 0.440083 0.440085 0.440087 0.440088 0.44009 
0.440092 0.440094 0.440096 0.440097 0.440099 0.440101 0.440103 0.440104 0.440106 
0.440108 0.44011 0.440112 0.440113 0.440115 0.440117 0.440119 0.44012 0.440122 
0.440124 0.440126 0.440128 0.440129 0.440131 0.440133 0.440135 0.440136 0.440138 
0.44014 0.440142 0.440144 0.440145 0.440147 0.440149 0.440151 0.440152 0.440154 
0.440156 0.440158 0.440159 0.440161 0.440163 0.440165 0.440167 0.440168 0.44017 
0.440172 0.440174 0.440176 0.440177 0.440179 0.440181 0.440183 0.440184 0.440186 
0.440188 0.44019 0.440191 0.440193 0.440195 0.440197 0.440199 0.4402 0.440202 
0.440204 0.440206 0.440207 0.440209 0.440211 0.440213 0.440214 0.440216 0.440218 
0.44022 0.440221 0.440223 0.440225 0.440227 0.440228 0.44023 0.440232 0.440234 
0.440235 0.440237 0.440239 0.440241 0.440242 0.440244 0.440246 0.440248 0.440249 
0.440251 0.440253 0.440254 0.440256 0.440258 0.44026 0.440261 0.440263 0.440265 
0.440267 0.440268 0.44027 0.440272 0.440273 0.440275 0.440277 0.440279 0.44028 
0.440282 0.440284 0.440285 0.440287 0.440289 0.440291 0.440292 0.440294 0.440296 
0.440298 0.440299 0.440301 0.440303 0.440304 0.440306 0.440308 0.44031 0.440311 
0.440313 0.440315 0.440317 0.440318 0.44032 0.440322 0.440324 0.440326 0.440328 
0.44033 0.440332 0.440333 0.440336 0.440338 0.44034 0.440342 0.440344 0.440347 
0.44035 0.440353 0.440359 0.524288 0.52425 0.524142 0.52398 0.523778 0.523547 
0.523298 0.523039 0.522776 0.522515 0.52226 0.522015 0.521782 0.521563 0.521359 
0.52117 0.520996 0.520836 0.520689 0.520556 0.520434 0.520324 0.520225 0.520136 
0.520057 0.519988 0.519927 0.519875 0.519829 0.519791 0.519759 0.519731 0.519708 
0.519689 0.519672 0.519657 0.519643 0.519629 0.519616 0.519603 0.519589 0.519575 
0.51956 0.519545 0.519529 0.519515 0.5195 0.519487 0.519476 0.519466 0.519459 
0.519455 0.519453 0.519455 0.51946 0.519469 0.51948 0.519495 0.519513 0.519533 
0.519556 0.51958 0.519607 0.519636 0.519667 0.5197 0.519734 0.519771 0.51981 
0.519853 0.519899 0.519951 0.520008 0.520072 0.520144 0.520226 0.520318 0.520423 
0.52054 0.520671 0.520817 0.520977 0.521152 0.521339 0.521539 0.521748 0.521964 
0.522182 0.522398 0.522603 0.52279 0.522949 0.52307 0.523145 0.523164 0.523136 
0.520333 0.440001 0.440003 0.440004 0.440006 0.440008 0.44001 0.440012 0.440014 
0.440015 0.440017 0.440019 0.440021 0.440022 0.440024 0.440026 0.440028 0.44003 
0.440031 0.440033 0.440035 0.440037 0.440039 0.44004 0.440042 0.440044 0.440046 
0.440048 0.440049 0.440051 0.440053 0.440055 0.440056 0.440058 0.44006 0.440062 
0.440064 0.440065 0.440067 0.440069 0.440071 0.440072 0.440074 0.440076 0.440078 
0.44008 0.440081 0.440083 0.440085 0.440087 0.440088 0.44009 0.440092 0.440094 
0.440096 0.440097 0.440099 0.440101 0.440103 0.440104 0.440106 0.440108 0.44011 
0.440112 0.440113 0.440115 0.440117 0.440119 0.44012 0.440122 0.440124 0.440126 
0.440128 0.440129 0.440131 0.440133 0.440135 0.440136 0.440138 0.44014 0.440142 
0.440144 0.440145 0.440147 0.440149 0.440151 0.440152 0.440154 0.440156 0.440158 
0.44016 0.440161 0.440163 0.440165 0.440167 0.440168 0.44017 0.440172 0.440174 
0.440176 0.440177 0.440179 0.440181 0.440183 0.440184 0.440186 0.440188 0.44019 
0.440191 0.440193 0.440195 0.440197 0.440199 0.4402 0.440202 0.440204 0.440206 
0.440207 0.440209 0.440211 0.440213 0.440214 0.440216 0.440218 0.44022 0.440221 
0.440223 0.440225 0.440227 0.440228 0.44023 0.440232 0.440234 0.440235 0.440237 
0.440239 0.440241 0.440242 0.440244 0.440246 0.440248 0.440249 0.440251 0.440253 
0.440254 0.440256 0.440258 0.44026 0.440261 0.440263 0.440265 0.440267 0.440268 
0.44027 0.440272 0.440273 0.440275 0.440277 0.440279 0.44028 0.440282 0.440284 
0.440285 0.440287 0.440289 0.440291 0.440292 0.440294 0.440296 0.440297 0.440299 
0.440301 0.440303 0.440304 0.440306 0.440308 0.44031 0.440311 0.440313 0.440315 
0.440317 0.440318 0.44032 0.440322 0.440324 0.440326 0.440328 0.440329 0.440331 
0.440333 0.440335 0.440337 0.44034 0.440342 0.440344 0.440347 0.440351 0.440355 
0.440362 0.524165 0.524109 0.523996 0.523834 0.523636 0.523411 0.523169 0.522918 
0.522663 0.522411 0.522166 0.52193 0.521706 0.521495 0.521298 0.521116 0.520947 
0.520792 0.52065 0.52052 0.520401 0.520294 0.520197 0.52011 0.520033 0.519965 
0.519906 0.519855 0.519812 0.519776 0.519746 0.519721 0.5197 0.519682 0.519668 
0.519654 0.519642 0.51963 0.519617 0.519605 0.519591 0.519576 0.519561 0.519545 
0.519529 0.519513 0.519498 0.519483 0.519471 0.51946 0.519452 0.519447 0.519445 
0.519447 0.519452 0.51946 0.519472 0.519488 0.519506 0.519527 0.51955 0.519576 
0.519603 0.519632 0.519663 0.519695 0.519729 0.519764 0.519802 0.519843 0.519887 
0.519935 0.519989 0.520049 0.520117 0.520194 0.520282 0.520381 0.520494 0.52062 
0.520762 0.520918 0.521089 0.521273 0.52147 0.521678 0.521893 0.522112 0.522329 
0.522538 0.52273 0.522895 0.523022 0.523096 0.523084 0.523149 0.519526 0.440001 
0.440003 0.440004 0.440006 0.440008 0.44001 0.440012 0.440013 0.440015 0.440017 
0.440019 0.440021 0.440022 0.440024 0.440026 0.440028 0.44003 0.440031 0.440033 
0.440035 0.440037 0.440039 0.44004 0.440042 0.440044 0.440046 0.440048 0.440049 
0.440051 0.440053 0.440055 0.440056 0.440058 0.44006 0.440062 0.440064 0.440065 
0.440067 0.440069 0.440071 0.440072 0.440074 0.440076 0.440078 0.44008 0.440081 
0.440083 0.440085 0.440087 0.440088 0.44009 0.440092 0.440094 0.440096 0.440097 
0.440099 0.440101 0.440103 0.440104 0.440106 0.440108 0.44011 0.440112 0.440113 
0.440115 0.440117 0.440119 0.44012 0.440122 0.440124 0.440126 0.440128 0.440129 
0.440131 0.440133 0.440135 0.440136 0.440138 0.44014 0.440142 0.440144 0.440145 
0.440147 0.440149 0.440151 0.440152 0.440154 0.440156 0.440158 0.440159 0.440161 
0.440163 0.440165 0.440167 0.440168 0.44017 0.440172 0.440174 0.440176 0.440177 
0.440179 0.440181 0.440183 0.440184 0.440186 0.440188 0.44019 0.440191 0.440193 
0.440195 0.440197 0.440199 0.4402 0.440202 0.440204 0.440206 0.440207 0.440209 
0.440211 0.440213 0.440214 0.440216 0.440218 0.44022 0.440221 0.440223 0.440225 
0.440227 0.440228 0.44023 0.440232 0.440234 0.440235 0.440237 0.440239 0.440241 
0.440242 0.440244 0.440246 0.440248 0.440249 0.440251 0.440253 0.440254 0.440256 
0.440258 0.44026 0.440261 0.440263 0.440265 0.440267 0.440268 0.44027 0.440272 
0.440273 0.440275 0.440277 0.440279 0.44028 0.440282 0.440284 0.440285 0.440287 
0.440289 0.440291 0.440292 0.440294 0.440296 0.440297 0.440299 0.440301 0.440303 
0.440304 0.440306 0.440308 0.44031 0.440311 0.440313 0.440315 0.440317 0.440318 
0.44032 0.440322 0.440324 0.440326 0.440327 0.440329 0.440331 0.440333 0.440335 
0.440337 0.440339 0.440342 0.440344 0.440347 0.44035 0.440355 0.440362 0.524082 
0.523998 0.523874 0.523708 0.52351 0.523288 0.523051 0.522806 0.522559 0.522314 
0.522076 0.521848 0.521632 0.521429 0.52124 0.521064 0.520901 0.520751 0.520612 
0.520486 0.52037 0.520265 0.520169 0.520084 0.520008 0.519942 0.519885 0.519836 
0.519794 0.51976 0.519732 0.51971 0.519691 0.519676 0.519664 0.519653 0.519642 
0.519631 0.51962 0.519608 0.519594 0.519579 0.519564 0.519547 0.519529 0.519512 
0.519495 0.519479 0.519465 0.519453 0.519444 0.519438 0.519435 0.519437 0.519442 
0.519451 0.519463 0.519479 0.519499 0.519521 0.519545 0.519571 0.5196 0.519629 
0.51966 0.519692 0.519725 0.51976 0.519796 0.519834 0.519876 0.519921 0.519971 
0.520027 0.52009 0.520162 0.520245 0.52034 0.520448 0.52057 0.520707 0.520859 
0.521027 0.521209 0.521404 0.521611 0.521826 0.522046 0.522266 0.522479 0.522677 
0.522849 0.522981 0.523046 0.523068 0.523167 0.519059 0.440001 0.440003 0.440004 
0.440006 0.440008 0.44001 0.440012 0.440013 0.440015 0.440017 0.440019 0.440021 
0.440022 0.440024 0.440026 0.440028 0.44003 0.440031 0.440033 0.440035 0.440037 
0.440039 0.44004 0.440042 0.440044 0.440046 0.440048 0.440049 0.440051 0.440053 
0.440055 0.440056 0.440058 0.44006 0.440062 0.440064 0.440065 0.440067 0.440069 
0.440071 0.440072 0.440074 0.440076 0.440078 0.44008 0.440081 0.440083 0.440085 
0.440087 0.440088 0.44009 0.440092 0.440094 0.440096 0.440097 0.440099 0.440101 
0.440103 0.440104 0.440106 0.440108 0.44011 0.440112 0.440113 0.440115 0.440117 
0.440119 0.44012 0.440122 0.440124 0.440126 0.440128 0.440129 0.440131 0.440133 
0.440135 0.440136 0.440138 0.44014 0.440142 0.440144 0.440145 0.440147 0.440149 
0.440151 0.440152 0.440154 0.440156 0.440158 0.440159 0.440161 0.440163 0.440165 
0.440167 0.440168 0.44017 0.440172 0.440174 0.440176 0.440177 0.440179 0.440181 
0.440183 0.440184 0.440186 0.440188 0.44019 0.440191 0.440193 0.440195 0.440197 
0.440199 0.4402 0.440202 0.440204 0.440206 0.440207 0.440209 0.440211 0.440213 
0.440214 0.440216 0.440218 0.44022 0.440221 0.440223 0.440225 0.440227 0.440228 
0.44023 0.440232 0.440234 0.440235 0.440237 0.440239 0.440241 0.440242 0.440244 
0.440246 0.440248 0.440249 0.440251 0.440253 0.440254 0.440256 0.440258 0.44026 
0.440261 0.440263 0.440265 0.440267 0.440268 0.44027 0.440272 0.440273 0.440275 
0.440277 0.440279 0.44028 0.440282 0.440284 0.440285 0.440287 0.440289 0.440291 
0.440292 0.440294 0.440296 0.440297 0.440299 0.440301 0.440303 0.440304 0.440306 
0.440308 0.440309 0.440311 0.440313 0.440315 0.440316 0.440318 0.44032 0.440322 
0.440324 0.440325 0.440327 0.440329 0.440331 0.440333 0.440335 0.440337 0.440339 
0.440341 0.440344 0.440346 0.440349 0.440353 0.440358 0.524047 0.523932 0.52379 
0.523615 0.523414 0.523192 0.522957 0.522716 0.522473 0.522235 0.522003 0.521782 
0.521572 0.521375 0.521192 0.521021 0.520862 0.520716 0.52058 0.520456 0.520342 
0.520238 0.520144 0.520059 0.519985 0.519919 0.519863 0.519816 0.519777 0.519745 
0.519719 0.519699 0.519684 0.519671 0.519661 0.519652 0.519644 0.519634 0.519624 
0.519613 0.519599 0.519584 0.519567 0.519549 0.519531 0.519511 0.519493 0.519475 
0.519459 0.519445 0.519435 0.519428 0.519425 0.519426 0.519431 0.519441 0.519454 
0.519471 0.519491 0.519515 0.51954 0.519568 0.519597 0.519628 0.519659 0.519691 
0.519724 0.519758 0.519792 0.519829 0.519868 0.51991 0.519956 0.520008 0.520066 
0.520134 0.520212 0.520302 0.520405 0.520522 0.520656 0.520805 0.52097 0.521151 
0.521345 0.521552 0.521768 0.521989 0.522212 0.52243 0.522634 0.522812 0.522945 
0.523014 0.523139 0.52321 0.518839 0.440001 0.440003 0.440004 0.440006 0.440008 
0.44001 0.440012 0.440013 0.440015 0.440017 0.440019 0.440021 0.440022 0.440024 
0.440026 0.440028 0.44003 0.440031 0.440033 0.440035 0.440037 0.440039 0.44004 
0.440042 0.440044 0.440046 0.440048 0.440049 0.440051 0.440053 0.440055 0.440056 
0.440058 0.44006 0.440062 0.440064 0.440065 0.440067 0.440069 0.440071 0.440072 
0.440074 0.440076 0.440078 0.44008 0.440081 0.440083 0.440085 0.440087 0.440088 
0.44009 0.440092 0.440094 0.440096 0.440097 0.440099 0.440101 0.440103 0.440104 
0.440106 0.440108 0.44011 0.440112 0.440113 0.440115 0.440117 0.440119 0.44012 
0.440122 0.440124 0.440126 0.440128 0.440129 0.440131 0.440133 0.440135 0.440136 
0.440138 0.44014 0.440142 0.440144 0.440145 0.440147 0.440149 0.440151 0.440152 
0.440154 0.440156 0.440158 0.440159 0.440161 0.440163 0.440165 0.440167 0.440168 
0.44017 0.440172 0.440174 0.440176 0.440177 0.440179 0.440181 0.440183 0.440184 
0.440186 0.440188 0.44019 0.440191 0.440193 0.440195 0.440197 0.440199 0.4402 
0.440202 0.440204 0.440206 0.440207 0.440209 0.440211 0.440213 0.440214 0.440216 
0.440218 0.44022 0.440221 0.440223 0.440225 0.440227 0.440228 0.44023 0.440232 
0.440234 0.440235 0.440237 0.440239 0.440241 0.440242 0.440244 0.440246 0.440248 
0.440249 0.440251 0.440253 0.440254 0.440256 0.440258 0.44026 0.440261 0.440263 