# vtk DataFile Version 5.1
vtk output
ASCII
DATASET UNSTRUCTURED_GRID
POINTS 10043 double
-10.1 1.4499999993 -6.5110748437e-07 -10.049999999 1.4499999993 -4.742580586e-07 -10.049999999 1.5 1.7679119537e-06 
-9.9999999985 1.4499999993 -4.035521215e-07 -9.9999999985 1.5 1.5303246528e-06 -9.9499999978 1.4499999993 -3.6664664549e-07 
-9.9499999978 1.5 1.3956757812e-06 -9.899999997 1.4499999993 -3.4299978324e-07 -9.899999997 1.5 1.3077440144e-06 
-9.8499999963 1.4499999993 -3.2643606573e-07 -9.8499999963 1.5 1.2454199805e-06 -9.7999999955 1.4499999993 -3.1417971513e-07 
-9.7999999955 1.5 1.1994832221e-06 -9.7499999948 1.4499999993 -3.0487740332e-07 -9.7499999948 1.5 1.1643348898e-06 
-9.699999994 1.4499999993 -2.9767784326e-07 -9.699999994 1.5 1.1368626929e-06 -9.6499999933 1.4499999993 -2.9196075957e-07 
-9.6499999933 1.5 1.1152694697e-06 -9.5999999925 1.4499999993 -2.8744966585e-07 -9.5999999925 1.5 1.0980974139e-06 
-9.5499999918 1.4499999993 -2.8384442885e-07 -9.5499999918 1.5 1.084492169e-06 -9.4999999911 1.4499999993 -2.8108138395e-07 
-9.4999999911 1.5 1.0737182947e-06 -9.4499999903 1.4499999993 -2.7887858778e-07 -9.4499999903 1.5 1.065432798e-06 
-9.3999999896 1.4499999993 -2.7716146178e-07 -9.3999999896 1.5 1.0590517832e-06 -9.3499999888 1.4499999993 -2.7598093766e-07 
-9.3499999888 1.5 1.0543515145e-06 -9.2999999881 1.4499999993 -2.7515329748e-07 -9.2999999881 1.5 1.0511701021e-06 
-9.2499999873 1.4499999993 -2.7466580832e-07 -9.2499999873 1.5 1.0493238278e-06 -9.1999999866 1.4499999993 -2.7437295103e-07 
-9.1999999866 1.5 1.0485216535e-06 -9.1499999858 1.4499999993 -2.7442388273e-07 -9.1499999858 1.5 1.048774493e-06 
-9.0999999851 1.4499999993 -2.7480405151e-07 -9.0999999851 1.5 1.0498367828e-06 -9.0499999844 1.4499999993 -2.7528062674e-07 
-9.0499999844 1.5 1.0519904663e-06 -8.9999999836 1.4499999993 -2.7602095543e-07 -8.9999999836 1.5 1.0547626061e-06 
-8.9499999829 1.4499999993 -2.7695955396e-07 -8.9499999829 1.5 1.0582023151e-06 -8.8999999821 1.4499999993 -2.7799637792e-07 
-8.8999999821 1.5 1.062340516e-06 -8.8499999814 1.4499999993 -2.7923329071e-07 -8.8499999814 1.5 1.0671772088e-06 
-8.7999999806 1.4499999993 -2.8065028346e-07 -8.7999999806 1.5 1.0724395452e-06 -8.7499999799 1.4499999993 -2.8220915738e-07 
-8.7499999799 1.5 1.078471314e-06 -8.6999999791 1.4499999993 -2.8303134059e-07 -8.6999999791 1.5 1.0816945633e-06 
-8.6499999784 1.4499999993 -2.8484123504e-07 -8.6499999784 1.5 1.0884848507e-06 -8.5999999776 1.4499999993 -2.8673844099e-07 
-8.5999999776 1.5 1.0957735412e-06 -8.5499999769 1.4499999993 -2.8880026548e-07 -8.5499999769 1.5 1.1035178886e-06 
-8.4999999762 1.4499999993 -2.9096577236e-07 -8.4999999762 1.5 1.1117933809e-06 -8.4499999754 1.4499999993 -2.9324132811e-07 
-8.4499999754 1.5 1.1205809187e-06 -8.3999999747 1.4499999993 -2.9567786441e-07 -8.3999999747 1.5 1.1297249785e-06 
-8.3499999739 1.4499999993 -2.9820262171e-07 -8.3499999739 1.5 1.1394256489e-06 -8.2999999732 1.4499999993 -3.0080650504e-07 
-8.2999999732 1.5 1.1496074421e-06 -8.2499999724 1.4499999993 -3.0361775316e-07 -8.2499999724 1.5 1.1601848655e-06 
-8.1999999717 1.4499999993 -3.0648629945e-07 -8.1999999717 1.5 1.1712370451e-06 -8.1499999709 1.4499999993 -3.0947944651e-07 
-8.1499999709 1.5 1.1827439721e-06 -8.0999999702 1.4499999993 -3.1259810385e-07 -8.0999999702 1.5 1.1947211078e-06 
-8.0499999695 1.4499999993 -3.1591321203e-07 -8.0499999695 1.5 1.2071129731e-06 -7.9999999687 1.4499999993 -3.19266519e-07 
-7.9999999687 1.5 1.2200305264e-06 -7.949999968 1.4499999993 -3.2275534068e-07 -7.949999968 1.5 1.2334264738e-06 
-7.8999999672 1.4499999993 -3.2638240555e-07 -7.8999999672 1.5 1.2472471553e-06 -7.8499999665 1.4499999993 -3.3012861422e-07 
-7.8499999665 1.5 1.2616045524e-06 -7.7999999657 1.4499999993 -3.3401397559e-07 -7.7999999657 1.5 1.2764364783e-06 
-7.749999965 1.4499999993 -3.3799665289e-07 -7.749999965 1.5 1.2917814729e-06 -7.6999999642 1.4499999993 -3.4214758671e-07 
-7.6999999642 1.5 1.3075584775e-06 -7.6499999635 1.4499999993 -3.4645495361e-07 -7.6499999635 1.5 1.3239803138e-06 
-7.5999999627 1.4499999993 -3.5084690353e-07 -7.5999999627 1.5 1.3407868664e-06 -7.549999962 1.4499999993 -3.5546349864e-07 
-7.549999962 1.5 1.3582655356e-06 -7.4999999613 1.4499999993 -3.6018104765e-07 -7.4999999613 1.5 1.376303544e-06 
-7.4499999605 1.4499999993 -3.6505957723e-07 -7.4499999605 1.5 1.3948972537e-06 -7.3999999598 1.4499999993 -3.7002450881e-07 
-7.3999999598 1.5 1.4140202893e-06 -7.349999959 1.4499999993 -3.7520044316e-07 -7.349999959 1.5 1.4338718302e-06 
-7.2999999583 1.4499999993 -3.8055918594e-07 -7.2999999583 1.5 1.4542872577e-06 -7.2499999575 1.4499999993 -3.8607890929e-07 
-7.2499999575 1.5 1.475349336e-06 -7.1999999568 1.4499999993 -3.9182418732e-07 -7.1999999568 1.5 1.4971562905e-06 
-7.149999956 1.4499999993 -3.9767678572e-07 -7.149999956 1.5 1.5195507785e-06 -7.0999999553 1.4499999993 -4.0066356632e-07 
-7.0999999553 1.5 1.5310176877e-06 -7.0499999546 1.4499999993 -4.0681811697e-07 -7.0499999546 1.5 1.5546127088e-06 
-6.9999999538 1.4499999993 -4.1320640776e-07 -6.9999999538 1.5 1.578864385e-06 -6.9499999531 1.4499999993 -4.1973021325e-07 
-6.9499999531 1.5 1.6039928141e-06 -6.8999999523 1.4499999993 -4.2655142352e-07 -6.8999999523 1.5 1.6298988612e-06 
-6.8499999516 1.4499999993 -4.3358090807e-07 -6.8499999516 1.5 1.6566116301e-06 -6.7999999508 1.4499999993 -4.4074954531e-07 
-6.7999999508 1.5 1.6843084722e-06 -6.7499999501 1.4499999993 -4.4825105761e-07 -6.7499999501 1.5 1.7128643321e-06 
-6.6999999493 1.4499999993 -4.5597448661e-07 -6.6999999493 1.5 1.7424297312e-06 -6.6499999486 1.4499999993 -4.6396485232e-07 
-6.6499999486 1.5 1.7729564661e-06 -6.5999999478 1.4499999993 -4.7226171773e-07 -6.5999999478 1.5 1.8045377601e-06 
-6.5499999471 1.4499999993 -4.8081324167e-07 -6.5499999471 1.5 1.837251375e-06 -6.4999999464 1.4499999993 -4.8966717259e-07 
-6.4999999464 1.5 1.8710959466e-06 -6.4499999456 1.4499999993 -4.9884579312e-07 -6.4499999456 1.5 1.906130592e-06 
-6.3999999449 1.4499999993 -5.0834864851e-07 -6.3999999449 1.5 1.9424294351e-06 -6.3499999441 1.4499999993 -5.1820029512e-07 
-6.3499999441 1.5 1.9800402242e-06 -6.2999999434 1.4499999993 -5.2840118769e-07 -6.2999999434 1.5 2.0190702799e-06 
-6.2499999426 1.4499999993 -5.3899043451e-07 -6.2499999426 1.5 2.0595432488e-06 -6.1999999419 1.4499999993 -5.5000532484e-07 
-6.1999999419 1.5 2.1015418952e-06 -6.1499999411 1.4499999993 -5.6141448113e-07 -6.1499999411 1.5 2.1452076453e-06 
-6.0999999404 1.4499999993 -5.7329748415e-07 -6.0999999404 1.5 2.1905323138e-06 -6.0499999397 1.4499999993 -5.8564523897e-07 
-6.0499999397 1.5 2.2376837023e-06 -5.9999999389 1.4499999993 -5.9848593992e-07 -5.9999999389 1.5 2.2867909593e-06 
-5.9499999382 1.4499999993 -6.1184687183e-07 -5.9499999382 1.5 2.3378609058e-06 -5.8999999374 1.4499999993 -6.2579488258e-07 
-5.8999999374 1.5 2.3911131848e-06 -5.8499999367 1.4499999993 -6.4033088165e-07 -5.8499999367 1.5 2.4466351078e-06 
-5.7999999359 1.4499999993 -6.5552035267e-07 -5.7999999359 1.5 2.5046058454e-06 -5.7499999352 1.4499999993 -6.7138785198e-07 
-5.7499999352 1.5 2.5651422675e-06 -5.6999999344 1.4499999993 -6.8796202868e-07 -5.6999999344 1.5 2.6284953947e-06 
-5.6499999337 1.4499999993 -7.052865385e-07 -5.6499999337 1.5 2.6947529932e-06 -5.5999999329 1.4499999993 -7.2349553193e-07 
-5.5999999329 1.5 2.7641897304e-06 -5.5499999322 1.4499999993 -7.3291926128e-07 -5.5499999322 1.5 2.8001702503e-06 
-5.4999999315 1.4499999993 -7.5245293374e-07 -5.4999999315 1.5 2.8747879242e-06 -5.4499999307 1.4499999993 -7.7296976997e-07 
-5.4499999307 1.5 2.9531895507e-06 -5.39999993 1.4499999993 -7.9458595792e-07 -5.39999993 1.5 3.0356638945e-06 
-5.3499999292 1.4499999993 -8.173299193e-07 -5.3499999292 1.5 3.1225681596e-06 -5.2999999285 1.4499999993 -8.413278465e-07 
-5.2999999285 1.5 3.2142240798e-06 -5.2499999277 1.4499999993 -8.6668546828e-07 -5.2499999277 1.5 3.3110475215e-06 
-5.199999927 1.4499999993 -8.9354170996e-07 -5.199999927 1.5 3.4135091482e-06 -5.1499999262 1.4499999993 -9.2199002211e-07 
-5.1499999262 1.5 3.5221303278e-06 -5.0999999255 1.4499999993 -9.5219229479e-07 -5.0999999255 1.5 3.6374453884e-06 
-5.0499999247 1.4499999993 -9.8431746665e-07 -5.0499999247 1.5 3.7601485019e-06 -4.999999924 1.4499999993 -1.0185947303e-06 
-4.999999924 1.5 3.8909161049e-06 -4.9499999233 1.4499999993 -1.0551846117e-06 -4.9499999233 1.5 4.0306472329e-06 
-4.8999999225 1.4499999993 -1.0943685993e-06 -4.8999999225 1.5 4.1802341002e-06 -4.8499999218 1.4499999993 -1.1364654711e-06 
-4.8499999218 1.5 4.3407562771e-06 -4.799999921 1.4499999993 -1.1817196537e-06 -4.799999921 1.5 4.5135006985e-06 
-4.7499999203 1.4499999993 -1.2305599739e-06 -4.7499999203 1.5 4.6998593461e-06 -4.6999999195 1.4499999993 -1.283410711e-06 
-4.6999999195 1.5 4.9014583965e-06 -4.6499999188 1.4499999993 -1.3407670849e-06 -4.6499999188 1.5 5.1202009672e-06 
-4.599999918 1.4499999993 -1.4031663795e-06 -4.599999918 1.5 5.3582434703e-06 -4.5499999173 1.4499999993 -1.4712975371e-06 
-4.5499999173 1.5 5.6180747379e-06 -4.4999999166 1.4499999993 -1.5458783764e-06 -4.4999999166 1.5 5.9025178416e-06 
-4.4499999158 1.4499999993 -1.627789743e-06 -4.4499999158 1.5 6.2148028519e-06 -4.3999999151 1.4499999993 -1.7179445422e-06 
-4.3999999151 1.5 6.5585095399e-06 -4.3499999143 1.4499999993 -1.8173378749e-06 -4.3499999143 1.5 6.9374714258e-06 
-4.2999999136 1.4499999993 -1.9269762106e-06 -4.2999999136 1.5 7.3554924711e-06 -4.2499999128 1.4499999993 -2.0476709324e-06 
-4.2499999128 1.5 7.8158309407e-06 -4.1999999121 1.4499999993 -2.1797031877e-06 -4.1999999121 1.5 8.3197892309e-06 
-4.1499999113 1.4499999993 -2.3220243293e-06 -4.1499999113 1.5 8.8640254035e-06 -4.0999999106 1.4499999993 -2.4705921078e-06 
-4.0999999106 1.5 9.4343968158e-06 -4.0499999098 1.4499999993 -2.6144921321e-06 -4.0499999098 1.5 9.9926628536e-06 
-3.9999999091 1.4499999993 -2.7268406484e-06 -3.9999999091 1.5 1.0444807231e-05 -3.9499999084 1.4499999993 -2.7532391869e-06 
[...]
CELL_DATA 9510
FIELD FieldData 4
Water_Depth_m 1 9510 float
0.640001 0.640005 0.640008 0.640012 0.640016 0.64002 0.640024 0.640028 0.640032 
0.640037 0.640041 0.640046 0.640051 0.640056 0.640061 0.640066 0.640071 0.640075 
0.64008 0.640084 0.640089 0.640093 0.640096 0.640099 0.640102 0.640105 0.640107 
0.640108 0.640109 0.64011 0.64011 0.640109 0.640108 0.640107 0.640105 0.640103 
0.6401 0.640096 0.640093 0.640089 0.640085 0.64008 0.640075 0.640071 0.640066 
0.640061 0.640056 0.640051 0.640047 0.640042 0.640038 0.640034 0.64003 0.640027 
0.640024 0.640021 0.640019 0.640017 0.640015 0.640014 0.640014 0.640014 0.640014 
0.640015 0.640016 0.640017 0.640019 0.640021 0.640024 0.640026 0.640029 0.640032 
0.640035 0.640038 0.640042 0.640045 0.640049 0.640052 0.640056 0.640059 0.640063 
0.640067 0.64007 0.640074 0.640078 0.640082 0.640085 0.640089 0.640093 0.640097 
0.640102 0.640107 0.640112 0.640117 0.640123 0.640129 0.640136 0.640144 0.640153 
0.640162 0.640173 0.640185 0.640199 0.640215 0.640232 0.640252 0.640274 0.640299 
0.640328 0.640359 0.640395 0.640435 0.64048 0.640531 0.640586 0.640648 0.640717 
0.640792 0.640874 0.640963 0.64106 0.641164 0.641274 0.64139 0.641511 0.641633 
0.641773 0.642002 0.64257 0.642111 0.62447 0.586804 0.540875 0.494881 0.456422 
0.424752 0.395862 0.365707 0.329887 0.291297 0.256139 0.229264 0.214344 0.211301 
0.216809 0.224062 0.231185 0.237577 0.24537 0.250607 0.254325 0.259665 0.265532 
0.273032 0.282012 0.292031 0.304212 0.314355 0.32479 0.337191 0.342961 0.342462 
0.336317 0.32405 0.320811 0.329325 0.336047 0.340953 0.346658 0.353054 0.360154 
0.366894 0.37312 0.37975 0.386606 0.394206 0.401709 0.409053 0.415931 0.423517 
0.432737 0.442216 0.449185 0.455499 0.461694 0.46814 0.475088 0.482506 0.487926 
0.492916 0.496954 0.503181 0.512544 0.51548 0.516804 0.5191 0.519354 0.516626 
0.479282 0.463933 0.451385 0.438841 0.427006 0.407815 0.384631 0.367655 0.364347 
0.365195 0.365131 0.363679 0.363613 0.363578 0.360079 0.356365 0.356394 0.356429 
0.356465 0.356502 0.356539 0.356574 0.356608 0.35664 0.356671 0.3567 0.356727 
0.356753 0.356777 0.356799 0.35682 0.35684 0.356859 0.356876 0.356892 0.356908 
0.356922 0.356936 0.356949 0.356961 0.356973 0.356984 0.356994 0.357004 0.357014 
0.357023 0.357033 0.357041 0.35705 0.357058 0.357066 0.357074 0.357081 0.357089 
0.357096 0.357103 0.35711 0.357117 0.357124 0.357131 0.357137 0.357144 0.35715 
0.357157 0.357163 0.35717 0.357176 0.357182 0.357189 0.357195 0.357201 0.357207 
0.357214 0.35722 0.357226 0.357232 0.357238 0.357245 0.357251 0.357257 0.357263 
0.357269 0.357275 0.357281 0.357288 0.357294 0.3573 0.357306 0.357312 0.357318 
0.357324 0.357331 0.357337 0.357331 0.357272 0.356661 0.350874 0.640001 0.640005 
0.640008 0.640012 0.640016 0.64002 0.640024 0.640028 0.640032 0.640037 0.640041 
0.640046 0.640051 0.640056 0.640061 0.640066 0.640071 0.640076 0.64008 0.640085 
0.640089 0.640093 0.640097 0.6401 0.640103 0.640105 0.640107 0.640109 0.64011 
0.640111 0.640111 0.64011 0.640109 0.640108 0.640106 0.640103 0.640101 0.640097 
0.640094 0.64009 0.640086 0.640081 0.640076 0.640071 0.640067 0.640062 0.640057 
0.640052 0.640047 0.640043 0.640038 0.640034 0.64003 0.640027 0.640024 0.640021 
0.640019 0.640017 0.640016 0.640015 0.640014 0.640014 0.640014 0.640015 0.640016 
0.640017 0.640019 0.640021 0.640024 0.640026 0.640029 0.640032 0.640035 0.640038 
0.640042 0.640045 0.640049 0.640052 0.640056 0.64006 0.640063 0.640067 0.640071 
0.640074 0.640078 0.640082 0.640086 0.640089 0.640093 0.640098 0.640102 0.640107 
0.640112 0.640117 0.640122 0.640129 0.640136 0.640143 0.640152 0.640161 0.640172 
0.640184 0.640197 0.640213 0.64023 0.640249 0.640271 0.640296 0.640323 0.640355 
0.64039 0.640429 0.640474 0.640523 0.640578 0.640639 0.640707 0.640781 0.640862 
0.640951 0.641048 0.641151 0.641262 0.641378 0.6415 0.641625 0.641751 0.641878 
0.642181 0.641884 0.624324 0.585252 0.535538 0.485838 0.446144 0.414768 0.386818 
0.357392 0.322713 0.284895 0.250463 0.22598 0.212203 0.21867 0.229813 0.236842 
0.240751 0.245041 0.249174 0.255169 0.262221 0.268385 0.273852 0.279743 0.285873 
0.291108 0.301512 0.3128 0.326207 0.348987 0.387004 0.412562 0.391421 0.341695 
0.333053 0.343284 0.349822 0.353957 0.356088 0.359471 0.364493 0.370878 0.379512 
0.387707 0.39536 0.403502 0.409738 0.41709 0.421296 0.427114 0.434119 0.442091 
0.45156 0.45981 0.4625 0.466769 0.468713 0.473431 0.480998 0.48903 0.492706 
0.496126 0.503204 0.509592 0.510188 0.509285 0.512308 0.514028 0.474213 0.463752 
0.458056 0.449618 0.44134 0.428443 0.408481 0.385539 0.367602 0.366768 0.36667 
0.364628 0.363653 0.363609 0.359997 0.356361 0.356395 0.356429 0.356466 0.356503 
0.35654 0.356576 0.35661 0.356643 0.356673 0.356702 0.35673 0.356755 0.356779 
0.356802 0.356823 0.356842 0.356861 0.356878 0.356894 0.356909 0.356924 0.356937 
0.35695 0.356962 0.356974 0.356985 0.356996 0.357006 0.357015 0.357025 0.357034 
0.357042 0.357051 0.357059 0.357067 0.357074 0.357082 0.357089 0.357097 0.357104 
0.357111 0.357118 0.357124 0.357131 0.357138 0.357144 0.357151 0.357157 0.357164 
0.35717 0.357177 0.357183 0.357189 0.357195 0.357202 0.357208 0.357214 0.35722 
0.357226 0.357233 0.357239 0.357245 0.357251 0.357257 0.357263 0.357269 0.357276 
0.357282 0.357288 0.357294 0.3573 0.357306 0.357312 0.357319 0.357325 0.357331 
0.357337 0.357331 0.357272 0.356661 0.350875 0.640001 0.640004 0.640008 0.640011 
0.640015 0.640019 0.640023 0.640027 0.640032 0.640036 0.640041 0.640046 0.640051 
0.640056 0.640061 0.640066 0.640071 0.640076 0.64008 0.640085 0.640089 0.640093 
0.640097 0.640101 0.640104 0.640106 0.640108 0.64011 0.640111 0.640111 0.640112 
0.640111 0.64011 0.640109 0.640106 0.640104 0.640101 0.640098 0.640094 0.64009 
0.640086 0.640081 0.640076 0.640071 0.640066 0.640061 0.640056 0.640051 0.640046 
0.640042 0.640037 0.640033 0.640029 0.640026 0.640023 0.64002 0.640018 0.640016 
0.640014 0.640013 0.640013 0.640013 0.640013 0.640014 0.640015 0.640016 0.640018 
0.64002 0.640023 0.640025 0.640028 0.640031 0.640034 0.640038 0.640041 0.640045 
0.640048 0.640052 0.640055 0.640059 0.640063 0.640066 0.64007 0.640074 0.640077 
0.640081 0.640085 0.640089 0.640093 0.640097 0.640101 0.640105 0.64011 0.640115 
0.640121 0.640127 0.640134 0.640141 0.640149 0.640158 0.640168 0.64018 0.640193 
0.640208 0.640224 0.640243 0.640264 0.640288 0.640315 0.640345 0.640379 0.640418 
0.640461 0.640509 0.640563 0.640622 0.640689 0.640762 0.640842 0.64093 0.641026 
0.641129 0.64124 0.641358 0.641483 0.641613 0.641748 0.641893 0.642301 0.641902 
0.6236 0.582718 0.530353 0.478818 0.436815 0.404886 0.3776 0.349512 0.316403 
0.279845 0.246859 0.222603 0.217783 0.226609 0.237402 0.244624 0.248885 0.253232 
0.258105 0.264466 0.272021 0.27944 0.286288 0.291018 0.293699 0.296108 0.299683 
0.308744 0.325556 0.347537 0.379121 0.396979 0.381316 0.34274 0.347357 0.355454 
0.362255 0.366339 0.366427 0.369763 0.37643 0.384892 0.394348 0.403253 0.410418 
0.417332 0.422767 0.428287 0.435686 0.442788 0.45017 0.458823 0.466457 0.472781 
0.473977 0.475468 0.483321 0.492367 0.498902 0.504851 0.512825 0.521171 0.524874 
0.526709 0.526856 0.530352 0.533995 0.534395 0.499918 0.485982 0.475259 0.465689 
0.455497 0.444881 0.429813 0.412333 0.385969 0.367837 0.366965 0.365823 0.36417 
0.364108 0.35995 0.35635 0.356383 0.356423 0.356462 0.356501 0.356539 0.356575 
0.35661 0.356643 0.356674 0.356703 0.35673 0.356756 0.356779 0.356802 0.356823 
0.356842 0.356861 0.356878 0.356894 0.356909 0.356923 0.356937 0.35695 0.356962 
0.356973 0.356984 0.356995 0.357005 0.357015 0.357024 0.357033 0.357041 0.35705 
0.357058 0.357066 0.357074 0.357081 0.357089 0.357096 0.357103 0.35711 0.357117 
0.357124 0.35713 0.357137 0.357144 0.35715 0.357157 0.357163 0.357169 0.357176 
0.357182 0.357188 0.357195 0.357201 0.357207 0.357213 0.35722 0.357226 0.357232 
0.357238 0.357244 0.35725 0.357257 0.357263 0.357269 0.357275 0.357281 0.357287 
0.357293 0.3573 0.357306 0.357312 0.357318 0.357324 0.35733 0.357336 0.35733 
0.357272 0.356661 0.350874 0.64 0.640004 0.640007 0.640011 0.640015 0.640019 
0.640023 0.640027 0.640031 0.640036 0.640041 0.640046 0.640051 0.640056 0.640061 
0.640066 0.640071 0.640076 0.640081 0.640086 0.64009 0.640094 0.640098 0.640102 
0.640105 0.640107 0.64011 0.640111 0.640112 0.640113 0.640113 0.640113 0.640112 
0.64011 0.640108 0.640105 0.640102 0.640099 0.640095 0.640091 0.640086 0.640082 
0.640077 0.640072 0.640066 0.640061 0.640056 0.640051 0.640046 0.640041 0.640037 
0.640032 0.640028 0.640025 0.640022 0.640019 0.640016 0.640015 0.640013 0.640012 
0.640012 0.640012 0.640012 0.640013 0.640014 0.640016 0.640018 0.64002 0.640022 
0.640025 0.640028 0.640031 0.640034 0.640038 0.640041 0.640045 0.640048 0.640052 
0.640056 0.640059 0.640063 0.640067 0.64007 0.640074 0.640078 0.640081 0.640085 
0.640089 0.640092 0.640096 0.6401 0.640105 0.640109 0.640114 0.64012 0.640125 
0.640132 0.640139 0.640146 0.640155 0.640165 0.640176 0.640188 0.640202 0.640218 
0.640236 0.640256 0.640279 0.640304 0.640333 0.640366 0.640403 0.640444 0.640491 
0.640542 0.6406 0.640665 0.640736 0.640814 0.640901 0.640996 0.641098 0.64121 
0.64133 0.641458 0.641594 0.641736 0.641881 0.642304 0.641915 0.622919 0.580482 
0.525758 0.470492 0.427991 0.395556 0.368415 0.342244 0.311468 0.279763 0.256749 
0.240897 0.232625 0.235059 0.240748 0.248341 0.255953 0.262243 0.268473 0.275371 
0.282996 0.290723 0.297391 0.301564 0.303468 0.305158 0.30884 0.315472 0.323689 
0.334406 0.336193 0.337505 0.345508 0.354019 0.360607 0.365699 0.367409 0.369106 
0.37475 0.381451 0.39028 0.399884 0.40846 0.41629 0.422295 0.428456 0.436207 
0.444131 0.45169 0.45982 0.466379 0.472419 0.479729 0.485588 0.488009 0.492469 
0.50485 0.517178 0.523664 0.527781 0.536799 0.544702 0.545815 0.548831 0.551452 
0.554988 0.555582 0.554549 0.531056 0.522185 0.509988 0.492128 0.475679 0.460923 
0.44552 0.429979 0.407297 0.379321 0.367401 0.366523 0.364687 0.364449 0.359872 
0.35634 0.356378 0.356421 0.356462 0.356503 0.356542 0.356579 0.356614 0.356647 
0.356678 0.356708 0.356735 0.35676 0.356784 0.356806 0.356827 0.356846 0.356864 
0.356881 0.356897 0.356912 0.356926 0.356939 0.356952 0.356964 0.356975 0.356986 
0.356996 0.357006 0.357016 0.357025 0.357034 0.357042 0.357051 0.357059 0.357066 
0.357074 0.357082 0.357089 0.357096 0.357103 0.35711 0.357117 0.357124 0.357131 
0.357137 0.357144 0.35715 0.357157 0.357163 0.35717 0.357176 0.357182 0.357189 
0.357195 0.357201 0.357207 0.357214 0.35722 0.357226 0.357232 0.357238 0.357244 
0.357251 0.357257 0.357263 0.357269 0.357275 0.357281 0.357287 0.357293 0.3573 
0.357306 0.357312 0.357318 0.357324 0.35733 0.357336 0.35733 0.357272 0.356661 
0.350874 0.64 0.640004 0.640007 0.640011 0.640014 0.640018 0.640022 0.640026 
0.640031 0.640035 0.64004 0.640045 0.64005 0.640055 0.640061 0.640066 0.640071 
0.640077 0.640082 0.640087 0.640091 0.640096 0.6401 0.640103 0.640106 0.640109 
0.640112 0.640113 0.640114 0.640115 0.640115 0.640115 0.640113 0.640112 0.64011 
0.640107 0.640104 0.6401 0.640096 0.640092 0.640087 0.640082 0.640077 0.640072 
0.640066 0.640061 0.640056 0.64005 0.640045 0.64004 0.640036 0.640031 0.640027 
0.640023 0.64002 0.640017 0.640015 0.640013 0.640011 0.640011 0.64001 0.64001 
0.640011 0.640011 0.640013 0.640014 0.640016 0.640019 0.640021 0.640024 0.640027 
0.640031 0.640034 0.640037 0.640041 0.640045 0.640048 0.640052 0.640056 0.640059 
0.640063 0.640067 0.64007 0.640074 0.640078 0.640081 0.640085 0.640088 0.640092 
0.640096 0.6401 0.640104 0.640108 0.640113 0.640118 0.640123 0.640129 0.640136 
0.640143 0.640151 0.64016 0.64017 0.640181 0.640194 0.640209 0.640226 0.640244 
0.640266 0.64029 0.640317 0.640348 0.640383 0.640422 0.640466 0.640515 0.64057 
0.640632 0.6407 0.640777 0.640861 0.640954 0.641056 0.641167 0.641288 0.64142 
0.641562 0.641713 0.641875 0.642319 0.64192 0.622439 0.578982 0.523333 0.468342 
0.422279 0.38717 0.35863 0.33253 0.306172 0.282931 0.267189 0.256713 0.249459 
0.246059 0.250441 0.257091 0.264735 0.271992 0.27868 0.28578 0.293367 0.300852 
0.307469 0.311429 0.313051 0.314746 0.317782 0.322835 0.329296 0.33581 0.342847 
0.349938 0.356866 0.363886 0.370263 0.374388 0.375622 0.379021 0.385207 0.393333 
0.402584 0.411668 0.41972 0.426911 0.433659 0.440756 0.449446 0.458295 0.465808 
0.473892 0.483477 0.491225 0.494389 0.497083 0.506461 0.517897 0.529285 0.542329 
0.550861 0.558878 0.563392 0.565542 0.568795 0.576779 0.577634 0.578734 0.580024 
0.581326 0.553482 0.548409 0.538546 0.52167 0.500368 0.480978 0.462901 0.445124 
0.424793 0.399976 0.376106 0.366257 0.365001 0.364534 0.359793 0.356329 0.356372 
0.356418 0.356463 0.356506 0.356547 0.356585 0.35662 0.356654 0.356685 0.356714 
0.356741 0.356766 0.356789 0.356811 0.356831 0.35685 0.356868 0.356885 0.3569 
0.356915 0.356929 0.356942 0.356954 0.356966 0.356977 0.356988 0.356998 0.357008 
0.357017 0.357026 0.357035 0.357043 0.357051 0.357059 0.357067 0.357075 0.357082 
0.357089 0.357097 0.357104 0.357111 0.357117 0.357124 0.357131 0.357137 0.357144 
0.357151 0.357157 0.357163 0.35717 0.357176 0.357182 0.357189 0.357195 0.357201 
0.357207 0.357214 0.35722 0.357226 0.357232 0.357238 0.357244 0.357251 0.357257 
0.357263 0.357269 0.357275 0.357281 0.357287 0.357293 0.3573 0.357306 0.357312 
0.357318 0.357324 0.35733 0.357336 0.35733 0.357272 0.356661 0.350874 0.64 
0.640003 0.640007 0.64001 0.640014 0.640017 0.640021 0.640026 0.64003 0.640035 
0.64004 0.640045 0.64005 0.640055 0.640061 0.640066 0.640072 0.640077 0.640083 
0.640088 0.640093 0.640097 0.640101 0.640105 0.640109 0.640111 0.640114 0.640116 
0.640117 0.640118 0.640118 0.640117 0.640116 0.640114 0.640112 0.640109 0.640106 
0.640102 0.640098 0.640093 0.640088 0.640083 0.640078 0.640072 0.640066 0.640061 
0.640055 0.64005 0.640044 0.640039 0.640034 0.640029 0.640025 0.640021 0.640018 
0.640015 0.640013 0.640011 0.640009 0.640008 0.640008 0.640008 0.640009 0.64001 
0.640011 0.640013 0.640015 0.640018 0.64002 0.640023 0.640027 0.64003 0.640033 
0.640037 0.640041 0.640044 0.640048 0.640052 0.640056 0.640059 0.640063 0.640067 
0.64007 0.640074 0.640078 0.640081 0.640085 0.640088 0.640092 0.640095 0.640099 
0.640103 0.640107 0.640111 0.640115 0.64012 0.640126 0.640132 0.640138 0.640145 
0.640154 0.640163 0.640173 0.640185 0.640198 0.640214 0.640231 0.64025 0.640272 
0.640297 0.640326 0.640358 0.640394 0.640435 0.640481 0.640533 0.640591 0.640656 
0.640729 0.64081 0.6409 0.641 0.641111 0.641233 0.641367 0.641513 0.641674 
0.641846 0.642309 0.641907 0.62197 0.577536 0.520645 0.462908 0.416132 0.379541 
0.350266 0.324687 0.302792 0.284851 0.272933 0.266288 0.26046 0.257286 0.261052 
0.267439 0.274937 0.28225 0.289422 0.295944 0.302024 0.308244 0.314548 0.318442 
0.320299 0.323044 0.326854 0.33145 0.336675 0.342835 0.350337 0.358214 0.36552 
0.371188 0.373823 0.377067 0.383435 0.389817 0.396872 0.404794 0.414057 0.422798 
0.43006 0.437264 0.445828 0.454421 0.462576 0.470859 0.480061 0.488899 0.499384 
0.50856 0.511684 0.517219 0.528661 0.541543 0.551242 0.558877 0.574081 0.586292 
0.590023 0.591536 0.597461 0.60202 0.60369 0.608068 0.611709 0.611977 0.567308 
0.564591 0.557287 0.546302 0.527775 0.50675 0.485602 0.463091 0.43978 0.419352 
0.391491 0.368802 0.365407 0.364997 0.359739 0.356318 0.356366 0.356418 0.356466 
0.356511 0.356553 0.356592 0.356629 0.356662 0.356693 0.356722 0.356749 0.356773 
0.356796 0.356818 0.356838 0.356856 0.356873 0.35689 0.356905 0.356919 0.356933 
0.356945 0.356957 0.356969 0.35698 0.35699 0.357 0.35701 0.357019 0.357028 
0.357036 0.357044 0.357053 0.35706 0.357068 0.357076 0.357083 0.35709 0.357097 
0.357104 0.357111 0.357118 0.357125 0.357131 0.357138 0.357144 0.357151 0.357157 
0.357164 0.35717 0.357176 0.357183 0.357189 0.357195 0.357201 0.357207 0.357214 
0.35722 0.357226 0.357232 0.357238 0.357244 0.357251 0.357257 0.357263 0.357269 
0.357275 0.357281 0.357287 0.357293 0.3573 0.357306 0.357312 0.357318 0.357324 
0.35733 0.357336 0.35733 0.357272 0.356661 0.350874 0.64 0.640003 0.640006 
0.640009 0.640013 0.640016 0.64002 0.640025 0.640029 0.640034 0.640039 0.640044 
0.64005 0.640055 0.640061 0.640067 0.640072 0.640078 0.640084 0.640089 0.640094 
0.640099 0.640103 0.640108 0.640111 0.640114 0.640117 0.640118 0.64012 0.640121 
0.640121 0.64012 0.640119 0.640117 0.640115 0.640112 0.640108 0.640104 0.6401 
0.640095 0.64009 0.640084 0.640078 0.640072 0.640066 0.64006 0.640054 0.640049 
0.640043 0.640037 0.640032 0.640027 0.640023 0.640019 0.640015 0.640012 0.64001 
0.640008 0.640006 0.640006 0.640005 0.640005 0.640006 0.640007 0.640009 0.640011 
0.640013 0.640016 0.640019 0.640022 0.640026 0.640029 0.640033 0.640037 0.64004 
0.640044 0.640048 0.640052 0.640056 0.64006 0.640063 0.640067 0.640071 0.640074 
0.640077 0.640081 0.640084 0.640088 0.640091 0.640094 0.640098 0.640101 0.640105 
0.640109 0.640113 0.640117 0.640122 0.640127 0.640133 0.640139 0.640147 0.640155 
0.640164 0.640174 0.640186 0.6402 0.640215 0.640232 0.640252 0.640275 0.6403 
0.640329 0.640362 0.6404 0.640442 0.64049 0.640544 0.640604 0.640673 0.64075 
0.640836 0.640933 0.641041 0.641161 0.641296 0.641446 0.641612 0.641794 0.642281 
0.641871 0.62127 0.575402 0.517109 0.459875 0.409881 0.372075 0.343962 0.322162 
0.302008 0.285094 0.273748 0.26754 0.262983 0.266563 0.273058 0.27895 0.284501 
0.291016 0.297878 0.303513 0.307965 0.312178 0.315813 0.319728 0.324152 0.328737 
0.334128 0.338781 0.342669 0.347952 0.354546 0.362292 0.370236 0.375833 0.379335 
0.384148 0.39153 0.399878 0.407546 0.4161 0.423895 0.43227 0.441095 0.449423 
0.458333 0.467362 0.476802 0.486896 0.497328 0.505911 0.512446 0.518192 0.526507 
0.53745 0.550586 0.564436 0.575074 0.585874 0.596469 0.606351 0.612393 0.617918 
0.625424 0.629575 0.632209 0.6387 0.640804 0.640971 0.575532 0.57397 0.572306 
0.567392 0.555616 0.53806 0.512816 0.485631 0.45707 0.433049 0.407826 0.378555 
0.365496 0.365003 0.359693 0.356308 0.356363 0.35642 0.356471 0.356519 0.356563 
0.356603 0.356639 0.356673 0.356704 0.356732 0.356759 0.356783 0.356805 0.356826 
0.356845 0.356863 0.35688 0.356896 0.35691 0.356924 0.356937 0.356949 0.356961 
0.356972 0.356983 0.356993 0.357002 0.357012 0.357021 0.357029 0.357038 0.357046 
0.357054 0.357062 0.357069 0.357077 0.357084 0.357091 0.357098 0.357105 0.357112 
0.357118 0.357125 0.357132 0.357138 0.357145 0.357151 0.357157 0.357164 0.35717 
0.357176 0.357183 0.357189 0.357195 0.357201 0.357208 0.357214 0.35722 0.357226 
0.357232 0.357238 0.357244 0.357251 0.357257 0.357263 0.357269 0.357275 0.357281 
0.357287 0.357293 0.3573 0.357306 0.357312 0.357318 0.357324 0.35733 0.357336 
0.35733 0.357272 0.356661 0.350874 0.64 0.640002 0.640005 0.640008 0.640012 
0.640015 0.640019 0.640023 0.640028 0.640033 0.640038 0.640043 0.640049 0.640055 
0.640061 0.640067 0.640073 0.640079 0.640085 0.64009 0.640096 0.640101 0.640106 
0.64011 0.640114 0.640117 0.64012 0.640122 0.640123 0.640124 0.640124 0.640123 
0.640122 0.64012 0.640117 0.640114 0.64011 0.640106 0.640101 0.640096 0.640091 
0.640085 0.640079 0.640072 0.640066 0.64006 0.640053 0.640047 0.640041 0.640036 
0.64003 0.640025 0.64002 0.640016 0.640012 0.640009 0.640007 0.640005 0.640003 
0.640003 0.640002 0.640003 0.640003 0.640005 0.640006 0.640009 0.640011 0.640014 
0.640017 0.640021 0.640024 0.640028 0.640032 0.640036 0.64004 0.640044 0.640048 
0.640052 0.640056 0.64006 0.640063 0.640067 0.640071 0.640074 0.640077 0.640081 
0.640084 0.640087 0.64009 0.640093 0.640096 0.6401 0.640103 0.640106 0.64011 
0.640114 0.640118 0.640122 0.640127 0.640133 0.640139 0.640146 0.640154 0.640162 
0.640173 0.640184 0.640198 0.640213 0.64023 0.640249 0.640272 0.640298 0.640327 
0.64036 0.640398 0.640441 0.64049 0.640546 0.640609 0.64068 0.640761 0.640853 
0.640957 0.641074 0.641207 0.641357 0.641525 0.641713 0.64222 0.641802 0.620366 
0.572544 0.510911 0.448467 0.399991 0.363931 0.336659 0.315576 0.297858 0.283442 
0.272889 0.266274 0.266601 0.272139 0.27855 0.284979 0.290952 0.2968 0.302382 