# vtk DataFile Version 5.1
vtk output
ASCII
DATASET UNSTRUCTURED_GRID
POINTS 10043 double
-10.1 1.4499999993 2.6138659237e-08 -10.049999999 1.4499999993 6.6014543165e-08 -10.049999999 1.5 -2.6505426831e-07 
-9.9999999985 1.4499999993 8.0297247962e-08 -9.9999999985 1.5 -3.0927753869e-07 -9.9499999978 1.4499999993 8.627990411e-08 
-9.9499999978 1.5 -3.3100718611e-07 -9.899999997 1.4499999993 8.9823295468e-08 -9.899999997 1.5 -3.4393292481e-07 
-9.8499999963 1.4499999993 9.2322586909e-08 -9.8499999963 1.5 -3.5284051592e-07 -9.7999999955 1.4499999993 9.4079730673e-08 
-9.7999999955 1.5 -3.5961261347e-07 -9.7499999948 1.4499999993 9.5433058789e-08 -9.7499999948 1.5 -3.6483129406e-07 
-9.699999994 1.4499999993 9.6613582912e-08 -9.699999994 1.5 -3.6927872316e-07 -9.6499999933 1.4499999993 9.7741356342e-08 
-9.6499999933 1.5 -3.7328049984e-07 -9.5999999925 1.4499999993 9.8614471256e-08 -9.5999999925 1.5 -3.7698396227e-07 
-9.5499999918 1.4499999993 9.9640381279e-08 -9.5499999918 1.5 -3.8041639527e-07 -9.4999999911 1.4499999993 1.0039344289e-07 
-9.4999999911 1.5 -3.836560154e-07 -9.4499999903 1.4499999993 1.0129202366e-07 -9.4499999903 1.5 -3.8700841287e-07 
-9.3999999896 1.4499999993 1.0208146506e-07 -9.3999999896 1.5 -3.9021529119e-07 -9.3499999888 1.4499999993 1.0304007247e-07 
-9.3499999888 1.5 -3.9336759983e-07 -9.2999999881 1.4499999993 1.038422468e-07 -9.2999999881 1.5 -3.966345048e-07 
-9.2499999873 1.4499999993 1.0462623123e-07 -9.2499999873 1.5 -3.9987048694e-07 -9.1999999866 1.4499999993 1.0554663987e-07 
-9.1999999866 1.5 -4.0324107431e-07 -9.1499999858 1.4499999993 1.063651851e-07 -9.1499999858 1.5 -4.0655163502e-07 
-9.0999999851 1.4499999993 1.0732015454e-07 -9.0999999851 1.5 -4.1005500862e-07 -9.0499999844 1.4499999993 1.0828421892e-07 
-9.0499999844 1.5 -4.1352200242e-07 -8.9999999836 1.4499999993 1.0923918836e-07 -8.9999999836 1.5 -4.1713997234e-07 
-8.9499999829 1.4499999993 1.1010684631e-07 -8.9499999829 1.5 -4.2074702833e-07 -8.8999999821 1.4499999993 1.1112729936e-07 
-8.8999999821 1.5 -4.245978289e-07 -8.8499999814 1.4499999993 1.1212592455e-07 -8.8499999814 1.5 -4.2848682824e-07 
-8.7999999806 1.4499999993 1.1316274851e-07 -8.7999999806 1.5 -4.3236491365e-07 -8.7499999799 1.4499999993 1.1425959912e-07 
-8.7499999799 1.5 -4.3647219172e-07 -8.6999999791 1.4499999993 1.1481257189e-07 -8.6999999791 1.5 -4.3858585741e-07 
-8.6499999784 1.4499999993 1.1585667181e-07 -8.6499999784 1.5 -4.4278954192e-07 -8.5999999776 1.4499999993 1.1690986668e-07 
-8.5999999776 1.5 -4.471187367e-07 -8.5499999769 1.4499999993 1.1820862511e-07 -8.5499999769 1.5 -4.5151159611e-07 
-8.4999999762 1.4499999993 1.193964323e-07 -8.4999999762 1.5 -4.5610454436e-07 -8.4499999754 1.4499999993 1.2061333621e-07 
-8.4499999754 1.5 -4.6073023441e-07 -8.3999999747 1.4499999993 1.2186480092e-07 -8.3999999747 1.5 -4.656760666e-07 
-8.3499999739 1.4499999993 1.2313081754e-07 -8.3499999739 1.5 -4.7048365559e-07 -8.2999999732 1.4499999993 1.244604988e-07 
-8.2999999732 1.5 -4.7568414629e-07 -8.2499999724 1.4499999993 1.258502067e-07 -8.2499999724 1.5 -4.8085553317e-07 
-8.1999999717 1.4499999993 1.2720535381e-07 -8.1999999717 1.5 -4.8612150749e-07 -8.1499999709 1.4499999993 1.2857323384e-07 
-8.1499999709 1.5 -4.9158938964e-07 -8.0999999702 1.4499999993 1.300739001e-07 -8.0999999702 1.5 -4.9720824791e-07 
-8.0499999695 1.4499999993 1.3161094614e-07 -8.0499999695 1.5 -5.0285802899e-07 -7.9999999687 1.4499999993 1.3318255299e-07 
-7.9999999687 1.5 -5.0884978009e-07 -7.949999968 1.4499999993 1.3482691941e-07 -7.949999968 1.5 -5.1491974773e-07 
-7.8999999672 1.4499999993 1.3643672503e-07 -7.8999999672 1.5 -5.2121163208e-07 -7.8499999665 1.4499999993 1.3803197874e-07 
-7.8499999665 1.5 -5.2749987844e-07 -7.7999999657 1.4499999993 1.3977820856e-07 -7.7999999657 1.5 -5.3410099099e-07 
-7.749999965 1.4499999993 1.4149715355e-07 -7.749999965 1.5 -5.4085489865e-07 -7.6999999642 1.4499999993 1.4336161769e-07 
-7.6999999642 1.5 -5.4769884628e-07 -7.6499999635 1.4499999993 1.4520516345e-07 -7.6499999635 1.5 -5.5477289607e-07 
-7.5999999627 1.4499999993 1.4719331887e-07 -7.5999999627 1.5 -5.6206522459e-07 -7.549999962 1.4499999993 1.4905232604e-07 
-7.549999962 1.5 -5.6957128436e-07 -7.4999999613 1.4499999993 1.5107595175e-07 -7.4999999613 1.5 -5.7729744185e-07 
-7.4499999605 1.4499999993 1.531277718e-07 -7.4499999605 1.5 -5.8519094637e-07 -7.3999999598 1.4499999993 1.5525417041e-07 
-7.3999999598 1.5 -5.9328908719e-07 -7.349999959 1.4499999993 1.5744787163e-07 -7.349999959 1.5 -6.0162824411e-07 
-7.2999999583 1.4499999993 1.5965794375e-07 -7.2999999583 1.5 -6.1025480136e-07 -7.2499999575 1.4499999993 1.6201171604e-07 
-7.2499999575 1.5 -6.1906143856e-07 -7.1999999568 1.4499999993 1.6434002248e-07 -7.1999999568 1.5 -6.2811091084e-07 
-7.149999956 1.4499999993 1.6681748605e-07 -7.149999956 1.5 -6.3750508161e-07 -7.0999999553 1.4499999993 1.6807531722e-07 
-7.0999999553 1.5 -6.4226355789e-07 -7.0499999546 1.4499999993 1.7064373026e-07 -7.0499999546 1.5 -6.5196968535e-07 
-6.9999999538 1.4499999993 1.7323669965e-07 -6.9999999538 1.5 -6.6201232585e-07 -6.9499999531 1.4499999993 1.7600702051e-07 
-6.9499999531 1.5 -6.7237874646e-07 -6.8999999523 1.4499999993 1.7878825531e-07 -6.8999999523 1.5 -6.8301346801e-07 
-6.8499999516 1.4499999993 1.816404307e-07 -6.8499999516 1.5 -6.9398652158e-07 -6.7999999508 1.4499999993 1.8455263273e-07 
-6.7999999508 1.5 -7.0527698881e-07 -6.7499999501 1.4499999993 1.8767129006e-07 -6.7499999501 1.5 -7.1699946602e-07 
-6.6999999493 1.4499999993 1.9079904234e-07 -6.6999999493 1.5 -7.290020676e-07 -6.6499999486 1.4499999993 1.9405594287e-07 
-6.6499999486 1.5 -7.4147487794e-07 -6.5999999478 1.4499999993 1.9743835367e-07 -6.5999999478 1.5 -7.5430693869e-07 
-6.5499999471 1.4499999993 2.0094081776e-07 -6.5499999471 1.5 -7.6756555245e-07 -6.4999999464 1.4499999993 2.0450603699e-07 
-6.4999999464 1.5 -7.8124708125e-07 -6.4499999456 1.4499999993 2.0816311519e-07 -6.4499999456 1.5 -7.9547066889e-07 
-6.3999999449 1.4499999993 2.1197026001e-07 -6.3999999449 1.5 -8.1009716268e-07 -6.3499999441 1.4499999993 2.1596476074e-07 
-6.3499999441 1.5 -8.2527390077e-07 -6.2999999434 1.4499999993 2.2013024648e-07 -6.2999999434 1.5 -8.4092994257e-07 
-6.2499999426 1.4499999993 2.2435484937e-07 -6.2499999426 1.5 -8.5725082499e-07 -6.1999999419 1.4499999993 2.2883411077e-07 
-6.1999999419 1.5 -8.740901194e-07 -6.1499999411 1.4499999993 2.3331973864e-07 -6.1499999411 1.5 -8.9162517725e-07 
-6.0999999404 1.4499999993 2.3811095673e-07 -6.0999999404 1.5 -9.0984872259e-07 -6.0499999397 1.4499999993 2.4303403734e-07 
-6.0499999397 1.5 -9.2873528956e-07 -5.9999999389 1.4499999993 2.4822179512e-07 -5.9999999389 1.5 -9.4842857834e-07 
-5.9499999382 1.4499999993 2.5354233912e-07 -5.9499999382 1.5 -9.6889493761e-07 -5.8999999374 1.4499999993 2.5916983759e-07 
-5.8999999374 1.5 -9.901652902e-07 -5.8499999367 1.4499999993 2.6498014449e-07 -5.8499999367 1.5 -1.0124638266e-06 
-5.7999999359 1.4499999993 2.7105011213e-07 -5.7999999359 1.5 -1.03564048e-06 -5.7499999352 1.4499999993 2.7738428798e-07 
-5.7499999352 1.5 -1.0599035249e-06 -5.6999999344 1.4499999993 2.8402405405e-07 -5.6999999344 1.5 -1.0852634205e-06 
-5.6499999337 1.4499999993 2.9100806387e-07 -5.6499999337 1.5 -1.1118474958e-06 -5.5999999329 1.4499999993 2.9827310755e-07 
-5.5999999329 1.5 -1.1397453363e-06 -5.5499999322 1.4499999993 3.0205660551e-07 -5.5499999322 1.5 -1.1542072116e-06 
-5.4999999315 1.4499999993 3.0992055144e-07 -5.4999999315 1.5 -1.1842137155e-06 -5.4499999307 1.4499999993 3.1823060453e-07 
-5.4499999307 1.5 -1.2158291156e-06 -5.39999993 1.4499999993 3.2695083974e-07 -5.39999993 1.5 -1.2491166217e-06 
-5.3499999292 1.4499999993 3.3614264794e-07 -5.3499999292 1.5 -1.2843213426e-06 -5.2999999285 1.4499999993 3.4586832953e-07 
-5.2999999285 1.5 -1.3216028947e-06 -5.2499999277 1.4499999993 3.5622156247e-07 -5.2499999277 1.5 -1.3610695078e-06 
-5.199999927 1.4499999993 3.6722826735e-07 -5.199999927 1.5 -1.4030158582e-06 -5.1499999262 1.4499999993 3.7892800719e-07 
-5.1499999262 1.5 -1.4477079731e-06 -5.0999999255 1.4499999993 3.914244644e-07 -5.0999999255 1.5 -1.4955091956e-06 
-5.0499999247 1.4499999993 4.048217761e-07 -5.0499999247 1.5 -1.5466118839e-06 -4.999999924 1.4499999993 4.1919497562e-07 
-4.999999924 1.5 -1.6015203528e-06 -4.9499999233 1.4499999993 4.34664571e-07 -4.9499999233 1.5 -1.6607211819e-06 
-4.8999999225 1.4499999993 4.5147157834e-07 -4.8999999225 1.5 -1.7247409687e-06 -4.8499999218 1.4499999993 4.6965419642e-07 
-4.8499999218 1.5 -1.7942286377e-06 -4.799999921 1.4499999993 4.8950573728e-07 -4.799999921 1.5 -1.870000915e-06 
-4.7499999203 1.4499999993 5.1126585277e-07 -4.7499999203 1.5 -1.9530014015e-06 -4.6999999195 1.4499999993 5.3518874665e-07 
-4.6999999195 1.5 -2.0443742414e-06 -4.6499999188 1.4499999993 5.6169506024e-07 -4.6499999188 1.5 -2.1454877697e-06 
-4.599999918 1.4499999993 5.9126364249e-07 -4.599999918 1.5 -2.2581350549e-06 -4.5499999173 1.4499999993 6.2431195147e-07 
-4.5499999173 1.5 -2.3844183943e-06 -4.4999999166 1.4499999993 6.6170923674e-07 -4.4999999166 1.5 -2.5269894195e-06 
-4.4499999158 1.4499999993 7.0429882726e-07 -4.4499999158 1.5 -2.6892948881e-06 -4.3999999151 1.4499999993 7.5323896453e-07 
-4.3999999151 1.5 -2.8757635846e-06 -4.3499999143 1.4499999993 8.1001803665e-07 -4.3499999143 1.5 -3.0920498375e-06 
-4.2999999136 1.4499999993 8.7668263404e-07 -4.2999999136 1.5 -3.3458152302e-06 -4.2499999128 1.4499999993 9.5592531579e-07 
-4.2499999128 1.5 -3.6471919884e-06 -4.1999999121 1.4499999993 1.0514247606e-06 -4.1999999121 1.5 -4.0101799641e-06 
-4.1499999113 1.4499999993 1.1684455785e-06 -4.1499999113 1.5 -4.4544253797e-06 -4.0999999106 1.4499999993 1.3144558579e-06 
-4.0999999106 1.5 -5.0080766414e-06 -4.0499999098 1.4499999993 1.5006685317e-06 -4.0499999098 1.5 -5.7128677327e-06 
-3.9999999091 1.4499999993 1.7442566786e-06 -3.9999999091 1.5 -6.6327120294e-06 -3.9499999084 1.4499999993 1.8956432086e-06 
[...]
CELL_DATA 9510
FIELD FieldData 4
Water_Depth_m 1 9510 float
0.760007 0.760024 0.760041 0.760057 0.760074 0.76009 0.760106 0.760122 0.760138 
0.760153 0.760168 0.760182 0.760196 0.760209 0.760221 0.760232 0.760242 0.760251 
0.760258 0.760264 0.760268 0.760271 0.760272 0.76027 0.760267 0.760262 0.760255 
0.760245 0.760233 0.76022 0.760204 0.760186 0.760166 0.760145 0.760122 0.760097 
0.760072 0.760046 0.76002 0.759993 0.759967 0.759942 0.759918 0.759896 0.759877 
0.759859 0.759845 0.759835 0.759828 0.759825 0.759826 0.759832 0.759843 0.759858 
0.759878 0.759902 0.759931 0.759964 0.760001 0.76004 0.760083 0.760128 0.760175 
0.760222 0.760271 0.760319 0.760367 0.760413 0.760459 0.760502 0.760543 0.760581 
0.760616 0.760648 0.760677 0.760702 0.760724 0.760743 0.760758 0.76077 0.760779 
0.760785 0.760787 0.760786 0.760783 0.760777 0.760769 0.760758 0.760745 0.76073 
0.760713 0.760695 0.760675 0.760654 0.760632 0.760609 0.760585 0.760561 0.760537 
0.760513 0.76049 0.760467 0.760446 0.760425 0.760407 0.760389 0.760374 0.760361 
0.760351 0.760343 0.760337 0.760335 0.760335 0.760339 0.760347 0.760358 0.760373 
0.760392 0.760416 0.760445 0.76048 0.760521 0.76057 0.760627 0.760694 0.760772 
0.760864 0.760972 0.761104 0.761294 0.761625 0.761597 0.75618 0.742851 0.723371 
0.699416 0.672285 0.643102 0.612919 0.582738 0.554102 0.527865 0.505073 0.48722 
0.476267 0.47454 0.47468 0.474804 0.474915 0.475013 0.475101 0.475179 0.475248 
0.475309 0.475363 0.475411 0.475453 0.475491 0.475525 0.475555 0.475583 0.475607 
0.47563 0.47565 0.475668 0.475684 0.475699 0.475715 0.47573 0.475767 0.475629 
0.474058 0.473521 0.47397 0.473712 0.472989 0.47606 0.481078 0.485583 0.488402 
0.490925 0.493314 0.495697 0.497277 0.497281 0.496103 0.495734 0.497015 0.501145 
0.50295 0.507625 0.513513 0.513768 0.511123 0.5008 0.495594 0.486816 0.483591 
0.485875 0.487307 0.49047 0.491333 0.491428 0.491546 0.491675 0.491667 0.489719 
0.477948 0.477753 0.477673 0.477677 0.477702 0.477732 0.477762 0.477792 0.47782 
0.477847 0.477871 0.477894 0.477915 0.477934 0.477952 0.477969 0.477984 0.477999 
0.478012 0.478025 0.478036 0.478047 0.478057 0.478067 0.478076 0.478084 0.478092 
0.4781 0.478107 0.478114 0.478121 0.478127 0.478133 0.478139 0.478144 0.47815 
0.478155 0.47816 0.478165 0.47817 0.478174 0.478179 0.478183 0.478187 0.478191 
0.478195 0.478199 0.478203 0.478207 0.47821 0.478214 0.478217 0.478221 0.478224 
0.478228 0.478231 0.478234 0.478237 0.47824 0.478243 0.478246 0.478249 0.478252 
0.478255 0.478257 0.47826 0.478263 0.478265 0.478268 0.478271 0.478273 0.478276 
0.478278 0.47828 0.478283 0.478285 0.478287 0.478289 0.478291 0.478293 0.478295 
0.478297 0.478299 0.478301 0.478303 0.478258 0.478237 0.473877 0.760006 0.760023 
0.76004 0.760056 0.760073 0.760089 0.760105 0.760122 0.760137 0.760153 0.760168 
0.760182 0.760196 0.76021 0.760222 0.760233 0.760243 0.760252 0.76026 0.760266 
0.760271 0.760273 0.760274 0.760273 0.76027 0.760265 0.760258 0.760249 0.760237 
0.760223 0.760207 0.760189 0.760169 0.760148 0.760125 0.7601 0.760074 0.760048 
0.760021 0.759995 0.759968 0.759943 0.759918 0.759896 0.759875 0.759857 0.759843 
0.759831 0.759824 0.75982 0.759821 0.759827 0.759837 0.759851 0.759871 0.759895 
0.759924 0.759957 0.759993 0.760033 0.760076 0.760121 0.760168 0.760217 0.760265 
0.760314 0.760363 0.76041 0.760456 0.760499 0.760541 0.760579 0.760615 0.760648 
0.760677 0.760703 0.760725 0.760745 0.76076 0.760772 0.760781 0.760787 0.760789 
0.760789 0.760786 0.76078 0.760771 0.760761 0.760748 0.760733 0.760716 0.760697 
0.760677 0.760656 0.760633 0.76061 0.760586 0.760562 0.760538 0.760514 0.76049 
0.760467 0.760445 0.760424 0.760405 0.760388 0.760372 0.760359 0.760348 0.760339 
0.760334 0.760331 0.760331 0.760335 0.760341 0.760352 0.760366 0.760384 0.760407 
0.760435 0.760468 0.760507 0.760553 0.760607 0.76067 0.760743 0.760828 0.760925 
0.761036 0.761162 0.761321 0.761363 0.756516 0.743885 0.72487 0.701029 0.673737 
0.644215 0.613584 0.582877 0.553435 0.526404 0.503242 0.485701 0.475943 0.474568 
0.474699 0.474816 0.474925 0.475022 0.475107 0.475183 0.475251 0.47531 0.475363 
0.475409 0.475451 0.475488 0.475521 0.475551 0.475578 0.475602 0.475625 0.475645 
0.475664 0.475683 0.475702 0.475721 0.475746 0.47585 0.475624 0.471047 0.465844 
0.4682 0.470701 0.475305 0.479197 0.482389 0.486372 0.489496 0.491924 0.494504 
0.497156 0.49999 0.502652 0.505564 0.509173 0.513314 0.520849 0.520953 0.529048 
0.532615 0.531415 0.52916 0.517854 0.510167 0.492437 0.484659 0.487738 0.488313 
0.490616 0.492006 0.492555 0.492624 0.494265 0.495061 0.492458 0.47856 0.477512 
0.477566 0.477613 0.477658 0.477699 0.477737 0.477771 0.477803 0.477831 0.477858 
0.477882 0.477904 0.477925 0.477944 0.477961 0.477977 0.477992 0.478006 0.478018 
0.47803 0.478042 0.478052 0.478062 0.478071 0.47808 0.478088 0.478096 0.478103 
0.47811 0.478117 0.478124 0.47813 0.478136 0.478141 0.478147 0.478152 0.478157 
0.478162 0.478167 0.478172 0.478176 0.478181 0.478185 0.478189 0.478193 0.478197 
0.478201 0.478205 0.478208 0.478212 0.478216 0.478219 0.478222 0.478226 0.478229 
0.478232 0.478235 0.478239 0.478242 0.478245 0.478248 0.47825 0.478253 0.478256 
0.478259 0.478262 0.478264 0.478267 0.478269 0.478272 0.478274 0.478277 0.478279 
0.478281 0.478283 0.478286 0.478288 0.47829 0.478292 0.478294 0.478296 0.478298 
0.4783 0.478302 0.478256 0.478235 0.473874 0.760006 0.760023 0.76004 0.760056 
0.760073 0.760089 0.760106 0.760122 0.760138 0.760154 0.760169 0.760184 0.760198 
0.760211 0.760224 0.760235 0.760246 0.760255 0.760263 0.760269 0.760274 0.760276 
0.760277 0.760276 0.760273 0.760268 0.760261 0.760251 0.760239 0.760225 0.760209 
0.760191 0.760171 0.760149 0.760125 0.7601 0.760074 0.760047 0.760019 0.759992 
0.759965 0.759938 0.759913 0.75989 0.759869 0.759851 0.759836 0.759824 0.759816 
0.759812 0.759812 0.759818 0.759828 0.759842 0.759862 0.759887 0.759916 0.759949 
0.759986 0.760027 0.76007 0.760116 0.760164 0.760214 0.760264 0.760313 0.760363 
0.760411 0.760458 0.760502 0.760544 0.760584 0.76062 0.760653 0.760683 0.760709 
0.760732 0.760751 0.760767 0.760779 0.760787 0.760793 0.760795 0.760794 0.760791 
0.760784 0.760776 0.760764 0.760751 0.760735 0.760718 0.760699 0.760678 0.760656 
0.760633 0.760609 0.760585 0.76056 0.760536 0.760511 0.760487 0.760463 0.760441 
0.76042 0.7604 0.760383 0.760367 0.760353 0.760342 0.760333 0.760327 0.760324 
0.760324 0.760328 0.760334 0.760344 0.760358 0.760376 0.760397 0.760424 0.760456 
0.760493 0.760538 0.76059 0.76065 0.76072 0.760801 0.760895 0.761004 0.761129 
0.761333 0.761322 0.756625 0.744343 0.725661 0.701986 0.674667 0.644956 0.614024 
0.582973 0.553111 0.52573 0.502504 0.485274 0.475905 0.474571 0.474713 0.474836 
0.474945 0.475041 0.475125 0.475199 0.475265 0.475323 0.475374 0.475419 0.47546 
0.475496 0.475528 0.475557 0.475583 0.475607 0.475628 0.475648 0.475667 0.475685 
0.475702 0.475719 0.475735 0.475849 0.475628 0.470392 0.466384 0.468814 0.471446 
0.476283 0.479984 0.482426 0.486499 0.489301 0.491188 0.493917 0.497652 0.502256 
0.507421 0.512025 0.517245 0.52067 0.532018 0.532495 0.531958 0.53472 0.533019 
0.52867 0.51957 0.511572 0.504716 0.49213 0.489812 0.490482 0.491966 0.492752 
0.493311 0.493371 0.49536 0.496811 0.494879 0.478257 0.477524 0.477578 0.477622 
0.477666 0.477706 0.477743 0.477777 0.477808 0.477836 0.477862 0.477886 0.477908 
0.477928 0.477947 0.477964 0.477979 0.477994 0.478008 0.47802 0.478032 0.478043 
0.478053 0.478063 0.478072 0.478081 0.478089 0.478097 0.478104 0.478111 0.478118 
0.478124 0.47813 0.478136 0.478142 0.478147 0.478153 0.478158 0.478163 0.478167 
0.478172 0.478176 0.478181 0.478185 0.478189 0.478193 0.478197 0.478201 0.478205 
0.478209 0.478212 0.478216 0.478219 0.478223 0.478226 0.478229 0.478232 0.478236 
0.478239 0.478242 0.478245 0.478248 0.478251 0.478253 0.478256 0.478259 0.478262 
0.478264 0.478267 0.478269 0.478272 0.478274 0.478277 0.478279 0.478281 0.478284 
0.478286 0.478288 0.47829 0.478292 0.478294 0.478296 0.478298 0.4783 0.478302 
0.478256 0.478235 0.473874 0.760007 0.760023 0.76004 0.760056 0.760073 0.76009 
0.760106 0.760122 0.760139 0.760155 0.76017 0.760185 0.7602 0.760213 0.760226 
0.760238 0.760249 0.760258 0.760266 0.760273 0.760278 0.760281 0.760282 0.760281 
0.760278 0.760273 0.760265 0.760255 0.760243 0.760229 0.760212 0.760193 0.760172 
0.76015 0.760125 0.760099 0.760072 0.760044 0.760016 0.759988 0.75996 0.759932 
0.759907 0.759882 0.75986 0.759841 0.759825 0.759813 0.759804 0.7598 0.7598 
0.759805 0.759814 0.759829 0.759849 0.759874 0.759903 0.759937 0.759975 0.760017 
0.760062 0.760109 0.760159 0.760209 0.760261 0.760312 0.760363 0.760413 0.760461 
0.760507 0.76055 0.76059 0.760628 0.760661 0.760692 0.760718 0.760741 0.76076 
0.760776 0.760788 0.760796 0.760801 0.760803 0.760802 0.760798 0.760791 0.760782 
0.76077 0.760756 0.760739 0.760721 0.760701 0.76068 0.760657 0.760633 0.760608 
0.760583 0.760558 0.760532 0.760507 0.760482 0.760458 0.760435 0.760413 0.760393 
0.760375 0.760358 0.760344 0.760333 0.760324 0.760318 0.760314 0.760314 0.760317 
0.760323 0.760333 0.760346 0.760362 0.760383 0.760408 0.760438 0.760473 0.760515 
0.760563 0.760619 0.760685 0.760761 0.760848 0.760949 0.761063 0.761257 0.761258 
0.756629 0.744521 0.726041 0.7025 0.6752 0.645395 0.614286 0.58304 0.552963 
0.525464 0.502268 0.485188 0.475954 0.474619 0.474756 0.474875 0.47498 0.475071 
0.475152 0.475223 0.475286 0.475341 0.47539 0.475433 0.475472 0.475506 0.475537 
0.475565 0.47559 0.475612 0.475633 0.475652 0.47567 0.475687 0.475704 0.475722 
0.475741 0.475857 0.47564 0.470448 0.466096 0.468541 0.471229 0.47631 0.479959 
0.482379 0.486209 0.488902 0.49089 0.493846 0.497466 0.501845 0.506852 0.511299 
0.51644 0.521183 0.526623 0.526762 0.525178 0.525177 0.521918 0.515713 0.513427 
0.510121 0.508314 0.507661 0.491337 0.49276 0.493238 0.493361 0.493822 0.493844 
0.495541 0.497478 0.495483 0.478597 0.477523 0.477578 0.477627 0.477672 0.477712 
0.477749 0.477783 0.477813 0.477841 0.477867 0.47789 0.477912 0.477932 0.47795 
0.477967 0.477982 0.477996 0.47801 0.478022 0.478034 0.478045 0.478055 0.478064 
0.478073 0.478082 0.47809 0.478098 0.478105 0.478112 0.478118 0.478125 0.478131 
0.478137 0.478142 0.478148 0.478153 0.478158 0.478163 0.478167 0.478172 0.478176 
0.478181 0.478185 0.478189 0.478193 0.478197 0.478201 0.478205 0.478209 0.478212 
0.478216 0.478219 0.478223 0.478226 0.478229 0.478232 0.478236 0.478239 0.478242 
0.478245 0.478248 0.478251 0.478253 0.478256 0.478259 0.478262 0.478264 0.478267 
0.478269 0.478272 0.478274 0.478277 0.478279 0.478281 0.478283 0.478286 0.478288 
0.47829 0.478292 0.478294 0.478296 0.478298 0.4783 0.478302 0.478256 0.478235 
0.473874 0.760007 0.760023 0.76004 0.760056 0.760073 0.76009 0.760106 0.760123 
0.760139 0.760156 0.760172 0.760187 0.760202 0.760216 0.760229 0.760242 0.760253 
0.760263 0.760271 0.760278 0.760283 0.760286 0.760287 0.760287 0.760283 0.760278 
0.76027 0.76026 0.760248 0.760233 0.760216 0.760196 0.760175 0.760151 0.760126 
0.760099 0.760071 0.760042 0.760012 0.759983 0.759954 0.759925 0.759898 0.759873 
0.75985 0.759829 0.759812 0.759799 0.759789 0.759784 0.759784 0.759788 0.759798 
0.759813 0.759833 0.759858 0.759888 0.759923 0.759962 0.760005 0.760051 0.7601 
0.760151 0.760204 0.760257 0.76031 0.760363 0.760415 0.760465 0.760512 0.760557 
0.760599 0.760637 0.760672 0.760703 0.76073 0.760753 0.760772 0.760788 0.7608 
0.760808 0.760812 0.760814 0.760812 0.760807 0.7608 0.760789 0.760776 0.760761 
0.760744 0.760725 0.760704 0.760682 0.760658 0.760633 0.760607 0.760581 0.760554 
0.760527 0.760501 0.760475 0.76045 0.760426 0.760404 0.760383 0.760364 0.760347 
0.760333 0.760321 0.760312 0.760305 0.760302 0.760301 0.760304 0.760309 0.760318 
0.760331 0.760346 0.760366 0.760389 0.760416 0.760449 0.760487 0.760531 0.760582 
0.760642 0.760711 0.760791 0.760884 0.760991 0.761179 0.761177 0.756576 0.744553 
0.726187 0.702737 0.675468 0.645626 0.614432 0.583093 0.552921 0.525394 0.502238 
0.485222 0.47602 0.47468 0.474811 0.474925 0.475024 0.475111 0.475187 0.475254 
0.475313 0.475365 0.475411 0.475452 0.475488 0.47552 0.475549 0.475575 0.475599 
0.47562 0.475639 0.475657 0.475673 0.475689 0.475705 0.475722 0.475742 0.475869 
0.475659 0.470477 0.464865 0.466879 0.468876 0.473114 0.475635 0.477659 0.479778 
0.482011 0.484607 0.487721 0.490108 0.492595 0.495998 0.499236 0.503124 0.510198 
0.510202 0.507011 0.507743 0.498312 0.499633 0.501728 0.505725 0.508204 0.508619 
0.508374 0.492873 0.493529 0.494253 0.494836 0.495393 0.495446 0.497244 0.499052 
0.496866 0.478538 0.477539 0.477593 0.47764 0.477684 0.477724 0.47776 0.477793 
0.477823 0.47785 0.477875 0.477897 0.477918 0.477937 0.477955 0.477971 0.477986 
0.478 0.478013 0.478025 0.478037 0.478047 0.478057 0.478067 0.478075 0.478084 
0.478092 0.478099 0.478106 0.478113 0.478119 0.478126 0.478132 0.478137 0.478143 
0.478148 0.478153 0.478158 0.478163 0.478168 0.478172 0.478177 0.478181 0.478185 
0.478189 0.478193 0.478197 0.478201 0.478205 0.478209 0.478212 0.478216 0.478219 
0.478223 0.478226 0.478229 0.478232 0.478236 0.478239 0.478242 0.478245 0.478248 
0.478251 0.478253 0.478256 0.478259 0.478262 0.478264 0.478267 0.478269 0.478272 
0.478274 0.478277 0.478279 0.478281 0.478283 0.478286 0.478288 0.47829 0.478292 
0.478294 0.478296 0.478298 0.4783 0.478302 0.478256 0.478235 0.473874 0.760007 
0.760023 0.76004 0.760056 0.760073 0.76009 0.760106 0.760123 0.76014 0.760157 
0.760173 0.760189 0.760204 0.760219 0.760233 0.760246 0.760257 0.760267 0.760276 
0.760283 0.760289 0.760292 0.760294 0.760293 0.76029 0.760285 0.760277 0.760266 
0.760254 0.760238 0.76022 0.7602 0.760178 0.760153 0.760127 0.760099 0.760069 
0.760039 0.760008 0.759977 0.759947 0.759917 0.759888 0.759861 0.759837 0.759815 
0.759797 0.759783 0.759772 0.759767 0.759766 0.75977 0.759779 0.759794 0.759814 
0.75984 0.75987 0.759906 0.759946 0.759991 0.760039 0.760089 0.760143 0.760197 
0.760253 0.760309 0.760364 0.760417 0.760469 0.760519 0.760565 0.760609 0.760648 
0.760684 0.760716 0.760743 0.760767 0.760786 0.760802 0.760813 0.760821 0.760825 
0.760826 0.760823 0.760818 0.760809 0.760798 0.760784 0.760768 0.76075 0.760729 
0.760707 0.760683 0.760658 0.760632 0.760605 0.760577 0.760549 0.760521 0.760494 
0.760467 0.760441 0.760416 0.760392 0.760371 0.760351 0.760334 0.760319 0.760306 
0.760297 0.76029 0.760286 0.760286 0.760288 0.760293 0.760302 0.760313 0.760328 
0.760345 0.760367 0.760391 0.760421 0.760455 0.760495 0.76054 0.760593 0.760654 
0.760725 0.760808 0.760904 0.761083 0.761078 0.756489 0.744506 0.726202 0.70281 
0.675574 0.645731 0.614511 0.583144 0.552941 0.525419 0.502294 0.485304 0.476106 
0.474757 0.474881 0.474987 0.475079 0.47516 0.47523 0.475292 0.475346 0.475394 
0.475436 0.475474 0.475508 0.475538 0.475564 0.475588 0.47561 0.47563 0.475647 
0.475663 0.475678 0.475692 0.475705 0.475719 0.475738 0.475842 0.475686 0.472533 
0.467992 0.468477 0.468889 0.468902 0.468079 0.467253 0.469475 0.471348 0.472627 
0.476091 0.477524 0.477825 0.479457 0.48213 0.483976 0.484799 0.485691 0.488768 
0.489421 0.491093 0.494581 0.498603 0.501282 0.504902 0.505539 0.50783 0.493726 
0.493877 0.495524 0.496263 0.495865 0.495538 0.498498 0.500544 0.498309 0.47871 
0.477557 0.47761 0.477657 0.4777 0.477738 0.477773 0.477805 0.477834 0.47786 
0.477884 0.477906 0.477926 0.477944 0.477961 0.477977 0.477991 0.478005 0.478017 
0.478029 0.47804 0.47805 0.47806 0.478069 0.478078 0.478086 0.478093 0.478101 
0.478108 0.478114 0.478121 0.478127 0.478133 0.478138 0.478144 0.478149 0.478154 
0.478159 0.478164 0.478168 0.478173 0.478177 0.478181 0.478186 0.47819 0.478194 
0.478198 0.478201 0.478205 0.478209 0.478212 0.478216 0.478219 0.478223 0.478226 
0.478229 0.478233 0.478236 0.478239 0.478242 0.478245 0.478248 0.478251 0.478253 
0.478256 0.478259 0.478262 0.478264 0.478267 0.478269 0.478272 0.478274 0.478277 
0.478279 0.478281 0.478283 0.478286 0.478288 0.47829 0.478292 0.478294 0.478296 
0.478298 0.4783 0.478302 0.478256 0.478235 0.473874 0.760007 0.760023 0.760039 
0.760056 0.760072 0.760089 0.760106 0.760123 0.76014 0.760158 0.760174 0.760191 
0.760207 0.760222 0.760236 0.76025 0.760262 0.760273 0.760282 0.76029 0.760295 
0.760299 0.760301 0.7603 0.760297 0.760292 0.760284 0.760273 0.76026 0.760244 
0.760225 0.760204 0.760181 0.760155 0.760128 0.760099 0.760068 0.760036 0.760004 
0.759972 0.759939 0.759908 0.759878 0.75985 0.759824 0.759801 0.759781 0.759766 
0.759754 0.759747 0.759746 0.759749 0.759758 0.759773 0.759793 0.759819 0.759851 
0.759888 0.759929 0.759975 0.760025 0.760078 0.760133 0.76019 0.760248 0.760306 
0.760364 0.76042 0.760475 0.760526 0.760575 0.76062 0.76066 0.760697 0.76073 
0.760758 0.760782 0.760801 0.760817 0.760828 0.760835 0.760839 0.760839 0.760835 
0.760829 0.760819 0.760807 0.760792 0.760775 0.760755 0.760733 0.76071 0.760684 
0.760658 0.76063 0.760602 0.760572 0.760543 0.760514 0.760485 0.760457 0.760429 
0.760403 0.760379 0.760356 0.760336 0.760318 0.760302 0.76029 0.76028 0.760273 
0.760269 0.760268 0.760271 0.760276 0.760284 0.760294 0.760308 0.760324 0.760344 
0.760366 0.760392 0.760422 0.760457 0.760497 0.760543 0.760595 0.760656 0.760727 
0.76081 0.760978 0.760967 0.756381 0.744415 0.726146 0.702793 0.67559 0.645766 
0.614556 0.583199 0.553 0.525496 0.502393 0.485413 0.476208 0.474849 0.474962 
0.475059 0.475143 0.475216 0.47528 0.475335 0.475384 0.475427 0.475466 0.4755 
0.47553 0.475557 0.475582 0.475604 0.475623 0.475641 0.475657 0.475671 0.475683 
0.475694 0.475704 0.475713 0.475722 0.475753 0.477711 0.47966 0.479124 0.476023 
0.477552 0.477407 0.475769 0.476094 0.478452 0.480077 0.481211 0.481169 0.481011 
0.482368 0.482671 0.484281 0.486203 0.486245 0.487285 0.488511 0.490573 0.490944 
0.490801 0.493133 0.494924 0.496651 0.500714 0.504356 0.493846 0.494428 0.496539 
0.497264 0.496787 0.496369 0.498842 0.501386 0.499487 0.47883 0.477581 0.477632 
0.477677 0.477719 0.477756 0.477789 0.477819 0.477847 0.477872 0.477895 0.477916 
0.477935 0.477952 0.477969 0.477984 0.477997 0.47801 0.478022 0.478034 0.478044 
0.478054 0.478063 0.478072 0.47808 0.478088 0.478095 0.478103 0.478109 0.478116 
0.478122 0.478128 0.478134 0.478139 0.478145 0.47815 0.478155 0.47816 0.478164 
0.478169 0.478173 0.478178 0.478182 0.478186 0.47819 0.478194 0.478198 0.478202 
0.478205 0.478209 0.478213 0.478216 0.478219 0.478223 0.478226 0.478229 0.478233 
0.478236 0.478239 0.478242 0.478245 0.478248 0.478251 0.478253 0.478256 0.478259 
0.478262 0.478264 0.478267 0.478269 0.478272 0.478274 0.478277 0.478279 0.478281 
0.478283 0.478286 0.478288 0.47829 0.478292 0.478294 0.478296 0.478298 0.4783 
0.478302 0.478256 0.478235 0.473874 0.760007 0.760023 0.760039 0.760055 0.760072 
0.760089 0.760106 0.760123 0.760141 0.760158 0.760175 0.760192 0.760209 0.760225 
0.76024 0.760254 0.760266 0.760278 0.760288 0.760296 0.760302 0.760306 0.760308 
0.760308 0.760305 0.760299 0.760291 0.76028 0.760266 0.76025 0.760231 0.760209 
0.760185 0.760158 0.760129 0.760099 0.760067 0.760034 0.76 0.759966 0.759932 
0.759899 0.759868 0.759838 0.75981 0.759786 0.759765 0.759748 0.759736 0.759728 
0.759725 0.759728 0.759737 0.759751 0.759772 0.759799 0.759831 0.759868 0.759911 
0.759959 0.76001 0.760065 0.760122 0.760182 0.760243 0.760304 0.760364 0.760423 
0.76048 0.760533 0.760584 0.76063 0.760673 0.760711 0.760744 0.760773 0.760797 
0.760817 0.760832 0.760843 0.760849 0.760852 0.760852 0.760847 0.76084 0.76083 
0.760816 0.7608 0.760781 0.76076 0.760737 0.760712 0.760685 0.760657 0.760627 
0.760597 0.760567 0.760536 0.760505 0.760475 0.760445 0.760417 0.760389 0.760364 
0.760341 0.760319 0.760301 0.760285 0.760272 0.760262 0.760255 0.760251 0.760251 
0.760253 0.760258 0.760266 0.760276 0.760289 0.760304 0.760322 0.760342 0.760365 
0.760392 0.760422 0.760456 0.760495 0.760539 0.76059 0.760649 0.760718 0.760872 
0.760852 0.756266 0.74431 0.726056 0.702733 0.67556 0.645768 0.614588 0.583262 
0.553087 0.525606 0.502521 0.485541 0.476324 0.474952 0.475054 0.47514 0.475214 