# vtk DataFile Version 5.1
vtk output
ASCII
DATASET UNSTRUCTURED_GRID
POINTS 10043 double
-10.1 1.4499999993 7.5966234192e-08 -10.049999999 1.4499999993 9.0079772974e-08 -10.049999999 1.5 -3.5011566979e-07 
-9.9999999985 1.4499999993 9.3647720689e-08 -9.9999999985 1.5 -3.5856669456e-07 -9.9499999978 1.4499999993 9.382780064e-08 
-9.9499999978 1.5 -3.5875314097e-07 -9.899999997 1.4499999993 9.331120765e-08 -9.899999997 1.5 -3.5646758079e-07 
-9.8499999963 1.4499999993 9.2503576354e-08 -9.8499999963 1.5 -3.5344780258e-07 -9.7999999955 1.4499999993 9.1680483649e-08 
-9.7999999955 1.5 -3.5018115341e-07 -9.7499999948 1.4499999993 9.0857390944e-08 -9.7499999948 1.5 -3.4689878703e-07 
-9.699999994 1.4499999993 9.0027931776e-08 -9.699999994 1.5 -3.438146905e-07 -9.6499999933 1.4499999993 8.9220300481e-08 
-9.6499999933 1.5 -3.4090248846e-07 -9.5999999925 1.4499999993 8.8516351582e-08 -9.5999999925 1.5 -3.3815035749e-07 
-9.5499999918 1.4499999993 8.785242045e-08 -9.5499999918 1.5 -3.3557103052e-07 -9.4999999911 1.4499999993 8.7279438787e-08 
-9.4999999911 1.5 -3.3324545257e-07 -9.4499999903 1.4499999993 8.6665529864e-08 -9.4499999903 1.5 -3.3107176023e-07 
-9.3999999896 1.4499999993 8.6117104559e-08 -9.3999999896 1.5 -3.2906632441e-07 -9.3499999888 1.4499999993 8.5657809734e-08 
-9.3499999888 1.5 -3.2721277421e-07 -9.2999999881 1.4499999993 8.5206700362e-08 -9.2999999881 1.5 -3.2556749829e-07 
-9.2499999873 1.4499999993 8.4829260061e-08 -9.2499999873 1.5 -3.2402954275e-07 -9.1999999866 1.4499999993 8.4430901381e-08 
-9.1999999866 1.5 -3.2260373928e-07 -9.1499999858 1.4499999993 8.4100754805e-08 -9.1499999858 1.5 -3.2135199035e-07 
-9.0999999851 1.4499999993 8.3799712058e-08 -9.0999999851 1.5 -3.2018965612e-07 -9.0499999844 1.4499999993 8.3531411121e-08 
-9.0499999844 1.5 -3.1909644349e-07 -8.9999999836 1.4499999993 8.3297670983e-08 -8.9999999836 1.5 -3.1820422919e-07 
-8.9499999829 1.4499999993 8.3090306191e-08 -8.9499999829 1.5 -3.1739614315e-07 -8.8999999821 1.4499999993 8.2907952503e-08 
-8.8999999821 1.5 -3.1667627809e-07 -8.8499999814 1.4499999993 8.2735603257e-08 -8.8499999814 1.5 -3.1606646189e-07 
-8.7999999806 1.4499999993 8.2584627137e-08 -8.7999999806 1.5 -3.1549711821e-07 -8.7499999799 1.4499999993 8.2456843131e-08 
-8.7499999799 1.5 -3.1508147913e-07 -8.6999999791 1.4499999993 8.2434560511e-08 -8.6999999791 1.5 -3.1484501051e-07 
-8.6499999784 1.4499999993 8.2303138527e-08 -8.6499999784 1.5 -3.1456670513e-07 -8.5999999776 1.4499999993 8.2261756518e-08 
-8.5999999776 1.5 -3.1429249248e-07 -8.5499999769 1.4499999993 8.2229014708e-08 -8.5499999769 1.5 -3.1411559576e-07 
-8.4999999762 1.4499999993 8.2215827035e-08 -8.4999999762 1.5 -3.1406284506e-07 -8.4499999754 1.4499999993 8.2217646025e-08 
-8.4499999754 1.5 -3.1402009881e-07 -8.3999999747 1.4499999993 8.2206732088e-08 -8.3999999747 1.5 -3.1407694223e-07 
-8.3499999739 1.4499999993 8.2272215707e-08 -8.3499999739 1.5 -3.1421063795e-07 -8.2999999732 1.4499999993 8.2299500548e-08 
-8.2999999732 1.5 -3.1443755688e-07 -8.2499999724 1.4499999993 8.2368167398e-08 -8.2499999724 1.5 -3.1465401662e-07 
-8.1999999717 1.4499999993 8.2463209594e-08 -8.1999999717 1.5 -3.1499075703e-07 -8.1499999709 1.4499999993 8.2572348958e-08 
-8.1499999709 1.5 -3.1535932976e-07 -8.0999999702 1.4499999993 8.2687854785e-08 -8.0999999702 1.5 -3.1583817872e-07 
-8.0499999695 1.4499999993 8.2818367275e-08 -8.0499999695 1.5 -3.1633112485e-07 -7.9999999687 1.4499999993 8.2925232903e-08 
-7.9999999687 1.5 -3.1694867175e-07 -7.949999968 1.4499999993 8.3078937507e-08 -7.949999968 1.5 -3.1757213037e-07 
-7.8999999672 1.4499999993 8.3319498856e-08 -7.8999999672 1.5 -3.1826061786e-07 -7.8499999665 1.4499999993 8.3490029112e-08 
-7.8499999665 1.5 -3.1906733966e-07 -7.7999999657 1.4499999993 8.3715129051e-08 -7.7999999657 1.5 -3.1988679439e-07 
-7.749999965 1.4499999993 8.393340778e-08 -7.749999965 1.5 -3.2079219636e-07 -7.6999999642 1.4499999993 8.420625619e-08 
-7.6999999642 1.5 -3.2170942177e-07 -7.6499999635 1.4499999993 8.448092359e-08 -7.6499999635 1.5 -3.2271259442e-07 
-7.5999999627 1.4499999993 8.4725122917e-08 -7.5999999627 1.5 -3.2385946724e-07 -7.549999962 1.4499999993 8.5042991316e-08 
-7.549999962 1.5 -3.2493792901e-07 -7.4999999613 1.4499999993 8.5367226177e-08 -7.4999999613 1.5 -3.2615366763e-07 
-7.4499999605 1.4499999993 8.5698736996e-08 -7.4499999605 1.5 -3.2743969314e-07 -7.3999999598 1.4499999993 8.6026155088e-08 
-7.3999999598 1.5 -3.2876982914e-07 -7.349999959 1.4499999993 8.6404050137e-08 -7.349999959 1.5 -3.3015089684e-07 
-7.2999999583 1.4499999993 8.6809230027e-08 -7.2999999583 1.5 -3.3164837987e-07 -7.2499999575 1.4499999993 8.7205769717e-08 
-7.2499999575 1.5 -3.3316632653e-07 -7.1999999568 1.4499999993 8.7597307186e-08 -7.1999999568 1.5 -3.3479159356e-07 
-7.149999956 1.4499999993 8.8083886851e-08 -7.149999956 1.5 -3.3646006159e-07 -7.0999999553 1.4499999993 8.8316262747e-08 
-7.0999999553 1.5 -3.3734545468e-07 -7.0499999546 1.4499999993 8.8747363236e-08 -7.0499999546 1.5 -3.3914989217e-07 
-6.9999999538 1.4499999993 8.9268048953e-08 -6.9999999538 1.5 -3.4105892155e-07 -6.9499999531 1.4499999993 8.9767361544e-08 
-6.9499999531 1.5 -3.4299614526e-07 -6.8999999523 1.4499999993 9.0306237155e-08 -6.8999999523 1.5 -3.4503023016e-07 
-6.8499999516 1.4499999993 9.0873761849e-08 -6.8499999516 1.5 -3.4719255382e-07 -6.7999999508 1.4499999993 9.14485625e-08 
-6.7999999508 1.5 -3.4943764149e-07 -6.7499999501 1.4499999993 9.2051557488e-08 -6.7499999501 1.5 -3.5176367419e-07 
-6.6999999493 1.4499999993 9.2712305388e-08 -6.6999999493 1.5 -3.5417792787e-07 -6.6499999486 1.4499999993 9.3384421973e-08 
-6.6499999486 1.5 -3.5672860577e-07 -6.5999999478 1.4499999993 9.4048353105e-08 -6.5999999478 1.5 -3.5937159737e-07 
-6.5499999471 1.4499999993 9.480277896e-08 -6.5499999471 1.5 -3.6212571786e-07 -6.4999999464 1.4499999993 9.5570847236e-08 
-6.4999999464 1.5 -3.6501728573e-07 -6.4499999456 1.4499999993 9.6319361376e-08 -6.4499999456 1.5 -3.6805818127e-07 
-6.3999999449 1.4499999993 9.7174286395e-08 -6.3999999449 1.5 -3.7122185859e-07 -6.3499999441 1.4499999993 9.8049675046e-08 
-6.3499999441 1.5 -3.7455788515e-07 -6.2999999434 1.4499999993 9.8934613391e-08 -6.2999999434 1.5 -3.7803897612e-07 
-6.2499999426 1.4499999993 9.9890492322e-08 -6.2499999426 1.5 -3.8169923755e-07 -6.1999999419 1.4499999993 1.0091140012e-07 
-6.1999999419 1.5 -3.8552889237e-07 -6.1499999411 1.4499999993 1.0198096589e-07 -6.1499999411 1.5 -3.8957841753e-07 
-6.0999999404 1.4499999993 1.030744059e-07 -6.0999999404 1.5 -3.9383076e-07 -6.0499999397 1.4499999993 1.0425402053e-07 
-6.0499999397 1.5 -3.9834958443e-07 -5.9999999389 1.4499999993 1.054868406e-07 -5.9999999389 1.5 -4.0310874283e-07 
-5.9499999382 1.4499999993 1.0681811347e-07 -5.9499999382 1.5 -4.0811096369e-07 -5.8999999374 1.4499999993 1.0820827612e-07 
-5.8999999374 1.5 -4.1346885382e-07 -5.8499999367 1.4499999993 1.0969529995e-07 -5.8499999367 1.5 -4.1916291593e-07 
-5.7999999359 1.4499999993 1.1128486932e-07 -5.7999999359 1.5 -4.2519650378e-07 -5.7499999352 1.4499999993 1.1297039038e-07 
-5.7499999352 1.5 -4.3161435315e-07 -5.6999999344 1.4499999993 1.1477323625e-07 -5.6999999344 1.5 -4.3853287934e-07 
-5.6499999337 1.4499999993 1.1671318845e-07 -5.6499999337 1.5 -4.4593593884e-07 -5.5999999329 1.4499999993 1.1880116091e-07 
-5.5999999329 1.5 -4.5386582315e-07 -5.5499999322 1.4499999993 1.1990779569e-07 -5.5499999322 1.5 -4.5806075377e-07 
-5.4999999315 1.4499999993 1.2221109102e-07 -5.4999999315 1.5 -4.6696231948e-07 -5.4499999307 1.4499999993 1.2472675337e-07 
-5.4499999307 1.5 -4.7660250857e-07 -5.39999993 1.4499999993 1.2747501899e-07 -5.39999993 1.5 -4.8703213906e-07 
-5.3499999292 1.4499999993 1.304417907e-07 -5.3499999292 1.5 -4.9841764849e-07 -5.2999999285 1.4499999993 1.3370119234e-07 
-5.2999999285 1.5 -5.1081974561e-07 -5.2499999277 1.4499999993 1.3725890824e-07 -5.2499999277 1.5 -5.2442396736e-07 
-5.199999927 1.4499999993 1.4118019465e-07 -5.199999927 1.5 -5.3940198086e-07 -5.1499999262 1.4499999993 1.4549529226e-07 
-5.1499999262 1.5 -5.5590521697e-07 -5.0999999255 1.4499999993 1.5028150813e-07 -5.0999999255 1.5 -5.7419379118e-07 
-5.0499999247 1.4499999993 1.5560796385e-07 -5.0499999247 1.5 -5.9451713241e-07 -4.999999924 1.4499999993 1.6155696869e-07 
-4.999999924 1.5 -6.1721380007e-07 -4.9499999233 1.4499999993 1.68220609e-07 -4.9499999233 1.5 -6.4265873334e-07 
-4.8999999225 1.4499999993 1.7572848776e-07 -4.8999999225 1.5 -6.7132066306e-07 -4.8499999218 1.4499999993 1.842186208e-07 
-4.8499999218 1.5 -7.0373766903e-07 -4.799999921 1.4499999993 1.9387563555e-07 -4.799999921 1.5 -7.4057629718e-07 
-4.7499999203 1.4499999993 2.0492826991e-07 -4.7499999203 1.5 -7.8267635217e-07 -4.6999999195 1.4499999993 2.1759707636e-07 
-4.6999999195 1.5 -8.3102236204e-07 -4.6499999188 1.4499999993 2.3224107792e-07 -4.6499999188 1.5 -8.8686806521e-07 
-4.599999918 1.4499999993 2.4927885534e-07 -4.599999918 1.5 -9.5177324511e-07 -4.5499999173 1.4499999993 2.6919815355e-07 
-4.5499999173 1.5 -1.0277037745e-06 -4.4999999166 1.4499999993 2.9266925594e-07 -4.4999999166 1.5 -1.11708232e-06 
-4.4499999158 1.4499999993 3.2050979826e-07 -4.4499999158 1.5 -1.2231273558e-06 -4.3999999151 1.4499999993 3.5382004171e-07 
-4.3999999151 1.5 -1.3499836768e-06 -4.3499999143 1.4499999993 3.940751867e-07 -4.3499999143 1.5 -1.5030591385e-06 
-4.2999999136 1.4499999993 4.4311843794e-07 -4.2999999136 1.5 -1.6895775161e-06 -4.2499999128 1.4499999993 5.0360745263e-07 
-4.2499999128 1.5 -1.9193489607e-06 -4.1999999121 1.4499999993 5.7909596762e-07 -4.1999999121 1.5 -2.2058982267e-06 
-4.1499999113 1.4499999993 6.7466055498e-07 -4.1499999113 1.5 -2.5682988962e-06 -4.0999999106 1.4499999993 7.9765379724e-07 
-4.0999999106 1.5 -3.0340597732e-06 -4.0499999098 1.4499999993 9.590269201e-07 -4.0499999098 1.5 -3.6440421809e-06 
-3.9999999091 1.4499999993 1.1756841332e-06 -3.9999999091 1.5 -4.4611479098e-06 -3.9499999084 1.4499999993 1.3126763179e-06 
[...]
CELL_DATA 9510
FIELD FieldData 4
Water_Depth_m 1 9510 float
0.75999 0.759974 0.759958 0.759943 0.759927 0.759911 0.759895 0.75988 0.759865 
0.75985 0.759836 0.759823 0.75981 0.759799 0.759788 0.759778 0.75977 0.759763 
0.759757 0.759753 0.759751 0.75975 0.759751 0.759753 0.759757 0.759763 0.759771 
0.75978 0.759791 0.759802 0.759816 0.75983 0.759845 0.759861 0.759877 0.759893 
0.75991 0.759926 0.759943 0.759958 0.759973 0.759987 0.759999 0.760011 0.760021 
0.760029 0.760036 0.760041 0.760044 0.760045 0.760044 0.76004 0.760035 0.760028 
0.760018 0.760007 0.759993 0.759978 0.75996 0.759941 0.759919 0.759897 0.759872 
0.759846 0.759819 0.759791 0.759762 0.759732 0.759701 0.759671 0.75964 0.75961 
0.75958 0.759552 0.759524 0.759498 0.759474 0.759452 0.759433 0.759415 0.759401 
0.759389 0.759381 0.759375 0.759372 0.759373 0.759376 0.759381 0.75939 0.7594 
0.759413 0.759427 0.759443 0.759459 0.759476 0.759494 0.759512 0.759529 0.759546 
0.759563 0.759579 0.759594 0.759608 0.759621 0.759634 0.759646 0.759657 0.759667 
0.759677 0.759687 0.759696 0.759706 0.759715 0.759726 0.759737 0.75975 0.759764 
0.759781 0.7598 0.759822 0.759848 0.759878 0.759913 0.759954 0.760001 0.760056 
0.760121 0.760197 0.760291 0.760437 0.760723 0.760654 0.755196 0.741821 0.722297 
0.698295 0.671115 0.641882 0.611647 0.581414 0.552713 0.526414 0.503554 0.485636 
0.474623 0.472856 0.472961 0.473056 0.473143 0.473222 0.473293 0.473357 0.473415 
0.473469 0.473519 0.473568 0.473615 0.473661 0.473866 0.473799 0.470161 0.457561 
0.447681 0.445106 0.444888 0.44445 0.445446 0.448128 0.451763 0.454912 0.456412 
0.457736 0.459743 0.462446 0.465667 0.46834 0.468526 0.469552 0.473155 0.476859 
0.483895 0.490745 0.491433 0.492961 0.495461 0.498108 0.502449 0.507283 0.516599 
0.525101 0.535564 0.543186 0.551133 0.553196 0.55688 0.557569 0.55203 0.5471 
0.484605 0.486404 0.48741 0.487549 0.487229 0.488575 0.489339 0.489098 0.482868 
0.474818 0.474777 0.474823 0.474865 0.474903 0.474938 0.474971 0.475001 0.475028 
0.475053 0.475076 0.475097 0.475116 0.475133 0.475148 0.475162 0.475175 0.475186 
0.475197 0.475206 0.475215 0.475222 0.475229 0.475235 0.47524 0.475245 0.47525 
0.475254 0.475258 0.475261 0.475264 0.475267 0.475269 0.475271 0.475273 0.475275 
0.475277 0.475279 0.47528 0.475282 0.475283 0.475284 0.475285 0.475287 0.475288 
0.475289 0.47529 0.475291 0.475292 0.475293 0.475294 0.475295 0.475296 0.475297 
0.475298 0.475299 0.4753 0.475301 0.475303 0.475304 0.475305 0.475306 0.475307 
0.475309 0.47531 0.475311 0.475313 0.475314 0.475316 0.475317 0.475319 0.47532 
0.475322 0.475323 0.475325 0.475327 0.475329 0.47533 0.475332 0.475334 0.475336 
0.475338 0.47534 0.475342 0.475344 0.475272 0.475261 0.469758 0.759991 0.759975 
0.759959 0.759943 0.759927 0.759912 0.759896 0.75988 0.759865 0.75985 0.759836 
0.759823 0.75981 0.759798 0.759787 0.759777 0.759769 0.759761 0.759755 0.759751 
0.759748 0.759747 0.759748 0.75975 0.759755 0.75976 0.759768 0.759777 0.759787 
0.759799 0.759813 0.759827 0.759842 0.759858 0.759874 0.759891 0.759908 0.759925 
0.759941 0.759957 0.759972 0.759986 0.759999 0.760011 0.760021 0.76003 0.760037 
0.760042 0.760045 0.760046 0.760045 0.760042 0.760037 0.76003 0.760021 0.76001 
0.759996 0.75998 0.759963 0.759944 0.759922 0.759899 0.759875 0.759849 0.759822 
0.759793 0.759764 0.759734 0.759703 0.759672 0.759642 0.759611 0.759581 0.759552 
0.759525 0.759498 0.759474 0.759451 0.759431 0.759414 0.759399 0.759387 0.759378 
0.759372 0.759369 0.75937 0.759372 0.759378 0.759387 0.759397 0.75941 0.759425 
0.75944 0.759457 0.759474 0.759492 0.75951 0.759527 0.759545 0.759561 0.759577 
0.759592 0.759607 0.75962 0.759633 0.759644 0.759655 0.759666 0.759675 0.759685 
0.759694 0.759703 0.759713 0.759723 0.759734 0.759746 0.759759 0.759775 0.759793 
0.759814 0.759839 0.759867 0.7599 0.759939 0.759983 0.760035 0.760093 0.76016 
0.760235 0.76032 0.760435 0.760436 0.755542 0.74286 0.723792 0.699901 0.67256 
0.64299 0.612313 0.581552 0.552034 0.52492 0.501684 0.484086 0.474292 0.472881 
0.472978 0.473067 0.473152 0.47323 0.473299 0.473363 0.47342 0.473473 0.473522 
0.47357 0.473615 0.473659 0.473801 0.473726 0.470223 0.457762 0.44838 0.449252 
0.449278 0.448673 0.449871 0.452249 0.455777 0.458893 0.459462 0.461073 0.4612 
0.463363 0.4659 0.470459 0.476209 0.48137 0.482268 0.484239 0.489083 0.493856 
0.498794 0.50199 0.507034 0.511954 0.514935 0.52017 0.531328 0.543848 0.553566 
0.56125 0.5629 0.562565 0.555184 0.554997 0.554772 0.557489 0.503203 0.487599 
0.487671 0.487645 0.487908 0.489316 0.490122 0.489875 0.483307 0.474916 0.474752 
0.474798 0.474841 0.474882 0.474919 0.474953 0.474985 0.475014 0.47504 0.475064 
0.475086 0.475106 0.475124 0.47514 0.475155 0.475168 0.47518 0.475191 0.4752 
0.475209 0.475217 0.475224 0.47523 0.475236 0.475241 0.475246 0.47525 0.475254 
0.475257 0.475261 0.475263 0.475266 0.475268 0.47527 0.475272 0.475274 0.475276 
0.475278 0.475279 0.475281 0.475282 0.475283 0.475284 0.475286 0.475287 0.475288 
0.475289 0.47529 0.475291 0.475292 0.475293 0.475294 0.475295 0.475296 0.475298 
0.475299 0.4753 0.475301 0.475302 0.475303 0.475305 0.475306 0.475307 0.475309 
0.47531 0.475311 0.475313 0.475314 0.475316 0.475317 0.475319 0.47532 0.475322 
0.475324 0.475326 0.475327 0.475329 0.475331 0.475333 0.475335 0.475337 0.475339 
0.475341 0.475343 0.47527 0.475258 0.469754 0.75999 0.759975 0.759959 0.759943 
0.759927 0.759911 0.759895 0.759879 0.759864 0.759849 0.759835 0.759821 0.759808 
0.759796 0.759785 0.759775 0.759766 0.759759 0.759753 0.759748 0.759745 0.759744 
0.759745 0.759747 0.759751 0.759757 0.759765 0.759774 0.759785 0.759797 0.75981 
0.759825 0.75984 0.759856 0.759873 0.75989 0.759908 0.759925 0.759942 0.759958 
0.759973 0.759988 0.760002 0.760014 0.760024 0.760033 0.76004 0.760046 0.760049 
0.76005 0.76005 0.760047 0.760041 0.760034 0.760025 0.760013 0.76 0.759984 
0.759966 0.759946 0.759925 0.759902 0.759877 0.75985 0.759823 0.759794 0.759764 
0.759733 0.759702 0.759671 0.759639 0.759609 0.759578 0.759549 0.75952 0.759494 
0.759469 0.759446 0.759426 0.759408 0.759393 0.759381 0.759372 0.759366 0.759364 
0.759364 0.759367 0.759373 0.759382 0.759394 0.759407 0.759422 0.759438 0.759455 
0.759473 0.759492 0.75951 0.759528 0.759546 0.759562 0.759579 0.759594 0.759608 
0.759622 0.759634 0.759646 0.759657 0.759667 0.759676 0.759685 0.759694 0.759703 
0.759712 0.759721 0.759731 0.759743 0.759755 0.75977 0.759787 0.759807 0.75983 
0.759858 0.759889 0.759926 0.759969 0.760019 0.760076 0.760141 0.760216 0.760303 
0.760465 0.760415 0.755671 0.743336 0.724599 0.70087 0.673498 0.643737 0.612753 
0.581643 0.551703 0.524235 0.500933 0.483648 0.474243 0.472872 0.47298 0.473077 
0.473163 0.47324 0.473309 0.47337 0.473425 0.473475 0.473521 0.473564 0.473605 
0.473645 0.473799 0.473728 0.470364 0.458579 0.451101 0.453818 0.455335 0.456342 
0.457425 0.459613 0.461785 0.463694 0.46415 0.46494 0.468493 0.471477 0.475189 
0.479559 0.485333 0.490019 0.490834 0.492457 0.496491 0.502185 0.508133 0.514222 
0.518615 0.523349 0.528426 0.536522 0.546789 0.558147 0.564884 0.568776 0.56915 
0.569242 0.5741 0.579539 0.587923 0.592256 0.530839 0.50472 0.491349 0.488634 
0.488705 0.489338 0.490169 0.489937 0.483501 0.474903 0.474756 0.474803 0.474846 
0.474887 0.474924 0.474959 0.47499 0.475019 0.475045 0.475069 0.47509 0.47511 
0.475128 0.475143 0.475158 0.475171 0.475182 0.475193 0.475202 0.475211 0.475219 
0.475226 0.475232 0.475237 0.475242 0.475247 0.475251 0.475255 0.475258 0.475261 
0.475264 0.475267 0.475269 0.475271 0.475273 0.475275 0.475276 0.475278 0.47528 
0.475281 0.475282 0.475283 0.475285 0.475286 0.475287 0.475288 0.475289 0.47529 
0.475291 0.475292 0.475293 0.475294 0.475296 0.475297 0.475298 0.475299 0.4753 
0.475301 0.475302 0.475304 0.475305 0.475306 0.475307 0.475309 0.47531 0.475311 
0.475313 0.475314 0.475316 0.475317 0.475319 0.475321 0.475322 0.475324 0.475326 
0.475327 0.475329 0.475331 0.475333 0.475335 0.475337 0.475339 0.475341 0.475343 
0.47527 0.475259 0.469754 0.75999 0.759975 0.759959 0.759942 0.759926 0.75991 
0.759894 0.759878 0.759862 0.759847 0.759833 0.759819 0.759805 0.759793 0.759781 
0.759771 0.759762 0.759754 0.759748 0.759744 0.759741 0.759739 0.75974 0.759742 
0.759746 0.759752 0.75976 0.759769 0.75978 0.759793 0.759807 0.759822 0.759838 
0.759854 0.759872 0.759889 0.759907 0.759925 0.759943 0.75996 0.759976 0.759991 
0.760005 0.760018 0.760029 0.760038 0.760046 0.760051 0.760055 0.760056 0.760055 
0.760053 0.760047 0.76004 0.760031 0.760019 0.760005 0.759989 0.759971 0.759951 
0.759928 0.759905 0.759879 0.759852 0.759824 0.759794 0.759764 0.759732 0.7597 
0.759668 0.759636 0.759604 0.759573 0.759543 0.759514 0.759487 0.759461 0.759438 
0.759417 0.759399 0.759384 0.759372 0.759363 0.759358 0.759355 0.759356 0.759359 
0.759364 0.759376 0.759388 0.759402 0.759418 0.759435 0.759453 0.759472 0.759491 
0.75951 0.759529 0.759547 0.759564 0.759581 0.759596 0.759611 0.759624 0.759637 
0.759648 0.759659 0.759668 0.759677 0.759686 0.759694 0.759702 0.75971 0.759719 
0.759728 0.759738 0.75975 0.759763 0.759778 0.759797 0.759818 0.759843 0.759872 
0.759907 0.759947 0.759994 0.760048 0.760111 0.760181 0.760261 0.760416 0.760379 
0.755704 0.743543 0.725006 0.701407 0.674048 0.644184 0.613014 0.5817 0.551543 
0.523957 0.500684 0.483548 0.474275 0.472904 0.473011 0.473105 0.473188 0.473263 
0.473328 0.473387 0.473439 0.473485 0.473527 0.473566 0.473602 0.473634 0.473767 
0.473699 0.470852 0.460624 0.455105 0.45779 0.459361 0.46046 0.461616 0.46287 
0.464937 0.467227 0.46996 0.473618 0.477427 0.481132 0.483072 0.486464 0.489856 
0.49349 0.495842 0.498278 0.502696 0.508684 0.51416 0.52044 0.525059 0.530599 
0.535829 0.543246 0.552638 0.56316 0.566143 0.568515 0.575128 0.5813 0.592252 
0.605692 0.614885 0.615654 0.550857 0.525354 0.500426 0.489689 0.489666 0.490053 
0.490863 0.490675 0.484165 0.474914 0.474759 0.474807 0.474851 0.474892 0.47493 
0.474965 0.474996 0.475025 0.475051 0.475074 0.475095 0.475114 0.475132 0.475147 
0.475161 0.475174 0.475185 0.475196 0.475205 0.475213 0.475221 0.475227 0.475233 
0.475239 0.475244 0.475248 0.475252 0.475256 0.475259 0.475262 0.475265 0.475267 
0.475269 0.475271 0.475273 0.475275 0.475277 0.475278 0.47528 0.475281 0.475282 
0.475284 0.475285 0.475286 0.475287 0.475288 0.475289 0.47529 0.475291 0.475292 
0.475293 0.475294 0.475295 0.475297 0.475298 0.475299 0.4753 0.475301 0.475302 
0.475303 0.475305 0.475306 0.475307 0.475309 0.47531 0.475311 0.475313 0.475314 
0.475316 0.475317 0.475319 0.47532 0.475322 0.475324 0.475326 0.475327 0.475329 
0.475331 0.475333 0.475335 0.475337 0.475339 0.475341 0.475343 0.47527 0.475258 
0.469754 0.75999 0.759974 0.759958 0.759942 0.759925 0.759909 0.759893 0.759876 
0.759861 0.759845 0.75983 0.759815 0.759802 0.759789 0.759777 0.759767 0.759757 
0.759749 0.759743 0.759738 0.759735 0.759733 0.759733 0.759736 0.75974 0.759746 
0.759754 0.759764 0.759775 0.759788 0.759802 0.759818 0.759834 0.759852 0.75987 
0.759888 0.759907 0.759926 0.759944 0.759962 0.759979 0.759995 0.760009 0.760023 
0.760034 0.760044 0.760052 0.760058 0.760062 0.760064 0.760063 0.76006 0.760055 
0.760048 0.760038 0.760026 0.760012 0.759995 0.759976 0.759956 0.759933 0.759909 
0.759882 0.759854 0.759825 0.759795 0.759763 0.759731 0.759698 0.759665 0.759632 
0.759599 0.759567 0.759536 0.759506 0.759478 0.759451 0.759428 0.759406 0.759388 
0.759372 0.75936 0.759351 0.759346 0.759344 0.759346 0.759351 0.75936 0.759369 
0.759381 0.759397 0.759413 0.759432 0.759451 0.759471 0.759491 0.759511 0.75953 
0.759549 0.759567 0.759584 0.7596 0.759614 0.759628 0.75964 0.759651 0.759661 
0.75967 0.759679 0.759686 0.759694 0.759701 0.759708 0.759715 0.759723 0.759732 
0.759742 0.759754 0.759767 0.759783 0.759802 0.759825 0.759851 0.759883 0.75992 
0.759963 0.760014 0.760072 0.76014 0.760217 0.760372 0.760334 0.755689 0.743613 
0.725187 0.701673 0.674337 0.644426 0.613158 0.581739 0.55148 0.523865 0.500632 
0.48356 0.474318 0.472945 0.473049 0.473141 0.473221 0.473292 0.473354 0.473409 
0.473457 0.473499 0.473536 0.473569 0.473597 0.473622 0.473717 0.473661 0.471938 
0.466208 0.46165 0.461846 0.463414 0.46474 0.466174 0.467222 0.467429 0.469136 
0.473898 0.478746 0.482348 0.485299 0.486564 0.488164 0.492348 0.496222 0.500469 
0.504268 0.507837 0.511642 0.51763 0.522557 0.52874 0.533688 0.541169 0.546548 
0.552717 0.562107 0.564676 0.566898 0.577616 0.587125 0.600112 0.617639 0.623479 
0.623039 0.572807 0.542372 0.521287 0.499591 0.490731 0.491872 0.492352 0.492099 
0.48476 0.474947 0.474766 0.474816 0.474861 0.474902 0.47494 0.474974 0.475006 
0.475034 0.475059 0.475082 0.475103 0.475121 0.475138 0.475153 0.475167 0.475179 
0.47519 0.4752 0.475208 0.475216 0.475224 0.47523 0.475236 0.475241 0.475246 
0.47525 0.475254 0.475257 0.47526 0.475263 0.475266 0.475268 0.47527 0.475272 
0.475274 0.475276 0.475277 0.475279 0.47528 0.475282 0.475283 0.475284 0.475285 
0.475286 0.475287 0.475288 0.475289 0.47529 0.475291 0.475292 0.475294 0.475295 
0.475296 0.475297 0.475298 0.475299 0.4753 0.475301 0.475302 0.475304 0.475305 
0.475306 0.475307 0.475309 0.47531 0.475311 0.475313 0.475314 0.475316 0.475317 
0.475319 0.47532 0.475322 0.475324 0.475326 0.475327 0.475329 0.475331 0.475333 
0.475335 0.475337 0.475339 0.475341 0.475343 0.47527 0.475258 0.469754 0.75999 
0.759974 0.759958 0.759941 0.759925 0.759908 0.759891 0.759875 0.759858 0.759842 
0.759827 0.759812 0.759798 0.759784 0.759772 0.759761 0.759751 0.759743 0.759736 
0.759731 0.759727 0.759726 0.759726 0.759728 0.759732 0.759739 0.759747 0.759757 
0.759768 0.759782 0.759797 0.759813 0.75983 0.759848 0.759867 0.759887 0.759906 
0.759926 0.759945 0.759964 0.759982 0.759999 0.760015 0.760029 0.760041 0.760052 
0.76006 0.760067 0.760071 0.760073 0.760072 0.76007 0.760064 0.760057 0.760047 
0.760034 0.76002 0.760003 0.759983 0.759962 0.759938 0.759913 0.759886 0.759857 
0.759827 0.759795 0.759763 0.759729 0.759695 0.759661 0.759627 0.759593 0.759559 
0.759527 0.759496 0.759467 0.759439 0.759415 0.759393 0.759373 0.759358 0.759345 
0.759337 0.759332 0.75933 0.759333 0.759338 0.759348 0.759359 0.759373 0.75939 
0.759408 0.759428 0.759448 0.75947 0.759491 0.759512 0.759532 0.759552 0.75957 
0.759588 0.759604 0.759619 0.759632 0.759644 0.759655 0.759664 0.759673 0.759681 
0.759688 0.759694 0.7597 0.759706 0.759712 0.759718 0.759725 0.759733 0.759743 
0.759754 0.759767 0.759783 0.759803 0.759826 0.759853 0.759886 0.759925 0.759971 
0.760025 0.760088 0.760161 0.760314 0.760276 0.755645 0.743607 0.72524 0.701778 
0.674465 0.64454 0.613232 0.581772 0.551473 0.523858 0.500655 0.483611 0.474376 
0.472999 0.473099 0.473187 0.473263 0.47333 0.473388 0.473438 0.473481 0.473518 
0.473549 0.473575 0.473596 0.473612 0.473668 0.473623 0.472503 0.468666 0.465595 
0.466422 0.467799 0.469089 0.470126 0.471343 0.472564 0.474631 0.477875 0.481324 
0.485078 0.488001 0.491113 0.494228 0.497989 0.502553 0.507323 0.511737 0.516061 
0.520793 0.525977 0.531901 0.537669 0.543919 0.550783 0.558523 0.558875 0.558211 
0.561354 0.565712 0.576861 0.587376 0.599457 0.6159 0.621645 0.621336 0.592897 
0.563625 0.544981 0.523846 0.500066 0.492298 0.493331 0.493058 0.485225 0.474968 
0.474776 0.474827 0.474873 0.474915 0.474953 0.474987 0.475017 0.475045 0.47507 
0.475092 0.475112 0.47513 0.475146 0.47516 0.475173 0.475185 0.475195 0.475205 
0.475213 0.475221 0.475227 0.475233 0.475239 0.475244 0.475248 0.475252 0.475256 
0.475259 0.475262 0.475265 0.475267 0.475269 0.475271 0.475273 0.475275 0.475277 
0.475278 0.475279 0.475281 0.475282 0.475283 0.475284 0.475285 0.475287 0.475288 
0.475289 0.47529 0.475291 0.475292 0.475293 0.475294 0.475295 0.475296 0.475297 
0.475298 0.475299 0.4753 0.475301 0.475302 0.475304 0.475305 0.475306 0.475307 
0.475309 0.47531 0.475311 0.475313 0.475314 0.475316 0.475317 0.475319 0.475321 
0.475322 0.475324 0.475326 0.475327 0.475329 0.475331 0.475333 0.475335 0.475337 
0.475339 0.475341 0.475343 0.47527 0.475258 0.469754 0.759991 0.759974 0.759957 
0.759941 0.759924 0.759907 0.759889 0.759872 0.759856 0.759839 0.759823 0.759808 
0.759793 0.759779 0.759766 0.759755 0.759745 0.759736 0.759728 0.759723 0.759719 
0.759717 0.759717 0.759719 0.759724 0.75973 0.759738 0.759749 0.759761 0.759775 
0.75979 0.759807 0.759825 0.759844 0.759864 0.759885 0.759906 0.759926 0.759947 
0.759967 0.759986 0.760004 0.76002 0.760036 0.760049 0.76006 0.760069 0.760076 
0.760081 0.760083 0.760083 0.76008 0.760075 0.760067 0.760056 0.760044 0.760029 
0.760011 0.759991 0.759969 0.759945 0.759918 0.75989 0.75986 0.759829 0.759796 
0.759762 0.759727 0.759692 0.759656 0.75962 0.759585 0.75955 0.759516 0.759484 
0.759454 0.759425 0.7594 0.759377 0.759357 0.759341 0.759329 0.75932 0.759315 
0.759314 0.759318 0.759324 0.759335 0.759348 0.759364 0.759382 0.759402 0.759424 
0.759446 0.759469 0.759492 0.759514 0.759535 0.759556 0.759575 0.759593 0.759609 
0.759624 0.759637 0.759649 0.759659 0.759668 0.759676 0.759683 0.759689 0.759694 
0.759699 0.759704 0.759708 0.759713 0.759718 0.759724 0.759731 0.759739 0.75975 
0.759762 0.759778 0.759797 0.75982 0.759848 0.759882 0.759922 0.759971 0.760028 
0.760095 0.760243 0.760205 0.755579 0.743559 0.725222 0.701792 0.674501 0.644583 
0.61327 0.581806 0.551499 0.523896 0.500713 0.483681 0.474445 0.473064 0.473159 
0.473242 0.473314 0.473375 0.473428 0.473472 0.47351 0.473542 0.473567 0.473586 
0.4736 0.473607 0.473638 0.473603 0.472748 0.469705 0.469041 0.470686 0.471987 
0.472997 0.474298 0.476007 0.479474 0.482814 0.484534 0.48724 0.491149 0.494798 
0.498255 0.501545 0.5058 0.510721 0.516247 0.521607 0.525926 0.530538 0.536382 
0.542781 0.548619 0.554483 0.559112 0.561992 0.568105 0.572843 0.576809 0.580293 
0.584003 0.590813 0.59654 0.606113 0.615079 0.616049 0.616558 0.585432 0.564318 
0.542953 0.517441 0.49712 0.49348 0.493195 0.485251 0.474993 0.474791 0.474843 
0.47489 0.474931 0.474969 0.475002 0.475032 0.475059 0.475082 0.475104 0.475123 
0.47514 0.475155 0.475169 0.475181 0.475192 0.475202 0.475211 0.475218 0.475225 
0.475232 0.475237 0.475242 0.475247 0.475251 0.475255 0.475258 0.475261 0.475264 
0.475266 0.475269 0.475271 0.475273 0.475274 0.475276 0.475278 0.475279 0.47528 
0.475282 0.475283 0.475284 0.475285 0.475286 0.475287 0.475288 0.475289 0.47529 
0.475291 0.475292 0.475293 0.475294 0.475295 0.475296 0.475297 0.475298 0.475299 
0.4753 0.475301 0.475302 0.475304 0.475305 0.475306 0.475307 0.475309 0.47531 
0.475311 0.475313 0.475314 0.475316 0.475317 0.475319 0.475321 0.475322 0.475324 
0.475326 0.475327 0.475329 0.475331 0.475333 0.475335 0.475337 0.475339 0.475341 
0.475343 0.47527 0.475258 0.469754 0.759991 0.759974 0.759957 0.75994 0.759923 
0.759905 0.759888 0.75987 0.759853 0.759836 0.75982 0.759803 0.759788 0.759774 
0.75976 0.759748 0.759737 0.759728 0.75972 0.759714 0.75971 0.759708 0.759708 
0.75971 0.759714 0.759721 0.759729 0.75974 0.759752 0.759767 0.759783 0.759801 
0.75982 0.75984 0.759861 0.759883 0.759905 0.759927 0.759949 0.75997 0.75999 
0.760009 0.760027 0.760043 0.760057 0.760069 0.760079 0.760087 0.760092 0.760094 
0.760094 0.760091 0.760086 0.760078 0.760067 0.760054 0.760038 0.76002 0.759999 
0.759976 0.759951 0.759924 0.759894 0.759863 0.75983 0.759796 0.759761 0.759724 
0.759688 0.75965 0.759613 0.759576 0.75954 0.759505 0.759471 0.759439 0.75941 
0.759383 0.759359 0.759339 0.759322 0.75931 0.759301 0.759297 0.759297 0.759301 
0.759309 0.759321 0.759336 0.759354 0.759374 0.759396 0.75942 0.759444 0.759469 
0.759493 0.759516 0.759539 0.75956 0.75958 0.759598 0.759615 0.75963 0.759643 
0.759654 0.759664 0.759673 0.75968 0.759686 0.75969 0.759695 0.759698 0.759701 
0.759704 0.759707 0.75971 0.759714 0.759718 0.759724 0.759731 0.75974 0.759752 
0.759766 0.759785 0.759807 0.759835 0.759869 0.75991 0.75996 0.760021 0.760163 
0.760123 0.755498 0.743487 0.725165 0.701757 0.674488 0.644588 0.613292 0.581844 
0.551549 0.523961 0.500794 0.483767 0.474528 0.47314 0.47323 0.473307 0.473372 