# vtk DataFile Version 5.1
vtk output
ASCII
DATASET UNSTRUCTURED_GRID
POINTS 10043 double
-10.1 1.4499999993 0 -10.049999999 1.4499999993 0 -10.049999999 1.5 0 
-9.9999999985 1.4499999993 0 -9.9999999985 1.5 0 -9.9499999978 1.4499999993 0 
-9.9499999978 1.5 0 -9.899999997 1.4499999993 0 -9.899999997 1.5 0 
-9.8499999963 1.4499999993 0 -9.8499999963 1.5 0 -9.7999999955 1.4499999993 0 
-9.7999999955 1.5 0 -9.7499999948 1.4499999993 0 -9.7499999948 1.5 0 
-9.699999994 1.4499999993 0 -9.699999994 1.5 0 -9.6499999933 1.4499999993 0 
-9.6499999933 1.5 0 -9.5999999925 1.4499999993 0 -9.5999999925 1.5 0 
-9.5499999918 1.4499999993 0 -9.5499999918 1.5 0 -9.4999999911 1.4499999993 0 
-9.4999999911 1.5 0 -9.4499999903 1.4499999993 0 -9.4499999903 1.5 0 
-9.3999999896 1.4499999993 0 -9.3999999896 1.5 0 -9.3499999888 1.4499999993 0 
-9.3499999888 1.5 0 -9.2999999881 1.4499999993 0 -9.2999999881 1.5 0 
-9.2499999873 1.4499999993 0 -9.2499999873 1.5 0 -9.1999999866 1.4499999993 0 
-9.1999999866 1.5 0 -9.1499999858 1.4499999993 0 -9.1499999858 1.5 0 
-9.0999999851 1.4499999993 0 -9.0999999851 1.5 0 -9.0499999844 1.4499999993 0 
-9.0499999844 1.5 0 -8.9999999836 1.4499999993 0 -8.9999999836 1.5 0 
-8.9499999829 1.4499999993 0 -8.9499999829 1.5 0 -8.8999999821 1.4499999993 0 
-8.8999999821 1.5 0 -8.8499999814 1.4499999993 0 -8.8499999814 1.5 0 
-8.7999999806 1.4499999993 0 -8.7999999806 1.5 0 -8.7499999799 1.4499999993 0 
-8.7499999799 1.5 0 -8.6999999791 1.4499999993 0 -8.6999999791 1.5 0 
-8.6499999784 1.4499999993 0 -8.6499999784 1.5 0 -8.5999999776 1.4499999993 0 
-8.5999999776 1.5 0 -8.5499999769 1.4499999993 0 -8.5499999769 1.5 0 
-8.4999999762 1.4499999993 0 -8.4999999762 1.5 0 -8.4499999754 1.4499999993 0 
-8.4499999754 1.5 0 -8.3999999747 1.4499999993 0 -8.3999999747 1.5 0 
-8.3499999739 1.4499999993 0 -8.3499999739 1.5 0 -8.2999999732 1.4499999993 0 
-8.2999999732 1.5 0 -8.2499999724 1.4499999993 0 -8.2499999724 1.5 0 
-8.1999999717 1.4499999993 0 -8.1999999717 1.5 0 -8.1499999709 1.4499999993 0 
-8.1499999709 1.5 0 -8.0999999702 1.4499999993 0 -8.0999999702 1.5 0 
-8.0499999695 1.4499999993 0 -8.0499999695 1.5 0 -7.9999999687 1.4499999993 0 
-7.9999999687 1.5 0 -7.949999968 1.4499999993 0 -7.949999968 1.5 0 
-7.8999999672 1.4499999993 0 -7.8999999672 1.5 0 -7.8499999665 1.4499999993 0 
-7.8499999665 1.5 0 -7.7999999657 1.4499999993 0 -7.7999999657 1.5 0 
-7.749999965 1.4499999993 0 -7.749999965 1.5 0 -7.6999999642 1.4499999993 0 
-7.6999999642 1.5 0 -7.6499999635 1.4499999993 0 -7.6499999635 1.5 0 
-7.5999999627 1.4499999993 0 -7.5999999627 1.5 0 -7.549999962 1.4499999993 0 
-7.549999962 1.5 0 -7.4999999613 1.4499999993 0 -7.4999999613 1.5 0 
-7.4499999605 1.4499999993 0 -7.4499999605 1.5 0 -7.3999999598 1.4499999993 0 
-7.3999999598 1.5 0 -7.349999959 1.4499999993 0 -7.349999959 1.5 0 
-7.2999999583 1.4499999993 0 -7.2999999583 1.5 0 -7.2499999575 1.4499999993 0 
-7.2499999575 1.5 0 -7.1999999568 1.4499999993 0 -7.1999999568 1.5 0 
-7.149999956 1.4499999993 0 -7.149999956 1.5 0 -7.0999999553 1.4499999993 0 
-7.0999999553 1.5 0 -7.0499999546 1.4499999993 0 -7.0499999546 1.5 0 
-6.9999999538 1.4499999993 0 -6.9999999538 1.5 0 -6.9499999531 1.4499999993 0 
-6.9499999531 1.5 0 -6.8999999523 1.4499999993 0 -6.8999999523 1.5 0 
-6.8499999516 1.4499999993 0 -6.8499999516 1.5 0 -6.7999999508 1.4499999993 0 
-6.7999999508 1.5 0 -6.7499999501 1.4499999993 0 -6.7499999501 1.5 0 
-6.6999999493 1.4499999993 0 -6.6999999493 1.5 0 -6.6499999486 1.4499999993 0 
-6.6499999486 1.5 0 -6.5999999478 1.4499999993 0 -6.5999999478 1.5 0 
-6.5499999471 1.4499999993 0 -6.5499999471 1.5 0 -6.4999999464 1.4499999993 0 
-6.4999999464 1.5 0 -6.4499999456 1.4499999993 0 -6.4499999456 1.5 0 
-6.3999999449 1.4499999993 0 -6.3999999449 1.5 0 -6.3499999441 1.4499999993 0 
-6.3499999441 1.5 0 -6.2999999434 1.4499999993 0 -6.2999999434 1.5 0 
-6.2499999426 1.4499999993 0 -6.2499999426 1.5 0 -6.1999999419 1.4499999993 0 
-6.1999999419 1.5 0 -6.1499999411 1.4499999993 0 -6.1499999411 1.5 0 
-6.0999999404 1.4499999993 0 -6.0999999404 1.5 0 -6.0499999397 1.4499999993 0 
-6.0499999397 1.5 0 -5.9999999389 1.4499999993 0 -5.9999999389 1.5 0 
-5.9499999382 1.4499999993 0 -5.9499999382 1.5 0 -5.8999999374 1.4499999993 0 
-5.8999999374 1.5 0 -5.8499999367 1.4499999993 0 -5.8499999367 1.5 0 
-5.7999999359 1.4499999993 0 -5.7999999359 1.5 0 -5.7499999352 1.4499999993 0 
-5.7499999352 1.5 0 -5.6999999344 1.4499999993 0 -5.6999999344 1.5 0 
-5.6499999337 1.4499999993 0 -5.6499999337 1.5 0 -5.5999999329 1.4499999993 0 
-5.5999999329 1.5 0 -5.5499999322 1.4499999993 0 -5.5499999322 1.5 0 
-5.4999999315 1.4499999993 0 -5.4999999315 1.5 0 -5.4499999307 1.4499999993 0 
-5.4499999307 1.5 0 -5.39999993 1.4499999993 0 -5.39999993 1.5 0 
-5.3499999292 1.4499999993 0 -5.3499999292 1.5 0 -5.2999999285 1.4499999993 0 
-5.2999999285 1.5 0 -5.2499999277 1.4499999993 0 -5.2499999277 1.5 0 
-5.199999927 1.4499999993 0 -5.199999927 1.5 0 -5.1499999262 1.4499999993 0 
-5.1499999262 1.5 0 -5.0999999255 1.4499999993 0 -5.0999999255 1.5 0 
-5.0499999247 1.4499999993 0 -5.0499999247 1.5 0 -4.999999924 1.4499999993 0 
-4.999999924 1.5 0 -4.9499999233 1.4499999993 0 -4.9499999233 1.5 0 
-4.8999999225 1.4499999993 0 -4.8999999225 1.5 0 -4.8499999218 1.4499999993 0 
-4.8499999218 1.5 0 -4.799999921 1.4499999993 0 -4.799999921 1.5 0 
-4.7499999203 1.4499999993 0 -4.7499999203 1.5 0 -4.6999999195 1.4499999993 0 
-4.6999999195 1.5 0 -4.6499999188 1.4499999993 0 -4.6499999188 1.5 0 
-4.599999918 1.4499999993 0 -4.599999918 1.5 0 -4.5499999173 1.4499999993 0 
-4.5499999173 1.5 0 -4.4999999166 1.4499999993 0 -4.4999999166 1.5 0 
-4.4499999158 1.4499999993 0 -4.4499999158 1.5 0 -4.3999999151 1.4499999993 0 
-4.3999999151 1.5 0 -4.3499999143 1.4499999993 0 -4.3499999143 1.5 0 
-4.2999999136 1.4499999993 0 -4.2999999136 1.5 0 -4.2499999128 1.4499999993 0 
-4.2499999128 1.5 0 -4.1999999121 1.4499999993 0 -4.1999999121 1.5 0 
-4.1499999113 1.4499999993 0 -4.1499999113 1.5 0 -4.0999999106 1.4499999993 0 
-4.0999999106 1.5 0 -4.0499999098 1.4499999993 0 -4.0499999098 1.5 0 
-3.9999999091 1.4499999993 0 -3.9999999091 1.5 0 -3.9499999084 1.4499999993 0 
-3.9499999084 1.5 0 -3.8999999076 1.4499999993 0 -3.8999999076 1.5 0 
-3.8499999069 1.4499999993 0 -3.8499999069 1.5 0 -3.7999999061 1.4499999993 0 
-3.7999999061 1.5 0 -3.7499999054 1.4499999993 0 -3.7499999054 1.5 0 
-3.6999999046 1.4499999993 0 -3.6999999046 1.5 0 -3.6499999039 1.4499999993 0 
-3.6499999039 1.5 0 -3.5999999031 1.4499999993 0 -3.5999999031 1.5 0 
-3.5499999024 1.4499999993 0 -3.5499999024 1.5 0 -3.4999999017 1.4499999993 0 
-3.4999999017 1.5 0 -3.4499999009 1.4499999993 0 -3.4499999009 1.5 0 
-3.3999999002 1.4499999993 0 -3.3999999002 1.5 0 -3.3499998994 1.4499999993 0 
-3.3499998994 1.5 0 -3.2999998987 1.4499999993 0 -3.2999998987 1.5 0 
-3.2499998979 1.4499999993 0 -3.2499998979 1.5 0 -3.1999998972 1.4499999993 0 
-3.1999998972 1.5 0 -3.1499998964 1.4499999993 0 -3.1499998964 1.5 0 
-3.0999998957 1.4499999993 0 -3.0999998957 1.5 0 -3.0499998949 1.4499999993 0 
-3.0499998949 1.5 0 -2.9999998942 1.4499999993 0 -2.9999998942 1.5 0 
-2.9499998935 1.4499999993 0 -2.9499998935 1.5 0 -2.8999998927 1.4499999993 0 
-2.8999998927 1.5 0 -2.849999892 1.4499999993 0 -2.849999892 1.5 0 
-2.7999998912 1.4499999993 0 -2.7999998912 1.5 0 -2.7499998905 1.4499999993 0 
-2.7499998905 1.5 0 -2.6999998897 1.4499999993 0 -2.6999998897 1.5 0 
-2.649999889 1.4499999993 0 -2.649999889 1.5 0 -2.5999998882 1.4499999993 0 
-2.5999998882 1.5 0 -2.5499998875 1.4499999993 0 -2.5499998875 1.5 0 
-2.4999998868 1.4499999993 0 -2.4999998868 1.5 0 -2.449999886 1.4499999993 0 
-2.449999886 1.5 0 -2.3999998853 1.4499999993 0 -2.3999998853 1.5 0 
-2.3499998845 1.4499999993 0 -2.3499998845 1.5 0 -2.2999998838 1.4499999993 0 
-2.2999998838 1.5 0 -2.249999883 1.4499999993 0 -2.249999883 1.5 0 
-2.1999998823 1.4499999993 0 -2.1999998823 1.5 0 -2.1499998815 1.4499999993 0 
-2.1499998815 1.5 0 -2.0999998808 1.4499999993 0 -2.0999998808 1.5 0 
-2.04999988 1.4499999993 0 -2.04999988 1.5 0 -1.9999998793 1.4499999993 0 
-1.9999998793 1.5 0 -1.9499998786 1.4499999993 0 -1.9499998786 1.5 0 
-1.8999998778 1.4499999993 0 -1.8999998778 1.5 0 -1.8499998771 1.4499999993 0 
-1.8499998771 1.5 0 -1.7999998763 1.4499999993 0 -1.7999998763 1.5 0 
-1.7499998756 1.4499999993 0 -1.7499998756 1.5 0 -1.6999998748 1.4499999993 0 
-1.6999998748 1.5 0 -1.6499998741 1.4499999993 0 -1.6499998741 1.5 0 
-1.5999998733 1.4499999993 0 -1.5999998733 1.5 0 -1.5499998726 1.4499999993 0 
-1.5499998726 1.5 0 -1.4999998718 1.4499999993 0 -1.4999998718 1.5 0 
-1.4499998711 1.4499999993 0 -1.4499998711 1.5 0 -1.3999998704 1.4499999993 0 
-1.3999998704 1.5 0 -1.3499998696 1.4499999993 0 -1.3499998696 1.5 0 
-1.2999998689 1.4499999993 0 -1.2999998689 1.5 0 -1.2499998681 1.4499999993 0 
-1.2499998681 1.5 0 -1.1999998674 1.4499999993 0 -1.1999998674 1.5 0 
-1.1499998666 1.4499999993 0 -1.1499998666 1.5 0 -1.0999998659 1.4499999993 0 
-1.0999998659 1.5 0 -1.0499998651 1.4499999993 0 -1.0499998651 1.5 0 
-0.9999998644 1.4499999993 0 -0.9999998644 1.5 0 -0.94999986365 1.4499999993 0 
-0.94999986365 1.5 0 -0.89999986291 1.4499999993 0 -0.89999986291 1.5 0 
-0.84999986216 1.4499999993 0 -0.84999986216 1.5 0 -0.79999986142 1.4499999993 0 
-0.79999986142 1.5 0 -0.74999986067 1.4499999993 0 -0.74999986067 1.5 0 
-0.69999985993 1.4499999993 0 -0.69999985993 1.5 0 -0.64999985918 1.4499999993 0 
-0.64999985918 1.5 0 -0.59999985844 1.4499999993 0 -0.59999985844 1.5 0 
-0.54999985769 1.4499999993 0 -0.54999985769 1.5 0 -0.49999985695 1.4499999993 0 
-0.49999985695 1.5 0 -0.4499998562 1.4499999993 0 -0.4499998562 1.5 0 
-0.39999985546 1.4499999993 0 -0.39999985546 1.5 0 -0.34999985471 1.4499999993 0 
-0.34999985471 1.5 0 -0.29999985397 1.4499999993 0 -0.29999985397 1.5 0 
-0.24999985322 1.4499999993 0 -0.24999985322 1.5 0 -0.191663057 1.4499999993 0 
-0.17548248559 1.5 0 0.18862900414 1.4499999993 0 0.25000015423 1.4499999993 0 
[...]
CELL_DATA 9510
FIELD FieldData 4
Water_Depth_m 1 9510 float
0.479986 0.479961 0.479937 0.479913 0.479889 0.479866 0.479844 0.479822 0.479802 
0.479784 0.479766 0.479751 0.479738 0.479726 0.479717 0.47971 0.479705 0.479703 
0.479704 0.479707 0.479712 0.47972 0.479731 0.479744 0.479759 0.479777 0.479796 
0.479818 0.479842 0.479868 0.479895 0.479924 0.479954 0.479986 0.480018 0.480051 
0.480085 0.480119 0.480153 0.480187 0.48022 0.480253 0.480285 0.480316 0.480345 
0.480373 0.480398 0.480421 0.480442 0.48046 0.480475 0.480487 0.480495 0.480499 
0.4805 0.480497 0.48049 0.480479 0.480464 0.480445 0.480421 0.480394 0.480362 
0.480326 0.480286 0.480243 0.480196 0.480146 0.480093 0.480038 0.479981 0.479922 
0.479862 0.479802 0.479742 0.479682 0.479624 0.479569 0.479516 0.479467 0.479422 
0.479383 0.479349 0.479321 0.479301 0.479288 0.479283 0.479286 0.479297 0.479317 
0.479346 0.479382 0.479426 0.479478 0.479537 0.479602 0.479673 0.479749 0.479829 
0.479912 0.479998 0.480085 0.480174 0.480262 0.480349 0.480435 0.480518 0.480599 
0.480676 0.480749 0.480817 0.48088 0.480938 0.480991 0.481037 0.481078 0.481112 
0.481141 0.481163 0.48118 0.481191 0.481196 0.481196 0.481191 0.481182 0.481168 
0.481151 0.48113 0.481107 0.481081 0.481054 0.481025 0.480996 0.480966 0.480937 
0.480909 0.480882 0.480856 0.480833 0.480812 0.480793 0.480777 0.480763 0.480752 
0.480743 0.480736 0.480731 0.480728 0.480726 0.480725 0.480724 0.480724 0.480723 
0.480722 0.480721 0.480719 0.480717 0.480714 0.48071 0.480706 0.480702 0.480697 
0.480692 0.480688 0.480684 0.48068 0.480677 0.480675 0.480674 0.480675 0.480677 
0.480682 0.480688 0.480696 0.480707 0.480721 0.480739 0.48076 0.480785 0.480815 
0.48085 0.480891 0.48094 0.480996 0.481061 0.481137 0.481224 0.481323 0.481437 
0.481566 0.481712 0.481876 0.482059 0.482263 0.482484 0.482652 0.482916 0.483193 
0.486822 0.487219 0.487545 0.487844 0.488117 0.488364 0.488588 0.488789 0.48897 
0.489133 0.489278 0.489409 0.489525 0.489629 0.489723 0.489806 0.489881 0.489948 
0.490009 0.490063 0.490112 0.490156 0.490196 0.490233 0.490266 0.490296 0.490323 
0.490348 0.490371 0.490392 0.490411 0.490429 0.490446 0.490461 0.490475 0.490488 
0.490501 0.490512 0.490523 0.490533 0.490543 0.490552 0.490561 0.490569 0.490577 
0.490584 0.490592 0.490599 0.490605 0.490612 0.490618 0.490624 0.49063 0.490636 
0.490641 0.490647 0.490652 0.490657 0.490662 0.490667 0.490672 0.490677 0.490682 
0.490687 0.490691 0.490696 0.4907 0.490705 0.490709 0.490714 0.490718 0.490723 
0.490727 0.490731 0.490735 0.490739 0.490744 0.490748 0.490752 0.490756 0.49076 
0.490764 0.490768 0.490772 0.490776 0.490779 0.490783 0.490787 0.490791 0.490795 
0.490799 0.490802 0.490806 0.49081 0.490739 0.490727 0.485283 0.479987 0.479962 
0.479938 0.479914 0.47989 0.479867 0.479844 0.479823 0.479802 0.479783 0.479766 
0.47975 0.479737 0.479725 0.479715 0.479708 0.479703 0.479701 0.479701 0.479704 
0.47971 0.479718 0.479728 0.479741 0.479756 0.479774 0.479794 0.479816 0.47984 
0.479865 0.479893 0.479922 0.479952 0.479984 0.480016 0.480049 0.480083 0.480117 
0.480152 0.480186 0.48022 0.480253 0.480285 0.480316 0.480346 0.480374 0.4804 
0.480423 0.480445 0.480463 0.480478 0.48049 0.480499 0.480504 0.480505 0.480502 
0.480496 0.480485 0.48047 0.480451 0.480427 0.4804 0.480368 0.480332 0.480292 
0.480249 0.480202 0.480152 0.480099 0.480043 0.479985 0.479926 0.479866 0.479805 
0.479744 0.479684 0.479625 0.479569 0.479515 0.479465 0.47942 0.47938 0.479345 
0.479317 0.479296 0.479282 0.479276 0.479279 0.47929 0.479309 0.479337 0.479374 
0.479418 0.47947 0.479528 0.479594 0.479665 0.479741 0.479822 0.479905 0.479992 
0.48008 0.480168 0.480257 0.480345 0.480431 0.480515 0.480597 0.480674 0.480748 
0.480817 0.480881 0.480939 0.480993 0.48104 0.481081 0.481116 0.481145 0.481167 
0.481184 0.481195 0.481201 0.481201 0.481196 0.481186 0.481173 0.481155 0.481134 
0.48111 0.481084 0.481057 0.481027 0.480998 0.480968 0.480938 0.480909 0.480882 
0.480856 0.480832 0.48081 0.480791 0.480775 0.480761 0.48075 0.480742 0.480735 
0.480731 0.480728 0.480726 0.480725 0.480724 0.480724 0.480724 0.480723 0.480722 
0.480721 0.480718 0.480715 0.480712 0.480707 0.480703 0.480698 0.480693 0.480688 
0.480684 0.48068 0.480677 0.480675 0.480674 0.480674 0.480676 0.48068 0.480686 
0.480694 0.480705 0.480719 0.480735 0.480756 0.48078 0.480809 0.480844 0.480884 
0.480931 0.480986 0.48105 0.481124 0.481209 0.481306 0.481418 0.481545 0.481689 
0.48185 0.482032 0.482227 0.482444 0.482679 0.482999 0.483493 0.486815 0.487216 
0.487545 0.487846 0.488121 0.488369 0.488594 0.488796 0.488977 0.489139 0.489284 
0.489414 0.489531 0.489634 0.489727 0.48981 0.489885 0.489952 0.490012 0.490066 
0.490115 0.490159 0.490198 0.490235 0.490267 0.490297 0.490324 0.490349 0.490372 
0.490393 0.490412 0.49043 0.490446 0.490462 0.490476 0.490489 0.490501 0.490513 
0.490524 0.490534 0.490543 0.490552 0.490561 0.490569 0.490577 0.490585 0.490592 
0.490599 0.490605 0.490612 0.490618 0.490624 0.49063 0.490636 0.490641 0.490647 
0.490652 0.490657 0.490662 0.490667 0.490672 0.490677 0.490682 0.490687 0.490691 
0.490696 0.490701 0.490705 0.490709 0.490714 0.490718 0.490723 0.490727 0.490731 
0.490735 0.490739 0.490744 0.490748 0.490752 0.490756 0.49076 0.490764 0.490768 
0.490772 0.490776 0.490779 0.490783 0.490787 0.490791 0.490795 0.490799 0.490802 
0.490806 0.49081 0.490739 0.490727 0.485283 0.479986 0.479962 0.479937 0.479912 
0.479888 0.479865 0.479842 0.47982 0.479799 0.47978 0.479762 0.479746 0.479732 
0.479721 0.479711 0.479704 0.479699 0.479696 0.479697 0.479699 0.479705 0.479713 
0.479723 0.479736 0.479752 0.47977 0.47979 0.479812 0.479836 0.479862 0.47989 
0.479919 0.47995 0.479981 0.480014 0.480048 0.480082 0.480117 0.480152 0.480186 
0.480221 0.480254 0.480287 0.480319 0.480349 0.480378 0.480404 0.480428 0.48045 
0.480469 0.480485 0.480497 0.480506 0.480511 0.480513 0.48051 0.480504 0.480493 
0.480478 0.480458 0.480435 0.480407 0.480374 0.480338 0.480298 0.480254 0.480206 
0.480155 0.480101 0.480044 0.479985 0.479925 0.479863 0.479801 0.479739 0.479678 
0.479618 0.47956 0.479505 0.479454 0.479408 0.479366 0.479331 0.479302 0.47928 
0.479266 0.47926 0.479262 0.479273 0.479293 0.479322 0.479358 0.479403 0.479456 
0.479516 0.479582 0.479655 0.479732 0.479814 0.479899 0.479986 0.480076 0.480166 
0.480256 0.480345 0.480433 0.480518 0.480601 0.480679 0.480754 0.480824 0.480889 
0.480949 0.481002 0.48105 0.481092 0.481127 0.481156 0.481179 0.481195 0.481206 
0.481211 0.48121 0.481205 0.481194 0.48118 0.481161 0.48114 0.481115 0.481088 
0.481059 0.481029 0.480998 0.480967 0.480936 0.480906 0.480878 0.480851 0.480827 
0.480805 0.480786 0.48077 0.480756 0.480746 0.480738 0.480732 0.480728 0.480725 
0.480724 0.480724 0.480724 0.480724 0.480725 0.480724 0.480723 0.480722 0.480719 
0.480716 0.480713 0.480708 0.480703 0.480698 0.480693 0.480688 0.480683 0.480679 
0.480675 0.480673 0.480671 0.480671 0.480673 0.480676 0.480682 0.48069 0.4807 
0.480713 0.480729 0.480748 0.480771 0.480799 0.480832 0.480871 0.480916 0.480969 
0.48103 0.481101 0.481184 0.481278 0.481386 0.48151 0.481651 0.48181 0.481989 
0.48219 0.482402 0.482655 0.482965 0.483324 0.486823 0.48723 0.487563 0.487867 
0.488144 0.488393 0.488618 0.488819 0.489 0.489161 0.489305 0.489433 0.489548 
0.48965 0.489742 0.489823 0.489897 0.489962 0.490021 0.490075 0.490122 0.490166 
0.490205 0.49024 0.490273 0.490302 0.490329 0.490353 0.490376 0.490396 0.490415 
0.490433 0.490449 0.490464 0.490478 0.490491 0.490503 0.490514 0.490525 0.490535 
0.490544 0.490553 0.490562 0.49057 0.490578 0.490585 0.490592 0.490599 0.490606 
0.490612 0.490618 0.490624 0.49063 0.490636 0.490641 0.490647 0.490652 0.490657 
0.490662 0.490667 0.490672 0.490677 0.490682 0.490687 0.490691 0.490696 0.490701 
0.490705 0.490709 0.490714 0.490718 0.490723 0.490727 0.490731 0.490735 0.490739 
0.490744 0.490748 0.490752 0.490756 0.49076 0.490764 0.490768 0.490772 0.490776 
0.49078 0.490783 0.490787 0.490791 0.490795 0.490799 0.490802 0.490806 0.49081 
0.490739 0.490727 0.485283 0.479986 0.479961 0.479935 0.47991 0.479886 0.479862 
0.479838 0.479816 0.479795 0.479775 0.479757 0.479741 0.479726 0.479714 0.479704 
0.479697 0.479692 0.479689 0.479689 0.479692 0.479698 0.479706 0.479716 0.47973 
0.479745 0.479763 0.479784 0.479806 0.479831 0.479857 0.479885 0.479915 0.479946 
0.479978 0.480012 0.480046 0.480081 0.480116 0.480152 0.480187 0.480222 0.480257 
0.48029 0.480323 0.480354 0.480383 0.480411 0.480436 0.480458 0.480477 0.480494 
0.480507 0.480516 0.480522 0.480524 0.480521 0.480515 0.480504 0.480489 0.48047 
0.480445 0.480417 0.480384 0.480347 0.480306 0.480261 0.480212 0.480159 0.480104 
0.480046 0.479985 0.479923 0.47986 0.479796 0.479732 0.479669 0.479607 0.479547 
0.479491 0.479438 0.47939 0.479347 0.47931 0.47928 0.479257 0.479242 0.479235 
0.479238 0.479249 0.479269 0.479298 0.479335 0.479381 0.479435 0.479497 0.479565 
0.479639 0.479718 0.479802 0.479889 0.479979 0.48007 0.480162 0.480254 0.480346 
0.480435 0.480522 0.480607 0.480687 0.480763 0.480835 0.480901 0.480962 0.481017 
0.481065 0.481108 0.481143 0.481173 0.481195 0.481212 0.481222 0.481226 0.481225 
0.481218 0.481207 0.481191 0.481171 0.481148 0.481121 0.481093 0.481062 0.48103 
0.480998 0.480965 0.480933 0.480902 0.480872 0.480845 0.48082 0.480797 0.480778 
0.480762 0.480749 0.480739 0.480731 0.480726 0.480723 0.480722 0.480722 0.480723 
0.480724 0.480725 0.480726 0.480726 0.480725 0.480724 0.480721 0.480718 0.480714 
0.480709 0.480704 0.480698 0.480692 0.480687 0.480681 0.480676 0.480672 0.480669 
0.480667 0.480667 0.480668 0.480671 0.480675 0.480682 0.480692 0.480704 0.480718 
0.480736 0.480758 0.480784 0.480815 0.480851 0.480894 0.480943 0.481001 0.481068 
0.481146 0.481236 0.481339 0.481458 0.481594 0.481748 0.481924 0.482124 0.482336 
0.482594 0.482872 0.483171 0.486835 0.487251 0.487591 0.4879 0.488179 0.48843 
0.488654 0.488855 0.489034 0.489193 0.489335 0.489461 0.489574 0.489674 0.489763 
0.489843 0.489914 0.489978 0.490036 0.490088 0.490134 0.490176 0.490214 0.490249 
0.49028 0.490309 0.490335 0.490359 0.490381 0.490401 0.490419 0.490436 0.490452 
0.490467 0.49048 0.490493 0.490505 0.490516 0.490526 0.490536 0.490546 0.490555 
0.490563 0.490571 0.490579 0.490586 0.490593 0.4906 0.490606 0.490613 0.490619 
0.490625 0.490631 0.490636 0.490642 0.490647 0.490652 0.490658 0.490663 0.490668 
0.490673 0.490677 0.490682 0.490687 0.490692 0.490696 0.490701 0.490705 0.49071 
0.490714 0.490718 0.490723 0.490727 0.490731 0.490735 0.490739 0.490744 0.490748 
0.490752 0.490756 0.49076 0.490764 0.490768 0.490772 0.490776 0.49078 0.490783 
0.490787 0.490791 0.490795 0.490799 0.490802 0.490806 0.49081 0.490739 0.490727 
0.485283 0.479985 0.479959 0.479934 0.479908 0.479883 0.479858 0.479834 0.479811 
0.479789 0.479769 0.47975 0.479733 0.479718 0.479705 0.479695 0.479687 0.479682 
0.479679 0.47968 0.479683 0.479688 0.479696 0.479707 0.479721 0.479737 0.479755 
0.479776 0.479799 0.479824 0.47985 0.479879 0.479909 0.479941 0.479974 0.480008 
0.480043 0.480079 0.480115 0.480151 0.480188 0.480224 0.48026 0.480294 0.480328 
0.48036 0.48039 0.480419 0.480445 0.480468 0.480489 0.480506 0.48052 0.48053 
0.480536 0.480538 0.480536 0.48053 0.480519 0.480504 0.480484 0.48046 0.48043 
0.480397 0.480359 0.480316 0.48027 0.480219 0.480165 0.480108 0.480048 0.479985 
0.479921 0.479855 0.479789 0.479722 0.479657 0.479592 0.47953 0.479471 0.479416 
0.479365 0.47932 0.479282 0.47925 0.479226 0.47921 0.479203 0.479205 0.479216 
0.479237 0.479266 0.479305 0.479352 0.479408 0.479472 0.479542 0.479619 0.479701 
0.479787 0.479877 0.479969 0.480063 0.480158 0.480253 0.480346 0.480439 0.480528 
0.480615 0.480698 0.480776 0.48085 0.480918 0.48098 0.481036 0.481086 0.481129 
0.481165 0.481195 0.481218 0.481234 0.481243 0.481247 0.481244 0.481236 0.481223 
0.481206 0.481184 0.481158 0.48113 0.481099 0.481066 0.481032 0.480997 0.480963 
0.480928 0.480896 0.480864 0.480836 0.48081 0.480787 0.480767 0.480751 0.480738 
0.480729 0.480722 0.480719 0.480717 0.480717 0.480719 0.480721 0.480723 0.480726 
0.480727 0.480728 0.480728 0.480727 0.480724 0.480721 0.480716 0.480711 0.480705 
0.480698 0.480692 0.480685 0.480679 0.480673 0.480668 0.480665 0.480662 0.480661 
0.480661 0.480663 0.480667 0.480673 0.480681 0.480692 0.480705 0.480722 0.480741 
0.480765 0.480793 0.480826 0.480865 0.48091 0.480963 0.481025 0.481097 0.481181 
0.481277 0.481389 0.481517 0.481665 0.481835 0.48203 0.482239 0.482493 0.482749 
0.483008 0.486852 0.487281 0.48763 0.487945 0.488228 0.48848 0.488704 0.488903 
0.48908 0.489237 0.489375 0.489499 0.489608 0.489705 0.489792 0.489869 0.489938 
0.49 0.490055 0.490105 0.49015 0.49019 0.490227 0.49026 0.49029 0.490318 
0.490343 0.490366 0.490387 0.490407 0.490425 0.490441 0.490456 0.490471 0.490484 
0.490496 0.490508 0.490519 0.490529 0.490538 0.490548 0.490556 0.490564 0.490572 
0.49058 0.490587 0.490594 0.490601 0.490607 0.490613 0.490619 0.490625 0.490631 
0.490637 0.490642 0.490648 0.490653 0.490658 0.490663 0.490668 0.490673 0.490678 
0.490682 0.490687 0.490692 0.490696 0.490701 0.490705 0.49071 0.490714 0.490718 
0.490723 0.490727 0.490731 0.490735 0.49074 0.490744 0.490748 0.490752 0.490756 
0.49076 0.490764 0.490768 0.490772 0.490776 0.49078 0.490783 0.490787 0.490791 
0.490795 0.490799 0.490802 0.490806 0.49081 0.490739 0.490727 0.485283 0.479985 
0.479958 0.479932 0.479905 0.479879 0.479853 0.479828 0.479804 0.479782 0.479761 
0.479741 0.479724 0.479708 0.479695 0.479684 0.479676 0.47967 0.479668 0.479668 
0.479671 0.479676 0.479685 0.479696 0.47971 0.479726 0.479745 0.479766 0.47979 
0.479815 0.479843 0.479872 0.479903 0.479935 0.479969 0.480004 0.48004 0.480076 
0.480114 0.480151 0.480189 0.480226 0.480263 0.480299 0.480334 0.480367 0.480399 
0.480429 0.480456 0.480481 0.480503 0.480521 0.480536 0.480547 0.480553 0.480556 
0.480555 0.480549 0.480538 0.480522 0.480502 0.480477 0.480447 0.480412 0.480373 
0.480329 0.480281 0.480229 0.480172 0.480113 0.48005 0.479985 0.479918 0.479849 
0.47978 0.47971 0.479642 0.479574 0.479509 0.479447 0.479389 0.479335 0.479288 
0.479247 0.479213 0.479188 0.479171 0.479163 0.479164 0.479176 0.479197 0.479228 
0.479268 0.479317 0.479375 0.479442 0.479515 0.479595 0.47968 0.47977 0.479863 
0.479958 0.480056 0.480154 0.480251 0.480348 0.480443 0.480536 0.480625 0.480711 
0.480792 0.480868 0.480938 0.481002 0.48106 0.481111 0.481155 0.481193 0.481222 
0.481245 0.481261 0.48127 0.481272 0.481268 0.481258 0.481243 0.481223 0.481199 
0.481172 0.48114 0.481107 0.481071 0.481034 0.480997 0.480959 0.480923 0.480887 
0.480854 0.480824 0.480797 0.480773 0.480753 0.480737 0.480725 0.480716 0.480711 
0.480709 0.48071 0.480712 0.480715 0.480719 0.480723 0.480727 0.48073 0.480731 
0.480732 0.480731 0.480728 0.480724 0.480719 0.480713 0.480706 0.480699 0.480691 
0.480684 0.480676 0.48067 0.480664 0.480659 0.480655 0.480653 0.480653 0.480654 
0.480657 0.480661 0.480668 0.480678 0.480689 0.480704 0.480721 0.480742 0.480767 
0.480796 0.48083 0.48087 0.480918 0.480973 0.481038 0.481113 0.481201 0.481303 
0.481422 0.48156 0.48172 0.481907 0.48211 0.482356 0.482598 0.48283 0.486874 
0.487321 0.487682 0.488004 0.488291 0.488544 0.488768 0.488965 0.489138 0.489291 
0.489426 0.489545 0.489651 0.489744 0.489827 0.489901 0.489967 0.490026 0.490078 
0.490126 0.490169 0.490207 0.490242 0.490274 0.490303 0.490329 0.490353 0.490375 
0.490395 0.490414 0.490431 0.490447 0.490462 0.490475 0.490488 0.4905 0.490511 
0.490522 0.490532 0.490541 0.49055 0.490558 0.490566 0.490574 0.490581 0.490588 
0.490595 0.490602 0.490608 0.490614 0.49062 0.490626 0.490632 0.490637 0.490643 
0.490648 0.490653 0.490658 0.490663 0.490668 0.490673 0.490678 0.490683 0.490687 
0.490692 0.490696 0.490701 0.490705 0.49071 0.490714 0.490718 0.490723 0.490727 
0.490731 0.490735 0.49074 0.490744 0.490748 0.490752 0.490756 0.49076 0.490764 
0.490768 0.490772 0.490776 0.49078 0.490783 0.490787 0.490791 0.490795 0.490799 
0.490802 0.490806 0.49081 0.490739 0.490727 0.485283 0.479984 0.479957 0.479929 
0.479902 0.479874 0.479848 0.479822 0.479797 0.479773 0.479751 0.479731 0.479712 
0.479696 0.479682 0.479671 0.479663 0.479657 0.479654 0.479654 0.479657 0.479663 
0.479672 0.479683 0.479697 0.479714 0.479733 0.479755 0.479779 0.479805 0.479833 
0.479863 0.479895 0.479928 0.479963 0.479999 0.480036 0.480073 0.480112 0.48015 
0.480189 0.480228 0.480266 0.480304 0.48034 0.480376 0.480409 0.48044 0.480469 
0.480495 0.480518 0.480538 0.480554 0.480566 0.480574 0.480577 0.480576 0.48057 
0.480559 0.480544 0.480523 0.480497 0.480466 0.48043 0.48039 0.480344 0.480294 
0.480239 0.480181 0.480119 0.480053 0.479985 0.479914 0.479842 0.479769 0.479696 
0.479624 0.479553 0.479484 0.479418 0.479356 0.4793 0.479249 0.479206 0.47917 
0.479142 0.479124 0.479115 0.479117 0.479129 0.479151 0.479183 0.479225 0.479277 
0.479338 0.479408 0.479485 0.479568 0.479657 0.479751 0.479848 0.479947 0.480048 
0.48015 0.480251 0.480351 0.48045 0.480545 0.480638 0.480727 0.480811 0.480889 
0.480962 0.481029 0.481088 0.481141 0.481186 0.481224 0.481254 0.481277 0.481292 
0.481301 0.481302 0.481296 0.481284 0.481267 0.481244 0.481217 0.481187 0.481152 
0.481115 0.481076 0.481036 0.480995 0.480955 0.480915 0.480877 0.480841 0.480809 
0.48078 0.480755 0.480735 0.480719 0.480708 0.480701 0.480698 0.480698 0.4807 
0.480705 0.480711 0.480717 0.480723 0.480729 0.480733 0.480736 0.480737 0.480736 
0.480733 0.480729 0.480723 0.480716 0.480708 0.480699 0.48069 0.480682 0.480673 
0.480665 0.480658 0.480652 0.480647 0.480644 0.480643 0.480643 0.480645 0.480648 
0.480654 0.480661 0.480671 0.480683 0.480698 0.480716 0.480737 0.480761 0.48079 
0.480825 0.480865 0.480913 0.480969 0.481035 0.481112 0.481202 0.481309 0.481434 
0.48158 0.481754 0.481946 0.482181 0.482411 0.482636 0.486903 0.487374 0.487749 
0.48808 0.488371 0.488625 0.488847 0.48904 0.489209 0.489357 0.489487 0.489601 
0.489701 0.48979 0.489869 0.489938 0.490001 0.490056 0.490106 0.490151 0.490191 
0.490228 0.490261 0.49029 0.490318 0.490342 0.490365 0.490386 0.490405 0.490423 
0.490439 0.490454 0.490468 0.490481 0.490493 0.490505 0.490515 0.490525 0.490535 
0.490544 0.490553 0.490561 0.490568 0.490576 0.490583 0.49059 0.490597 0.490603 
0.490609 0.490615 0.490621 0.490627 0.490633 0.490638 0.490643 0.490649 0.490654 
0.490659 0.490664 0.490669 0.490673 0.490678 0.490683 0.490687 0.490692 0.490697 
0.490701 0.490706 0.49071 0.490714 0.490719 0.490723 0.490727 0.490731 0.490736 
0.49074 0.490744 0.490748 0.490752 0.490756 0.49076 0.490764 0.490768 0.490772 
0.490776 0.49078 0.490783 0.490787 0.490791 0.490795 0.490799 0.490802 0.490806 
0.49081 0.490739 0.490727 0.485283 0.479984 0.479955 0.479926 0.479898 0.479869 
0.479842 0.479815 0.479789 0.479764 0.479741 0.479719 0.4797 0.479683 0.479668 
0.479656 0.479647 0.479641 0.479638 0.479638 0.479641 0.479648 0.479657 0.479668 
0.479683 0.4797 0.47972 0.479743 0.479767 0.479794 0.479823 0.479854 0.479886 
0.47992 0.479956 0.479993 0.480031 0.48007 0.480109 0.48015 0.48019 0.48023 
0.48027 0.480309 0.480348 0.480385 0.48042 0.480453 0.480484 0.480511 0.480536 
0.480557 0.480574 0.480587 0.480596 0.4806 0.4806 0.480594 0.480583 0.480568 
0.480546 0.48052 0.480488 0.480451 0.480408 0.480361 0.480308 0.480251 0.48019 
0.480125 0.480056 0.479984 0.47991 0.479834 0.479757 0.47968 0.479603 0.479528 
0.479455 0.479385 0.47932 0.47926 0.479206 0.479159 0.479121 0.479091 0.479072 
0.479062 0.479064 0.479076 0.479099 0.479133 0.479178 0.479233 0.479297 0.479371 
0.479452 0.47954 0.479634 0.479731 0.479833 0.479936 0.480041 0.480147 0.480252 
0.480356 0.480458 0.480557 0.480653 0.480745 0.480832 0.480914 0.480989 0.481058 
0.48112 0.481174 0.481221 0.48126 0.48129 0.481313 0.481328 0.481335 0.481334 
0.481327 0.481312 0.481293 0.481267 0.481237 0.481203 0.481165 0.481125 0.481082 
0.481038 0.480993 0.480948 0.480905 0.480864 0.480825 0.480791 0.48076 0.480734 