# vtk DataFile Version 5.1
vtk output
ASCII
DATASET UNSTRUCTURED_GRID
POINTS 4929 double
0.1016 1.5 0.27799999714 0.1016 1.45 0.27799999714 0.1016 1.4 0.27700001001 
0.1016 1.35 0.27399998903 0.1016 1.3 0.27399998903 0.1016 1.25 0.27300000191 
0.1016 1.2 0.27200001478 0.1016 1.15 0.27099999785 0.1016 1.1 0.25 
0.1016 1.05 0.2349999994 0.1016 1 0.23299999535 0.1016 0.95 0.22200000286 
0.1016 0.9 0.19799999893 0.1016 0.85 0.18400000036 0.1016 0.8 0.18500000238 
0.1016 0.75 0.2045122683 0.1016 0.7 0.21481634676 0.1016 0.65 0.22511811554 
0.1016 0.6 0.24067126215 0.1016 0.55 0.25612765551 0.1016 0.5 0.26262491941 
0.1016 0.45 0.26525467634 0.1016 0.4 0.26647254825 0.1016 0.35 0.26672193408 
0.1016 0.3 0.26778841019 0.1016 0.25 0.27249374986 0.1016 0.2 0.28212246299 
0.1016 0.15 0.28919026256 0.1016 0.1 0.29249885678 0.1016 0.05 0.2947755754 
0.1016 0 0.29728108644 5.08 1.5 0.28700000048 5.08 1.45 0.28700000048 
5.08 1.4 0.28700000048 5.08 1.35 0.28700000048 5.08 1.3 0.28700000048 
5.08 1.25 0.28700000048 5.08 1.2 0.28700000048 5.08 1.15 0.28700000048 
5.08 1.1 0.28700000048 5.08 1.05 0.28700000048 5.08 1 0.28700000048 
5.08 0.95 0.28700000048 5.08 0.9 0.28700000048 5.08 0.85 0.28700000048 
5.08 0.8 0.28700000048 5.08 0.75 0.28700000048 5.08 0.7 0.28700000048 
5.08 0.65 0.28700000048 5.08 0.6 0.28700000048 5.08 0.55 0.28700000048 
5.08 0.5 0.28700000048 5.08 0.45 0.28700000048 5.08 0.4 0.28700000048 
5.08 0.35 0.28700000048 5.08 0.3 0.28700000048 5.08 0.25 0.28700000048 
5.08 0.2 0.28700000048 5.08 0.15 0.28700000048 5.08 0.1 0.28700000048 
5.08 0.05 0.28700000048 5.08 0 0.28700000048 0.12737462728 1.5 0.27801474929 
0.12737462728 1.45 0.27898526192 0.12737462728 1.4 0.27897050977 0.12737462728 1.35 0.27500000596 
0.12737462728 1.3 0.27498525381 0.12737462728 1.25 0.27398523688 0.12737462728 1.2 0.27298524976 
0.12737462728 1.15 0.27297049761 0.12737462728 1.1 0.26198524237 0.12737462728 1.05 0.23895575106 
0.12737462728 1 0.2289557606 0.12737462728 0.95 0.22805899382 0.12737462728 0.9 0.20811799169 
0.12737462728 0.85 0.19011798501 0.12737462728 0.8 0.1780589968 0.12737462728 0.75 0.20154264569 
0.12737462728 0.7 0.21199989319 0.12737462728 0.65 0.22436758876 0.12737462728 0.6 0.24224902689 
0.12737462728 0.55 0.26024734974 0.12737462728 0.5 0.26429289579 0.12737462728 0.45 0.26648533344 
0.12737462728 0.4 0.26795491576 0.12737462728 0.35 0.26830780506 0.12737462728 0.3 0.26907774806 
0.12737462728 0.25 0.27257058024 0.12737462728 0.2 0.28277847171 0.12737462728 0.15 0.28806254268 
0.12737462728 0.1 0.28930640221 0.12737462728 0.05 0.29057556391 0.12737462728 0 0.2923451364 
0.15441581276 1.5 0.27900001407 0.15441581276 1.45 0.27799999714 0.15441581276 1.4 0.27700001001 
0.15441581276 1.35 0.27492064238 0.15441581276 1.3 0.27392062545 0.15441581276 1.25 0.27292063832 
0.15441581276 1.2 0.27200001478 0.15441581276 1.15 0.27099999785 0.15441581276 1.1 0.26171427965 
0.15441581276 1.05 0.23703171313 0.15441581276 1 0.22607935965 0.15441581276 0.95 0.23144444823 
0.15441581276 0.9 0.21671426296 0.15441581276 0.85 0.19950789213 0.15441581276 0.8 0.18334916234 
0.15441581276 0.75 0.20755554736 0.15441581276 0.7 0.2158729881 0.15441581276 0.65 0.23111107945 
0.15441581276 0.6 0.24895234406 0.15441581276 0.55 0.26623809338 0.15441581276 0.5 0.26615872979 
0.15441581276 0.45 0.26807937026 0.15441581276 0.4 0.2701587379 0.15441581276 0.35 0.27123808861 
0.15441581276 0.3 0.27231746912 0.15441581276 0.25 0.27439680696 0.15441581276 0.2 0.28276190162 
0.15441581276 0.15 0.28568255901 0.15441581276 0.1 0.28568255901 0.15441581276 0.05 0.28792062402 
0.15441581276 0 0.28884127736 0.18278579477 1.5 0.27919629216 0.18278579477 1.45 0.27819630504 
0.18278579477 1.4 0.27680370212 0.18278579477 1.35 0.27439257503 0.18278579477 1.3 0.27300000191 
0.18278579477 1.25 0.27200001478 0.18278579477 1.2 0.27180370688 0.18278579477 1.15 0.27080371976 
0.18278579477 1.1 0.27000001073 0.18278579477 1.05 0.25155177712 0.18278579477 1 0.22994436324 
0.18278579477 0.95 0.22637403011 0.18278579477 0.9 0.22657032311 0.18278579477 0.85 0.21935549378 
0.18278579477 0.8 0.20390728116 0.18278579477 0.75 0.21694436669 0.18278579477 0.7 0.22796291113 
0.18278579477 0.65 0.24655178189 0.18278579477 0.6 0.26137402654 0.18278579477 0.55 0.26860740781 
0.18278579477 0.5 0.26780369878 0.18278579477 0.45 0.26880371571 0.18278579477 0.4 0.27180370688 
0.18278579477 0.35 0.27301853895 0.18278579477 0.3 0.27580371499 0.18278579477 0.25 0.27841114998 
0.18278579477 0.2 0.27921482921 0.18278579477 0.15 0.28121483326 0.18278579477 0.1 0.28121483326 
0.18278579477 0.05 0.28523337841 0.18278579477 0 0.28523337841 0.21254987001 1.5 0.27963191271 
0.21254987001 1.45 0.27863189578 0.21254987001 1.4 0.27636811137 0.21254987001 1.35 0.27526378632 
0.21254987001 1.3 0.27300000191 0.21254987001 1.25 0.2716318965 0.21254987001 1.2 0.27063190937 
0.21254987001 1.15 0.27000001073 0.21254987001 1.1 0.26963189244 0.21254987001 1.05 0.26457673311 
0.21254987001 1 0.24604915082 0.21254987001 0.95 0.23641726375 0.21254987001 0.9 0.23631294072 
0.21254987001 0.85 0.23415347934 0.21254987001 0.8 0.23099400103 0.21254987001 0.75 0.23415347934 
0.21254987001 0.7 0.24262589216 0.21254987001 0.65 0.25957673788 0.21254987001 0.6 0.26626378298 
0.21254987001 0.55 0.26626378298 0.21254987001 0.5 0.26663190126 0.21254987001 0.45 0.26726379991 
0.21254987001 0.4 0.2698956728 0.21254987001 0.35 0.26863190532 0.21254987001 0.3 0.2738956809 
0.21254987001 0.25 0.2756319046 0.21254987001 0.2 0.27599999309 0.21254987001 0.15 0.2765275836 
0.21254987001 0.1 0.27726379037 0.21254987001 0.05 0.27799999714 0.21254987001 0 0.27799999714 
0.24377654385 1.5 0.27959752083 0.24377654385 1.45 0.2785975039 0.24377654385 1.4 0.27700001001 
0.24377654385 1.35 0.27459749579 0.24377654385 1.3 0.27240249515 0.24377654385 1.25 0.27099999785 
0.24377654385 1.2 0.27000001073 0.24377654385 1.15 0.27000001073 0.24377654385 1.1 0.2689999938 
0.24377654385 1.05 0.26840248704 0.24377654385 1 0.26315754652 0.24377654385 0.95 0.25057250261 
0.24377654385 0.9 0.24917002022 0.24377654385 0.85 0.25017002225 0.24377654385 0.8 0.25017002225 
0.24377654385 0.75 0.25017002225 0.24377654385 0.7 0.25758501887 0.24377654385 0.65 0.26459750533 
0.24377654385 0.6 0.26559749246 0.24377654385 0.55 0.26559749246 0.24377654385 0.5 0.26600000262 
0.24377654385 0.45 0.26600000262 0.24377654385 0.4 0.26680499315 0.24377654385 0.35 0.26740249991 
0.24377654385 0.3 0.27080500126 0.24377654385 0.25 0.2744024992 0.24377654385 0.2 0.2742075026 
0.24377654385 0.15 0.27280500531 0.24377654385 0.1 0.27480497956 0.24377654385 0.05 0.27799999714 
0.24377654385 0 0.27740249038 0.27653768798 1.5 0.27951970696 0.27653768798 1.45 0.27766144276 
0.27653768798 1.4 0.27632516623 0.27653768798 1.35 0.27434617281 0.27653768798 1.3 0.27151226997 
0.27653768798 1.25 0.27057635784 0.27653768798 1.2 0.27017450333 0.27653768798 1.15 0.26976296306 
0.27653768798 1.1 0.26917654276 0.27653768798 1.05 0.26909166574 0.27653768798 1 0.27230325341 
0.27653768798 0.95 0.26372772455 0.27653768798 0.9 0.26188760996 0.27653768798 0.85 0.26249715686 
0.27653768798 0.8 0.26325139403 0.27653768798 0.75 0.26280260086 0.27653768798 0.7 0.26412513852 
0.27653768798 0.65 0.26631101966 0.27653768798 0.6 0.26695275307 0.27653768798 0.55 0.26654168963 
0.27653768798 0.5 0.2661152482 0.27653768798 0.45 0.26604652405 0.27653768798 0.4 0.26536557078 
0.27653768798 0.35 0.26594156027 0.27653768798 0.3 0.26814585924 0.27653768798 0.25 0.27168768644 
0.27653768798 0.2 0.27182483673 0.27653768798 0.15 0.27171477675 0.27653768798 0.1 0.27376148105 
0.27653768798 0.05 0.27669000626 0.27653768798 0 0.27560165524 0.31090870586 1.5 0.27759221196 
0.31090870586 1.45 0.2746937871 0.31090870586 1.4 0.27470353246 0.31090870586 1.35 0.27285271883 
0.31090870586 1.3 0.2709813416 0.31090870586 1.25 0.26998981833 0.31090870586 1.2 0.26973265409 
0.31090870586 1.15 0.2687163353 0.31090870586 1.1 0.26859664917 0.31090870586 1.05 0.26857084036 
0.31090870586 1 0.26943641901 0.31090870586 0.95 0.27017256618 0.31090870586 0.9 0.26825106144 
0.31090870586 0.85 0.26820024848 0.31090870586 0.8 0.27020555735 0.31090870586 0.75 0.26922234893 
0.31090870586 0.7 0.26827013493 0.31090870586 0.65 0.26820924878 0.31090870586 0.6 0.26819002628 
0.31090870586 0.55 0.2671585083 0.31090870586 0.5 0.26589542627 0.31090870586 0.45 0.26586210728 
0.31090870586 0.4 0.26498618722 0.31090870586 0.35 0.26495212317 0.31090870586 0.3 0.26581701636 
0.31090870586 0.25 0.26868098974 0.31090870586 0.2 0.27072575688 0.31090870586 0.15 0.27200964093 
0.31090870586 0.1 0.27401563525 0.31090870586 0.05 0.27484494448 0.31090870586 0 0.27204614878 
0.34696870625 1.5 0.2754432559 0.34696870625 1.45 0.27324694395 0.34696870625 1.4 0.27326071262 
0.34696870625 1.35 0.27213171124 0.34696870625 1.3 0.2709736526 0.34696870625 1.25 0.26998561621 
0.34696870625 1.2 0.2683018744 0.34696870625 1.15 0.26727882028 0.34696870625 1.1 0.26644951105 
0.34696870625 1.05 0.26641306281 0.34696870625 1 0.26656296849 0.34696870625 0.95 0.27024382353 
0.34696870625 0.9 0.26835471392 0.34696870625 0.85 0.26828294992 0.34696870625 0.8 0.27029043436 
0.34696870625 0.75 0.26931416988 0.34696870625 0.7 0.26904186606 0.34696870625 0.65 0.26895585656 
0.34696870625 0.6 0.26892867684 0.34696870625 0.55 0.26788416505 0.34696870625 0.5 0.26519203186 
0.34696870625 0.45 0.26514497399 0.34696870625 0.4 0.26498046517 0.34696870625 0.35 0.26493236423 
0.34696870625 0.3 0.26508125663 0.34696870625 0.25 0.26722890139 0.34696870625 0.2 0.26929214597 
0.34696870625 0.15 0.27201363444 0.34696870625 0.1 0.27402210236 0.34696870625 0.05 0.27478089929 
0.34696870625 0 0.26769113541 0.3848006853 1.5 0.27419897914 0.3848006853 1.45 0.27287328243 
0.3848006853 1.4 0.27231770754 0.3848006853 1.35 0.27142840624 0.3848006853 1.3 0.27101910114 
0.3848006853 1.25 0.26946938038 0.3848006853 1.2 0.26847136021 0.3848006853 1.15 0.26746708155 
[...]
CELL_DATA 4740
FIELD FieldData 7
B_Stress_n_p_m2 1 4740 float
0.310288 0.314201 0.316887 0.319336 0.322631 0.325384 0.328708 0.330932 0.321253 
0.315726 0.315899 0.304864 0.280035 0.248026 0.162928 0.0725639 0.0518327 0.0452179 
0.0397342 0.0362781 0.0339433 0.032518 0.0316305 0.0308963 0.0300463 0.0290629 0.0274751 
0.0244036 0.0224634 0.0212235 0.302112 0.305547 0.308583 0.310601 0.313252 0.31556 
0.317377 0.318803 0.312456 0.303011 0.300319 0.296222 0.279099 0.25495 0.204292 
0.147951 0.111644 0.0866282 0.0726262 0.0618385 0.0534296 0.0475696 0.0432028 0.0397687 
0.0366721 0.0335016 0.030323 0.0256546 0.0156524 0.0424851 0.294441 0.296899 0.299343 
0.301358 0.303138 0.304892 0.306304 0.307934 0.30542 0.294512 0.287084 0.284561 
0.273734 0.255147 0.215914 0.165266 0.127935 0.103117 0.084948 0.0708172 0.0599953 
0.0525645 0.0470258 0.0428451 0.0391568 0.0352906 0.0313453 0.0264804 0.0201155 0.0285112 
0.286509 0.288748 0.290772 0.292293 0.293332 0.294256 0.295332 0.296063 0.297876 
0.292632 0.281719 0.274335 0.266473 0.251892 0.219347 0.177121 0.143566 0.117777 
0.096579 0.0798482 0.0675158 0.0586663 0.0519996 0.0468456 0.0424574 0.038055 0.0335173 
0.0289774 0.0246695 0.0272663 0.277895 0.280369 0.281775 0.282937 0.283524 0.284052 
0.28448 0.284599 0.285694 0.286841 0.278833 0.269212 0.259528 0.244831 0.218702 
0.183392 0.152429 0.126179 0.103832 0.0863163 0.0734723 0.0637503 0.0563533 0.05041 
0.0455679 0.0408219 0.0362653 0.0321894 0.0290543 0.0298716 0.267985 0.270752 0.272343 
0.272948 0.27335 0.273752 0.273684 0.273459 0.273168 0.274221 0.271699 0.262378 
0.25124 0.236079 0.212854 0.182706 0.154692 0.129243 0.107752 0.090918 0.0780513 
0.067958 0.0600671 0.0537984 0.0485401 0.0437927 0.0394565 0.0357846 0.0331727 0.0328336 
0.257171 0.26016 0.262022 0.262928 0.26311 0.26306 0.262508 0.261477 0.260222 
0.258729 0.257767 0.250396 0.239281 0.224219 0.203336 0.177962 0.152889 0.12991 
0.110366 0.094443 0.0818488 0.0718013 0.0637048 0.0571975 0.0517336 0.0470492 0.0430043 
0.0397056 0.0372358 0.0360599 0.246698 0.2497 0.251894 0.252992 0.253194 0.25256 
0.251328 0.249427 0.247288 0.244598 0.241056 0.235072 0.224551 0.210351 0.192196 
0.170986 0.149567 0.129537 0.111996 0.0971845 0.085149 0.0754089 0.0673906 0.0607961 
0.0552659 0.0506663 0.0468804 0.043857 0.0415251 0.0400069 0.237253 0.240404 0.242399 
0.243532 0.243596 0.242922 0.24117 0.238908 0.235963 0.232611 0.227237 0.220713 
0.210807 0.197906 0.181993 0.16392 0.145811 0.128468 0.112874 0.0994681 0.0881786 
0.0788755 0.0710982 0.0646003 0.0591663 0.0547247 0.0510745 0.0482233 0.0460268 0.0447563 
0.228616 0.231939 0.233687 0.234617 0.234523 0.233701 0.232049 0.229631 0.22637 
0.22219 0.216543 0.209196 0.199843 0.188211 0.173972 0.158163 0.142476 0.127341 
0.113509 0.101484 0.0911257 0.0823447 0.0749293 0.0686817 0.0634701 0.05917 0.0557118 
0.0528877 0.0506511 0.0494921 0.220023 0.223562 0.225261 0.226056 0.225736 0.224538 
0.222942 0.220542 0.217266 0.212244 0.206566 0.19909 0.190361 0.179575 0.166853 
0.153112 0.139353 0.126185 0.114013 0.103211 0.0938275 0.0857045 0.0788387 0.0729601 
0.0679741 0.0638501 0.0605804 0.0578149 0.0555242 0.0541957 0.211752 0.214946 0.216176 
0.21656 0.215977 0.21434 0.212363 0.209768 0.206292 0.201048 0.194796 0.187549 
0.179327 0.169479 0.15848 0.146891 0.135181 0.124013 0.113491 0.103899 0.0954911 
0.088171 0.0819575 0.0765995 0.0718993 0.0679977 0.0648912 0.0624653 0.0605037 0.0592029 
0.207206 0.208784 0.208649 0.208134 0.207205 0.205262 0.202665 0.199439 0.195217 
0.190311 0.183913 0.177082 0.169095 0.160599 0.151265 0.141446 0.131869 0.122483 
0.11346 0.104999 0.0973628 0.0907417 0.084951 0.0800951 0.0757651 0.0720148 0.0689963 
0.0669546 0.0654949 0.0644958 0.208002 0.207437 0.206829 0.206168 0.20512 0.203387 
0.200797 0.197379 0.192954 0.187938 0.182315 0.175856 0.168521 0.160662 0.152391 
0.143727 0.135154 0.126805 0.118743 0.110971 0.103792 0.0974122 0.0917098 0.0867743 
0.0825106 0.0787861 0.0755971 0.073255 0.0717903 0.0710295 0.206515 0.206089 0.207173 
0.207231 0.20676 0.205525 0.203472 0.20056 0.196864 0.192218 0.187156 0.181254 
0.17453 0.167085 0.159303 0.151351 0.143098 0.135183 0.127448 0.120175 0.113285 
0.107045 0.101398 0.0961566 0.0916994 0.0877519 0.0843882 0.081484 0.0794345 0.0785604 
0.19887 0.20109 0.202653 0.203353 0.20311 0.202128 0.200388 0.197872 0.194641 
0.190763 0.186078 0.180644 0.174619 0.168019 0.160913 0.153607 0.146316 0.138969 
0.13182 0.125058 0.118823 0.113005 0.10762 0.102722 0.0982651 0.0943627 0.0910255 
0.0882322 0.0859823 0.0848348 0.192331 0.194438 0.19572 0.196243 0.195992 0.195032 
0.193376 0.191031 0.188033 0.184423 0.180165 0.175309 0.169945 0.164137 0.157968 
0.151605 0.145199 0.138797 0.132543 0.126557 0.120933 0.115668 0.110785 0.10632 
0.10227 0.0986865 0.095593 0.0930006 0.0909481 0.0897633 0.186393 0.188351 0.189518 
0.18998 0.189758 0.18888 0.187365 0.185235 0.182517 0.179242 0.175429 0.171122 
0.166383 0.161281 0.155901 0.150349 0.144731 0.139126 0.13363 0.12833 0.12329 
0.118545 0.114125 0.110056 0.106358 0.10306 0.100188 0.0977589 0.0958158 0.0945399 
0.180768 0.182668 0.183809 0.18428 0.18412 0.183357 0.182015 0.180119 0.177698 
0.174783 0.171407 0.167612 0.163453 0.158991 0.154299 0.149458 0.144547 0.139641 
0.134812 0.130128 0.125641 0.12139 0.117407 0.113717 0.110343 0.10731 0.104642 
0.102354 0.100484 0.0991604 0.175531 0.177381 0.178516 0.179021 0.178943 0.178312 
0.177154 0.175498 0.173374 0.170815 0.167856 0.164538 0.160912 0.15703 0.152953 
0.148745 0.14447 0.14019 0.135962 0.131839 0.127866 0.12408 0.12051 0.11718 
0.114114 0.111331 0.108854 0.106696 0.10489 0.103542 0.170714 0.17252 0.173661 
0.174216 0.174233 0.173743 0.172775 0.171359 0.169526 0.167308 0.164742 0.161867 
0.158726 0.155367 0.151841 0.148199 0.144492 0.140771 0.137083 0.133471 0.129971 
0.126615 0.12343 0.120438 0.117658 0.11511 0.112811 0.110773 0.109026 0.107659 
0.166323 0.16809 0.169244 0.169856 0.169975 0.16963 0.168852 0.16767 0.166115 
0.16422 0.16202 0.15955 0.156851 0.153963 0.150928 0.14779 0.144591 0.141371 
0.138168 0.135016 0.131947 0.128986 0.126156 0.123476 0.120962 0.118631 0.116497 
0.11457 0.112877 0.111493 0.162353 0.164085 0.165256 0.16593 0.166151 0.165949 
0.165354 0.164395 0.163103 0.161508 0.159643 0.157543 0.155242 0.152776 0.150181 
0.147492 0.144744 0.141971 0.139201 0.136464 0.133784 0.131182 0.128676 0.126282 
0.124013 0.121882 0.119899 0.118075 0.116432 0.11503 0.158793 0.160494 0.161685 
0.16242 0.162741 0.162676 0.162254 0.161503 0.160453 0.159133 0.157575 0.155808 
0.153864 0.151774 0.14957 0.14728 0.144933 0.142556 0.140174 0.137808 0.135477 
0.133198 0.130986 0.128852 0.126805 0.124856 0.123012 0.121281 0.119682 0.118264 
0.155628 0.157303 0.158514 0.159307 0.159722 0.159784 0.159522 0.158963 0.158134 
0.157063 0.155779 0.15431 0.152685 0.150929 0.14907 0.147133 0.145141 0.143116 
0.141077 0.13904 0.137021 0.135032 0.133083 0.131182 0.129336 0.127552 0.125833 
0.124186 0.122628 0.121195 0.152839 0.154491 0.15572 0.156568 0.157068 0.157247 
0.15713 0.156744 0.156113 0.155265 0.154226 0.153022 0.151677 0.150217 0.148662 
0.147036 0.145356 0.14364 0.141903 0.140157 0.138415 0.136683 0.134968 0.133276 
0.13161 0.129973 0.128368 0.126797 0.125273 0.123826 0.150403 0.152034 0.153281 
0.154177 0.154755 0.155038 0.155051 0.154817 0.154363 0.153711 0.152888 0.151916 
0.150818 0.149615 0.148327 0.146972 0.145564 0.144119 0.142647 0.141158 0.139658 
0.138154 0.136647 0.13514 0.133633 0.132128 0.130623 0.129119 0.127627 0.126167 
0.148295 0.149909 0.151171 0.15211 0.152756 0.15313 0.153256 0.153157 0.152855 
0.152375 0.151739 0.150969 0.150085 0.149106 0.14805 0.14693 0.14576 0.14455 
0.143309 0.142043 0.140756 0.13945 0.138126 0.136782 0.135416 0.134027 0.132611 
0.131168 0.129703 0.128232 0.146491 0.148089 0.149363 0.150339 0.151044 0.151496 
0.151719 0.151735 0.151566 0.151233 0.150758 0.150162 0.149462 0.148675 0.147817 
0.1469 0.145934 0.144928 0.143887 0.142815 0.141713 0.14058 0.139415 0.138214 
0.136972 0.135685 0.134349 0.132958 0.131517 0.130037 0.144963 0.146547 0.147832 
0.148839 0.149591 0.15011 0.150415 0.150528 0.15047 0.150262 0.149924 0.149474 
0.148931 0.148308 0.14762 0.146876 0.146085 0.145253 0.144384 0.143478 0.142536 
0.141554 0.140527 0.139451 0.138317 0.13712 0.135852 0.134508 0.133089 0.131601 
0.143685 0.145257 0.146549 0.147581 0.148373 0.148946 0.149318 0.149511 0.149545 
0.149441 0.149217 0.148891 0.148478 0.147994 0.147448 0.146851 0.146208 0.145525 
0.144802 0.14404 0.143234 0.142382 0.141475 0.140507 0.139467 0.138349 0.137142 
0.13584 0.13444 0.132945 0.142631 0.144193 0.14549 0.14654 0.147363 0.147978 
0.148404 0.148662 0.148771 0.148751 0.14862 0.148396 0.148092 0.147722 0.147295 
0.146821 0.146303 0.145745 0.145146 0.144506 0.143818 0.143077 0.142274 0.141399 
0.140442 0.139392 0.138239 0.136973 0.135591 0.134091 0.141776 0.143328 0.144628 
0.145691 0.146537 0.147185 0.147652 0.14796 0.148127 0.148174 0.148118 0.147975 
0.14776 0.147484 0.147156 0.146783 0.146369 0.145916 0.145422 0.144885 0.144297 
0.143652 0.142938 0.142144 0.141259 0.14027 0.139164 0.137931 0.136565 0.135061 
0.141096 0.14264 0.14394 0.145011 0.145873 0.146542 0.147039 0.147384 0.147596 
0.147694 0.147696 0.147618 0.147473 0.147272 0.147024 0.146734 0.146407 0.146041 
0.145635 0.145185 0.144683 0.144119 0.143483 0.142761 0.141939 0.141003 0.13994 
0.138736 0.137385 0.135879 0.14057 0.142105 0.143403 0.144478 0.145347 0.14603 
0.146546 0.146916 0.147159 0.147295 0.147341 0.147312 0.147222 0.147081 0.146897 
0.146675 0.146417 0.146124 0.145792 0.145415 0.144985 0.144492 0.143923 0.143264 
0.142498 0.141611 0.140586 0.13941 0.138073 0.136567 0.140176 0.141704 0.142997 
0.14407 0.144942 0.14563 0.146156 0.14654 0.146803 0.146964 0.14704 0.147048 
0.146999 0.146904 0.14677 0.146602 0.146402 0.146168 0.145897 0.145582 0.145215 
0.144784 0.144274 0.14367 0.142955 0.142112 0.141123 0.139974 0.13865 0.137145 
0.139897 0.141417 0.142704 0.143771 0.144638 0.145324 0.14585 0.146239 0.146511 
0.146687 0.146783 0.146816 0.146797 0.146736 0.146641 0.146516 0.146362 0.146177 
0.145957 0.145695 0.145382 0.145004 0.144548 0.143995 0.143327 0.142525 0.141571 
0.140446 0.139138 0.137635 0.139718 0.14123 0.142507 0.143564 0.14442 0.145096 
0.145616 0.146 0.146273 0.146453 0.14656 0.146608 0.146609 0.146574 0.146508 
0.146416 0.146298 0.146153 0.145976 0.14576 0.145494 0.145165 0.144756 0.144251 
0.143627 0.142866 0.141946 0.140847 0.139554 0.138054 0.139626 0.141129 0.142394 
0.143436 0.144275 0.144934 0.145438 0.145811 0.146075 0.146253 0.146361 0.146416 
0.14643 0.146411 0.146367 0.1463 0.146212 0.1461 0.145959 0.145783 0.145559 
0.145273 0.144911 0.14445 0.143871 0.14315 0.142264 0.141192 0.139916 0.138421 
0.139609 0.141103 0.142352 0.143374 0.144189 0.144825 0.145306 0.145659 0.145908 
0.146076 0.146179 0.146235 0.146254 0.146246 0.146217 0.146169 0.146104 0.14602 
0.14591 0.145768 0.145582 0.145338 0.145019 0.144603 0.144068 0.143389 0.14254 
0.141497 0.14024 0.138752 0.13966 0.141144 0.142373 0.143368 0.144154 0.144758 
0.145209 0.145535 0.145763 0.145913 0.146006 0.146057 0.146077 0.146074 0.146055 
0.146022 0.145976 0.145913 0.145831 0.14572 0.145569 0.145365 0.145089 0.144719 
0.14423 0.143596 0.142787 0.141777 0.140542 0.139063 0.139776 0.141246 0.142451 
0.143413 0.14416 0.144724 0.145137 0.14543 0.145629 0.145758 0.145836 0.145878 
0.145894 0.145893 0.14588 0.145858 0.145826 0.145783 0.145723 0.145641 0.145524 
0.145358 0.145125 0.144803 0.144364 0.143779 0.143016 0.142044 0.140835 0.139368 
0.139954 0.141408 0.142582 0.143501 0.1442 0.144715 0.145082 0.145334 0.145499 
0.145603 0.145662 0.145691 0.145702 0.1457 0.14569 0.145676 0.145655 0.145628 
0.145589 0.145532 0.145447 0.14532 0.145132 0.14486 0.144476 0.143947 0.143238 
0.142311 0.141135 0.139683 0.140197 0.141631 0.142764 0.143629 0.144267 0.144722 
0.145034 0.145238 0.145366 0.14544 0.145478 0.145494 0.145497 0.145493 0.145485 
0.145475 0.145464 0.14545 0.145429 0.145395 0.14534 0.14525 0.145109 0.144891 
0.144569 0.144105 0.14346 0.14259 0.141455 0.140023 0.140515 0.14192 0.142998 
0.143792 0.144354 0.144736 0.144983 0.145134 0.14522 0.145263 0.145281 0.145283 
0.145278 0.14527 0.145262 0.145257 0.145252 0.145249 0.145243 0.14523 0.145202 
0.145149 0.145054 0.144895 0.144641 0.144255 0.143688 0.142892 0.141813 0.140408 
0.140922 0.142286 0.143287 0.143985 0.14445 0.144743 0.144916 0.145011 0.145055 
0.145068 0.145066 0.145056 0.145044 0.145033 0.145026 0.145023 0.145023 0.145027 
0.145033 0.145037 0.145033 0.145014 0.144965 0.144866 0.144689 0.144393 0.143926 
0.143226 0.142224 0.140861 0.141452 0.142749 0.143632 0.144197 0.144537 0.144726 
0.14482 0.144856 0.144861 0.14485 0.144832 0.144814 0.144798 0.144786 0.144779 
0.144777 0.144781 0.144789 0.144802 0.144818 0.144832 0.144841 0.144833 0.144794 
0.144698 0.144508 0.144167 0.143601 0.142718 0.141421 0.142179 0.143342 0.144024 
0.144393 0.144574 0.144647 0.144663 0.144651 0.144627 0.144601 0.144577 0.144557 
0.144541 0.144531 0.144525 0.144524 0.144529 0.144538 0.144552 0.144571 0.144594 
0.144619 0.144642 0.144653 0.144637 0.144563 0.144382 0.144012 0.14333 0.142167 
0.143082 0.143927 0.144306 0.144456 0.144498 0.144494 0.144472 0.144446 0.144421 
0.1444 0.144383 0.144371 0.144362 0.144356 0.144353 0.144353 0.144355 0.144361 
0.14437 0.144382 0.144398 0.144419 0.144444 0.14447 0.144492 0.144495 0.144453 
0.144303 0.143924 0.14308 0.371675 0.376017 0.381021 0.386855 0.395559 0.390722 
0.3886 0.392679 0.390182 0.371934 0.346776 0.310385 0.252603 0.168819 0.0657868 
212.095 166.604 137.144 120.461 112.379 109.344 108.662 108.438 107.427 
104.654 99.9145 93.7251 85.3464 73.6753 43.1242 0.364667 0.368893 0.374041 
0.379715 0.386755 0.387539 0.382171 0.38467 0.383734 0.369681 0.346898 0.312501 
0.258018 0.174296 0.0733767 215.847 167.425 137.181 120.476 112.625 109.891 
109.56 109.761 109.194 106.946 102.691 96.4118 87.3285 73.8457 40.7649 
0.357923 0.361678 0.36706 0.372429 0.378108 0.383687 0.377717 0.380659 0.376991 
0.367327 0.346027 0.314924 0.262685 0.178163 0.0729503 219.382 168.27 137.736 
121.285 113.77 111.33 111.279 111.811 111.639 109.869 106.001 99.5035 
89.2066 73.558 41.9302 0.351086 0.354733 0.359337 0.36482 0.369335 0.376153 
0.372831 0.37313 0.37352 0.363792 0.343101 0.315869 0.265939 0.185496 0.0739694 
224.436 169.773 139.653 123.68 116.348 113.858 113.685 114.165 114.08 
112.539 108.843 102.078 90.7773 73.4206 43.0676 0.343868 0.347067 0.351438 
0.356256 0.360651 0.366681 0.365395 0.361526 0.362771 0.357648 0.341244 0.312357 
0.267148 0.195962 0.0775942 231.853 172.608 143.581 128.102 120.683 117.747 
117.047 117.107 116.795 115.23 111.571 104.68 93.0631 75.2872 43.673 
0.335873 0.338912 0.342708 0.346643 0.351061 0.355705 0.359213 0.351069 0.352139 
0.349245 0.337576 0.310328 0.269321 0.209913 0.0743837 239.406 178.108 150.871 
135.37 127.25 123.285 121.577 120.82 119.934 118.067 114.332 107.46 
96.1346 79.1046 44.2782 0.327077 0.330923 0.333302 0.337135 0.340784 0.344874 
0.350927 0.344039 0.341127 0.340945 0.332884 0.30946 0.271797 0.227617 0.0875679 
251.39 189.402 162.628 145.687 135.875 130.155 126.948 125.013 123.233 
120.766 116.801 109.919 98.9108 82.8608 46.4781 0.318531 0.322085 0.324903 
0.327873 0.331298 0.334571 0.340012 0.339348 0.330136 0.32947 0.326785 0.30825 
0.276722 0.239412 0.13434 281.607 205.124 174.743 155.057 143.094 135.511 
130.937 128.037 125.534 122.513 118.365 111.452 100.107 85.2172 54.4457 
0.080419 0.0807894 0.0807771 0.0803892 0.0796389 0.0785385 0.0771022 0.075347 0.0732925 
0.0709603 0.0683744 0.0655607 0.062547 0.0593624 0.0560381 0.0526061 0.0491002 0.0455551 
0.0420073 0.0384944 0.0350558 0.0317329 0.0285692 0.025611 0.0229069 0.0205084 0.0184683 
0.0168393 0.0156735 0.0150149 0.0830359 0.0833804 0.0833251 0.082875 0.0820402 0.0808336 
0.0792708 0.07737 0.0751527 0.0726424 0.0698653 0.0668495 0.063625 0.0602236 0.0566784 
0.053024 0.0492961 0.0455315 0.0417684 0.0380459 0.0344049 0.0308878 0.0275393 0.0244069 
0.0215408 0.018995 0.016826 0.0150916 0.0138478 0.0131438 0.0848184 0.0851567 0.0850773 
0.0845861 0.0836937 0.0824135 0.0807623 0.0787597 0.0764285 0.0737938 0.0708834 0.0677273 
0.0643573 0.0608069 0.0571109 0.0533057 0.0494284 0.0455173 0.0416116 0.0377514 0.0339783 
0.0303352 0.0268673 0.0236224 0.0206516 0.0180101 0.0157569 0.0139533 0.0126603 0.0119333 
0.0871304 0.0874635 0.0873555 0.0868124 0.0858457 0.08447 0.0827035 0.0805677 0.0780871 
0.0752892 0.072204 0.0688638 0.0653028 0.0615572 0.0576641 0.0536622 0.0495909 0.0454903 
0.0414015 0.037366 0.0334264 0.0296265 0.026012 0.022631 0.0195353 0.016781 0.0144293 
0.0125453 0.0111959 0.0104449 0.0895333 0.0898607 0.0897216 0.0891228 0.0880766 0.0865991 
0.0847102 0.0824332 0.0797948 0.0768249 0.073556 0.0700231 0.0662631 0.0623149 0.0582184 
0.0540147 0.0497459 0.0454541 0.0411824 0.0369739 0.0328724 0.0289222 0.0251695 0.0216623 
0.0184522 0.0155954 0.0131541 0.0111962 0.00979415 0.00901993 0.0921776 0.0924988 0.0923254 
0.0916645 0.0905298 0.088939 0.0869136 0.0844793 0.0816654 0.0785043 0.0750315 0.0712852 
0.0673053 0.0631339 0.058814 0.0543899 0.0499063 0.0454082 0.0409408 0.0365492 0.0322784 
0.0281739 0.0242818 0.0206498 0.0173288 0.0143742 0.011848 0.00981972 0.00836629 0.00756919 
0.0950368 0.0953511 0.0951397 0.0944104 0.0931783 0.0914628 0.0892878 0.0866812 0.0836753 
0.0803055 0.0766108 0.0726325 0.0684144 0.0640019 0.0594417 0.0547815 0.0500694 0.0453533 
0.040681 0.0361 0.0316569 0.027398 0.02337 0.0196198 0.0161969 0.013155 0.0105542 
0.00846386 0.00696381 0.00614515 0.0981492 0.0984557 0.0982023 0.0973975 0.0960579 0.0942051 
0.0918653 0.0890693 0.0858526 0.0822541 0.0783164 0.0740848 0.0696069 0.0649324 0.060112 
0.0551971 0.0502395 0.0452908 0.0404019 0.0356227 0.0310021 0.0265877 0.0224264 0.0185648 
0.0150504 0.011934 0.00927256 0.00713231 0.00559339 0.00475575 0.101541 0.101839 0.101539 
0.100651 0.0991924 0.0971884 0.0946674 0.0916636 0.0882157 0.0843667 0.0801634 0.0756554 
0.0708949 0.0659358 0.0608333 0.0556435 0.0504223 0.0452251 0.0401065 0.0351195 0.0303155 
0.0257439 0.0214524 0.017487 0.0138936 0.0107195 0.00801633 0.0058447 0.00428025 0.00342893 
0.105248 0.105536 0.105185 0.104204 0.102616 0.100445 0.0977251 0.0944931 0.0907919 
0.0866689 0.0821754 0.0773658 0.0722974 0.067029 0.061621 0.0561341 0.050629 0.0451657 
0.0398026 0.0345966 0.029602 0.0248705 0.0204511 0.01639 0.0127316 0.00951951 0.00679958 
0.00462349 0.00305608 0.00220206 0.109309 0.109585 0.109177 0.108095 0.106362 0.104009 
0.101071 0.0975887 0.0936103 0.0891878 0.0843776 0.0792396 0.0738364 0.0682324 0.0624935 
0.0566858 0.0508751 0.0451264 0.0395027 0.0340648 0.0288705 0.0239744 0.0194272 0.0152762 
0.011565 0.00833442 0.00562485 0.00347829 0.00194291 0.00111143 0.113761 0.114025 0.113553 
0.11236 0.11047 0.107916 0.104738 0.100983 0.096702 0.0919532 0.0867987 0.0813042 
0.0755383 0.0695718 0.0634765 0.0573245 0.0511874 0.0451356 0.039237 0.0335569 0.0281573 
0.0230957 0.0184255 0.0141953 0.0104489 0.00722597 0.00456331 0.00249562 0.00105226 0.000309475 
0.118642 0.118891 0.11835 0.117034 0.11497 0.112197 0.108758 0.104704 0.100094 
0.0949901 0.0894617 0.0835809 0.0774232 0.071066 0.0645879 0.0580677 0.0515834 0.0452112 
0.0390249 0.0330946 0.0274866 0.0222622 0.0174773 0.0131822 0.00942137 0.00623357 0.00365289 
0.00170945 0.000414167 5.50334e-05 0.123985 0.124217 0.123599 0.122147 0.119893 0.116879 
0.113154 0.108775 0.103805 0.0983143 0.0923791 0.0860788 0.079496 0.0727159 0.0658244 
0.0589075 0.0520502 0.0453352 0.0388423 0.0326471 0.0268205 0.0214273 0.0165262 0.0121691 
0.00840051 0.00525838 0.00277376 0.000970054 5.5152e-05 0.000650177 0.129817 0.130029 0.129325 
0.127724 0.125262 0.121985 0.117947 0.113212 0.10785 0.101938 0.0955602 0.0888039 
0.0817599 0.0745215 0.0671826 0.0598373 0.0525781 0.0454949 0.0386741 0.0321972 0.0261398 