# vtk DataFile Version 5.1
vtk output
ASCII
DATASET UNSTRUCTURED_GRID
POINTS 10043 double
-10.1 1.4499999993 1.7536673624e-07 -10.049999999 1.4499999993 1.8033075833e-07 -10.049999999 1.5 -6.9312795858e-07 
-9.9999999985 1.4499999993 1.8001971114e-07 -9.9999999985 1.5 -6.8828580879e-07 -9.9499999978 1.4499999993 1.7828712373e-07 
-9.9499999978 1.5 -6.8123631536e-07 -9.899999997 1.4499999993 1.7667095165e-07 -9.899999997 1.5 -6.7477617449e-07 
-9.8499999963 1.4499999993 1.7522667406e-07 -9.8499999963 1.5 -6.6954748945e-07 -9.7999999955 1.4499999993 1.7423896281e-07 
-9.7999999955 1.5 -6.6541383603e-07 -9.7499999948 1.4499999993 1.7338130931e-07 -9.7499999948 1.5 -6.6215602601e-07 
-9.699999994 1.4499999993 1.7272101616e-07 -9.699999994 1.5 -6.5987137532e-07 -9.6499999933 1.4499999993 1.7234721383e-07 
-9.6499999933 1.5 -6.5821154749e-07 -9.5999999925 1.4499999993 1.720780034e-07 -9.5999999925 1.5 -6.5734116106e-07 
-9.5499999918 1.4499999993 1.7207618441e-07 -9.5499999918 1.5 -6.569737252e-07 -9.4999999911 1.4499999993 1.7204889957e-07 
-9.4999999911 1.5 -6.5703738983e-07 -9.4499999903 1.4499999993 1.7223170801e-07 -9.4499999903 1.5 -6.57694045e-07 
-9.3999999896 1.4499999993 1.7238632211e-07 -9.3999999896 1.5 -6.5880090006e-07 -9.3499999888 1.4499999993 1.7272374464e-07 
-9.3499999888 1.5 -6.6017059908e-07 -9.2999999881 1.4499999993 1.7329854529e-07 -9.2999999881 1.5 -6.6188772507e-07 
-9.2499999873 1.4499999993 1.7375874961e-07 -9.2499999873 1.5 -6.6404049903e-07 -9.1999999866 1.4499999993 1.7447543144e-07 
-9.1999999866 1.5 -6.6641882768e-07 -9.1499999858 1.4499999993 1.7514572903e-07 -9.1499999858 1.5 -6.6915004027e-07 
-9.0999999851 1.4499999993 1.7584967793e-07 -9.0999999851 1.5 -6.7202495302e-07 -9.0499999844 1.4499999993 1.7669459851e-07 
-9.0499999844 1.5 -6.7522728386e-07 -8.9999999836 1.4499999993 1.775722609e-07 -8.9999999836 1.5 -6.7880614552e-07 
-8.9499999829 1.4499999993 1.7857088608e-07 -8.9499999829 1.5 -6.8251233643e-07 -8.8999999821 1.4499999993 1.7960043408e-07 
-8.8999999821 1.5 -6.8651411311e-07 -8.8499999814 1.4499999993 1.8068273278e-07 -8.8499999814 1.5 -6.906868748e-07 
-8.7999999806 1.4499999993 1.818796278e-07 -8.7999999806 1.5 -6.95116114e-07 -8.7499999799 1.4499999993 1.831329115e-07 
-8.7499999799 1.5 -6.9975726547e-07 -8.6999999791 1.4499999993 1.8385959777e-07 -8.6999999791 1.5 -7.0216560744e-07 
-8.6499999784 1.4499999993 1.8502011301e-07 -8.6499999784 1.5 -7.0733926805e-07 -8.5999999776 1.4499999993 1.8637980759e-07 
-8.5999999776 1.5 -7.1248746281e-07 -8.5499999769 1.4499999993 1.8789866374e-07 -8.5499999769 1.5 -7.1783210842e-07 
-8.4999999762 1.4499999993 1.8925608458e-07 -8.4999999762 1.5 -7.2357374847e-07 -8.4499999754 1.4499999993 1.908658902e-07 
-8.4499999754 1.5 -7.2949728747e-07 -8.3999999747 1.4499999993 1.9246432714e-07 -8.3999999747 1.5 -7.3560818237e-07 
-8.3499999739 1.4499999993 1.9396362916e-07 -8.3499999739 1.5 -7.4194326771e-07 -8.2999999732 1.4499999993 1.9583855249e-07 
-8.2999999732 1.5 -7.4846570897e-07 -8.2499999724 1.4499999993 1.9758068959e-07 -8.2499999724 1.5 -7.5520324572e-07 
-8.1999999717 1.4499999993 1.9935147577e-07 -8.1999999717 1.5 -7.6219635048e-07 -8.1499999709 1.4499999993 2.0133326473e-07 
-8.1499999709 1.5 -7.6945502769e-07 -8.0999999702 1.4499999993 2.0331960116e-07 -8.0999999702 1.5 -7.7691743172e-07 
-8.0499999695 1.4499999993 2.0534322687e-07 -8.0499999695 1.5 -7.8458492681e-07 -7.9999999687 1.4499999993 2.0747417295e-07 
-7.9999999687 1.5 -7.9259757513e-07 -7.949999968 1.4499999993 2.0957646996e-07 -7.949999968 1.5 -8.0071390585e-07 
-7.8999999672 1.4499999993 2.1166421504e-07 -7.8999999672 1.5 -8.0918812273e-07 -7.8499999665 1.4499999993 2.1383335991e-07 
-7.8499999665 1.5 -8.1803705143e-07 -7.7999999657 1.4499999993 2.1621578128e-07 -7.7999999657 1.5 -8.2686688074e-07 
-7.749999965 1.4499999993 2.1874235756e-07 -7.749999965 1.5 -8.3593135969e-07 -7.6999999642 1.4499999993 2.2111659348e-07 
-7.6999999642 1.5 -8.4548105406e-07 -7.6499999635 1.4499999993 2.2369910369e-07 -7.6499999635 1.5 -8.5515989667e-07 
-7.5999999627 1.4499999993 2.2637983932e-07 -7.5999999627 1.5 -8.6522209131e-07 -7.549999962 1.4499999993 2.2911605413e-07 
-7.549999962 1.5 -8.7566991169e-07 -7.4999999613 1.4499999993 2.3193366872e-07 -7.4999999613 1.5 -8.8620276983e-07 
-7.4499999605 1.4499999993 2.3468489019e-07 -7.4499999605 1.5 -8.9719128482e-07 -7.3999999598 1.4499999993 2.3768031099e-07 
-7.3999999598 1.5 -9.0846583589e-07 -7.349999959 1.4499999993 2.4069299798e-07 -7.349999959 1.5 -9.1993911155e-07 
-7.2999999583 1.4499999993 2.4376845431e-07 -7.2999999583 1.5 -9.3194671535e-07 -7.2499999575 1.4499999993 2.4700079848e-07 
-7.2499999575 1.5 -9.4414758678e-07 -7.1999999568 1.4499999993 2.5036456464e-07 -7.1999999568 1.5 -9.5671953204e-07 
-7.149999956 1.4499999993 2.5373378776e-07 -7.149999956 1.5 -9.6978351394e-07 -7.0999999553 1.4499999993 2.5545000426e-07 
-7.0999999553 1.5 -9.7652832665e-07 -7.0499999546 1.4499999993 2.590652457e-07 -7.0499999546 1.5 -9.8996974884e-07 
-6.9999999538 1.4499999993 2.6271550269e-07 -6.9999999538 1.5 -1.0040000689e-06 -6.9499999531 1.4499999993 2.6649036045e-07 
-6.9499999531 1.5 -1.0184082839e-06 -6.8999999523 1.4499999993 2.7040937312e-07 -6.8999999523 1.5 -1.0332144029e-06 
-6.8499999516 1.4499999993 2.7431883609e-07 -6.8499999516 1.5 -1.0484566246e-06 -6.7999999508 1.4499999993 2.7850433071e-07 
-6.7999999508 1.5 -1.064181788e-06 -6.7499999501 1.4499999993 2.8266322261e-07 -6.7499999501 1.5 -1.0804972135e-06 
-6.6999999493 1.4499999993 2.8713293432e-07 -6.6999999493 1.5 -1.0971373285e-06 -6.6499999486 1.4499999993 2.9163629733e-07 
-6.6499999486 1.5 -1.1144554719e-06 -6.5999999478 1.4499999993 2.963120096e-07 -6.5999999478 1.5 -1.1322567843e-06 
-6.5499999471 1.4499999993 3.0109231375e-07 -6.5499999471 1.5 -1.150602202e-06 -6.4999999464 1.4499999993 3.0604405765e-07 
-6.4999999464 1.5 -1.1695710782e-06 -6.4499999456 1.4499999993 3.1117883736e-07 -6.4499999456 1.5 -1.1891338545e-06 
-6.3999999449 1.4499999993 3.1640570342e-07 -6.3999999449 1.5 -1.2094787962e-06 -6.3499999441 1.4499999993 3.2189518606e-07 
-6.3499999441 1.5 -1.2303360108e-06 -6.2999999434 1.4499999993 3.2768116398e-07 -6.2999999434 1.5 -1.2519612937e-06 
-6.2499999426 1.4499999993 3.3352080209e-07 -6.2499999426 1.5 -1.2743773823e-06 -6.1999999419 1.4499999993 3.395011845e-07 
-6.1999999419 1.5 -1.2975363006e-06 -6.1499999411 1.4499999993 3.4581398722e-07 -6.1499999411 1.5 -1.3215562831e-06 
-6.0999999404 1.4499999993 3.5244829633e-07 -6.0999999404 1.5 -1.3463634332e-06 -6.0499999397 1.4499999993 3.5916445995e-07 
-6.0499999397 1.5 -1.3721678442e-06 -5.9999999389 1.4499999993 3.6616302168e-07 -5.9999999389 1.5 -1.3988230876e-06 
-5.9499999382 1.4499999993 3.7331506064e-07 -5.9499999382 1.5 -1.4266511243e-06 -5.8999999374 1.4499999993 3.8094026422e-07 
-5.8999999374 1.5 -1.4555703274e-06 -5.8499999367 1.4499999993 3.8879738895e-07 -5.8499999367 1.5 -1.4855197605e-06 
-5.7999999359 1.4499999993 3.9695783016e-07 -5.7999999359 1.5 -1.5167713627e-06 -5.7499999352 1.4499999993 4.0544705371e-07 
-5.7499999352 1.5 -1.5492923922e-06 -5.6999999344 1.4499999993 4.1434373088e-07 -5.6999999344 1.5 -1.5832333702e-06 
-5.6499999337 1.4499999993 4.2361261876e-07 -5.6499999337 1.5 -1.6186268113e-06 -5.5999999329 1.4499999993 4.3327096932e-07 
-5.5999999329 1.5 -1.655658707e-06 -5.5499999322 1.4499999993 4.3828845264e-07 -5.5499999322 1.5 -1.6747321752e-06 
-5.4999999315 1.4499999993 4.4863168114e-07 -5.4999999315 1.5 -1.7143245259e-06 -5.4499999307 1.4499999993 4.5945273541e-07 
-5.4499999307 1.5 -1.7557952106e-06 -5.39999993 1.4499999993 4.70918053e-07 -5.39999993 1.5 -1.7992979338e-06 
-5.3499999292 1.4499999993 4.8283311571e-07 -5.3499999292 1.5 -1.8450400603e-06 -5.2999999285 1.4499999993 4.9550601489e-07 
-5.2999999285 1.5 -1.8931992827e-06 -5.2499999277 1.4499999993 5.0878247748e-07 -5.2499999277 1.5 -1.9440235519e-06 
-5.199999927 1.4499999993 5.2280631735e-07 -5.199999927 1.5 -1.9976100702e-06 -5.1499999262 1.4499999993 5.3768872021e-07 
-5.1499999262 1.5 -2.0544603103e-06 -5.0999999255 1.4499999993 5.5346765748e-07 -5.0999999255 1.5 -2.1147361622e-06 
-5.0499999247 1.4499999993 5.7018382904e-07 -5.0499999247 1.5 -2.1788339382e-06 -4.999999924 1.4499999993 5.8817386162e-07 
-4.999999924 1.5 -2.2472454475e-06 -4.9499999233 1.4499999993 6.0730098994e-07 -4.9499999233 1.5 -2.3204017907e-06 
-4.8999999225 1.4499999993 6.2790968514e-07 -4.8999999225 1.5 -2.3989177862e-06 -4.8499999218 1.4499999993 6.5001313487e-07 
-4.8499999218 1.5 -2.483520575e-06 -4.799999921 1.4499999993 6.7393375502e-07 -4.799999921 1.5 -2.5749229735e-06 
-4.7499999203 1.4499999993 6.9998520758e-07 -4.7499999203 1.5 -2.6741761303e-06 -4.6999999195 1.4499999993 7.2834438924e-07 
-4.6999999195 1.5 -2.7824510198e-06 -4.6499999188 1.4499999993 7.5945786193e-07 -4.6499999188 1.5 -2.9012023788e-06 
-4.599999918 1.4499999993 7.9377173279e-07 -4.599999918 1.5 -3.0322037219e-06 -4.5499999173 1.4499999993 8.3186216671e-07 
-4.5499999173 1.5 -3.1776003198e-06 -4.4999999166 1.4499999993 8.7447739361e-07 -4.4999999166 1.5 -3.3401038309e-06 
-4.4499999158 1.4499999993 9.2251730166e-07 -4.4499999158 1.5 -3.523277428e-06 -4.3999999151 1.4499999993 9.7720680969e-07 
-4.3999999151 1.5 -3.7315742247e-06 -4.3499999143 1.4499999993 1.0399784287e-06 -4.3499999143 1.5 -3.9707138058e-06 
-4.2999999136 1.4499999993 1.1128730648e-06 -4.2999999136 1.5 -4.2483839024e-06 -4.2499999128 1.4499999993 1.1987552853e-06 
-4.2499999128 1.5 -4.5748902266e-06 -4.1999999121 1.4499999993 1.3011657529e-06 -4.1999999121 1.5 -4.9644031606e-06 
-4.1499999113 1.4499999993 1.4254733287e-06 -4.1499999113 1.5 -5.4365982578e-06 -4.0999999106 1.4499999993 1.5792709291e-06 
-4.0999999106 1.5 -6.0198744904e-06 -4.0499999098 1.4499999993 1.773699978e-06 -4.0499999098 1.5 -6.7561800279e-06 
-3.9999999091 1.4499999993 2.0261729787e-06 -3.9999999091 1.5 -7.7096901805e-06 -3.9499999084 1.4499999993 2.1821822429e-06 
[...]
CELL_DATA 9510
FIELD FieldData 4
Water_Depth_m 1 9510 float
0.740001 0.740002 0.740002 0.740003 0.740004 0.740004 0.740005 0.740006 0.740006 
0.740007 0.740008 0.740008 0.740009 0.74001 0.74001 0.740011 0.740012 0.740012 
0.740013 0.740014 0.740014 0.740015 0.740016 0.740016 0.740017 0.740018 0.740018 
0.740019 0.74002 0.74002 0.740021 0.740022 0.740022 0.740023 0.740024 0.740024 
0.740025 0.740026 0.740026 0.740027 0.740028 0.740028 0.740029 0.74003 0.74003 
0.740031 0.740032 0.740032 0.740033 0.740034 0.740034 0.740035 0.740036 0.740037 
0.740037 0.740038 0.740039 0.740039 0.74004 0.740041 0.740041 0.740042 0.740043 
0.740043 0.740044 0.740045 0.740045 0.740046 0.740047 0.740047 0.740048 0.740049 
0.740049 0.74005 0.740051 0.740052 0.740052 0.740053 0.740054 0.740054 0.740055 
0.740056 0.740056 0.740057 0.740058 0.740058 0.740059 0.74006 0.74006 0.740061 
0.740062 0.740062 0.740063 0.740064 0.740065 0.740065 0.740066 0.740067 0.740067 
0.740068 0.740069 0.740069 0.74007 0.740071 0.740071 0.740072 0.740073 0.740074 
0.740074 0.740075 0.740076 0.740076 0.740077 0.740078 0.740078 0.740079 0.74008 
0.74008 0.740081 0.740082 0.740082 0.740083 0.740084 0.740085 0.740087 0.740089 
0.740093 0.7401 0.740116 0.740176 0.740373 0.740248 0.734784 0.721447 0.701987 
0.678075 0.651009 0.621912 0.591831 0.561764 0.533243 0.507096 0.484338 0.466416 
0.455296 0.453402 0.453397 0.453396 0.453398 0.453403 0.453411 0.453419 0.453427 
0.453436 0.453446 0.453456 0.453467 0.453479 0.453492 0.453506 0.45352 0.453534 
0.453549 0.453563 0.453574 0.453581 0.453582 0.45359 0.457157 0.467619 0.468419 
0.464432 0.452716 0.431499 0.403397 0.351971 0.32456 0.294213 0.273304 0.269885 
0.284239 0.29212 0.307378 0.340475 0.351494 0.358376 0.372644 0.391431 0.41109 
0.434648 0.44251 0.46291 0.479807 0.484309 0.498288 0.506511 0.528827 0.564903 
0.685598 0.642814 0.60726 0.56897 0.530276 0.506626 0.506787 0.511722 0.511498 
0.501544 0.501249 0.501092 0.501042 0.50102 0.501009 0.501002 0.500999 0.500997 
0.500996 0.500996 0.500997 0.500998 0.500999 0.501001 0.501003 0.501005 0.501006 
0.501008 0.501011 0.501013 0.501015 0.501017 0.501019 0.501021 0.501024 0.501026 
0.501028 0.501031 0.501033 0.501035 0.501038 0.50104 0.501042 0.501045 0.501047 
0.501049 0.501052 0.501054 0.501056 0.501059 0.501061 0.501064 0.501066 0.501068 
0.501071 0.501073 0.501076 0.501078 0.50108 0.501083 0.501085 0.501088 0.50109 
0.501093 0.501095 0.501097 0.5011 0.501102 0.501105 0.501107 0.50111 0.501112 
0.501114 0.501117 0.501119 0.501122 0.501124 0.501127 0.501129 0.501132 0.501134 
0.501136 0.501139 0.501141 0.501144 0.501146 0.501149 0.501151 0.501154 0.501156 
0.501159 0.501161 0.50116 0.501146 0.500701 0.498183 0.493897 0.74 0.740001 
0.740002 0.740002 0.740003 0.740004 0.740004 0.740005 0.740006 0.740006 0.740007 
0.740008 0.740008 0.740009 0.74001 0.74001 0.740011 0.740012 0.740012 0.740013 
0.740014 0.740014 0.740015 0.740016 0.740016 0.740017 0.740018 0.740018 0.740019 
0.74002 0.74002 0.740021 0.740022 0.740022 0.740023 0.740024 0.740024 0.740025 
0.740026 0.740026 0.740027 0.740028 0.740028 0.740029 0.74003 0.74003 0.740031 
0.740032 0.740032 0.740033 0.740034 0.740034 0.740035 0.740036 0.740036 0.740037 
0.740038 0.740038 0.740039 0.74004 0.74004 0.740041 0.740042 0.740042 0.740043 
0.740044 0.740044 0.740045 0.740046 0.740046 0.740047 0.740048 0.740048 0.740049 
0.74005 0.74005 0.740051 0.740052 0.740052 0.740053 0.740054 0.740054 0.740055 
0.740056 0.740056 0.740057 0.740058 0.740058 0.740059 0.740059 0.74006 0.740061 
0.740061 0.740062 0.740063 0.740063 0.740064 0.740065 0.740065 0.740066 0.740067 
0.740067 0.740068 0.740068 0.740069 0.74007 0.74007 0.740071 0.740071 0.740072 
0.740072 0.740073 0.740074 0.740074 0.740075 0.740075 0.740075 0.740076 0.740076 
0.740076 0.740076 0.740076 0.740076 0.740076 0.740075 0.740075 0.740074 0.740073 
0.740071 0.740071 0.740097 0.74004 0.735146 0.722507 0.70351 0.67971 0.65248 
0.623037 0.592502 0.561904 0.532577 0.505637 0.482505 0.464888 0.454957 0.453416 
0.453404 0.453397 0.453398 0.453401 0.453407 0.453413 0.45342 0.453428 0.453437 
0.453446 0.453457 0.453468 0.45348 0.453493 0.453507 0.453521 0.453536 0.453551 
0.453565 0.453575 0.453584 0.453599 0.457344 0.467106 0.467751 0.465174 0.442869 
0.417104 0.391891 0.346496 0.318502 0.286356 0.262963 0.274927 0.294914 0.299275 
0.31323 0.33915 0.356654 0.368997 0.397997 0.413787 0.431756 0.449169 0.471768 
0.494925 0.501224 0.514116 0.534527 0.537328 0.539194 0.571166 0.675257 0.63284 
0.591486 0.558088 0.531473 0.509867 0.514328 0.516606 0.515446 0.502126 0.500978 
0.500975 0.500972 0.500971 0.500972 0.500973 0.500974 0.500976 0.500978 0.50098 
0.500982 0.500985 0.500987 0.500989 0.500992 0.500995 0.500997 0.501 0.501002 
0.501005 0.501007 0.50101 0.501012 0.501015 0.501018 0.50102 0.501023 0.501025 
0.501028 0.50103 0.501033 0.501035 0.501038 0.50104 0.501043 0.501045 0.501048 
0.50105 0.501053 0.501055 0.501058 0.50106 0.501063 0.501065 0.501068 0.50107 
0.501073 0.501075 0.501078 0.50108 0.501083 0.501085 0.501088 0.50109 0.501093 
0.501095 0.501098 0.5011 0.501103 0.501105 0.501107 0.50111 0.501112 0.501115 
0.501117 0.50112 0.501122 0.501125 0.501127 0.50113 0.501132 0.501135 0.501137 
0.50114 0.501142 0.501145 0.501147 0.501149 0.501152 0.501154 0.501157 0.501159 
0.501158 0.501144 0.500699 0.49818 0.493892 0.74 0.740001 0.740002 0.740002 
0.740003 0.740004 0.740004 0.740005 0.740006 0.740006 0.740007 0.740008 0.740008 
0.740009 0.74001 0.74001 0.740011 0.740012 0.740012 0.740013 0.740014 0.740014 
0.740015 0.740016 0.740016 0.740017 0.740018 0.740018 0.740019 0.74002 0.74002 
0.740021 0.740022 0.740022 0.740023 0.740024 0.740024 0.740025 0.740026 0.740026 
0.740027 0.740028 0.740028 0.740029 0.74003 0.74003 0.740031 0.740032 0.740032 
0.740033 0.740034 0.740034 0.740035 0.740036 0.740036 0.740037 0.740038 0.740038 
0.740039 0.74004 0.74004 0.740041 0.740042 0.740042 0.740043 0.740044 0.740044 
0.740045 0.740046 0.740046 0.740047 0.740048 0.740048 0.740049 0.74005 0.74005 
0.740051 0.740052 0.740052 0.740053 0.740054 0.740054 0.740055 0.740056 0.740056 
0.740057 0.740058 0.740058 0.740059 0.74006 0.74006 0.740061 0.740062 0.740062 
0.740063 0.740063 0.740064 0.740065 0.740065 0.740066 0.740067 0.740067 0.740068 
0.740069 0.740069 0.74007 0.74007 0.740071 0.740072 0.740072 0.740073 0.740073 
0.740074 0.740074 0.740075 0.740075 0.740076 0.740076 0.740076 0.740077 0.740077 
0.740077 0.740077 0.740077 0.740077 0.740076 0.740076 0.740075 0.740075 0.740078 
0.740153 0.740043 0.735295 0.722998 0.704329 0.680688 0.653421 0.623781 0.592936 
0.561986 0.532228 0.50493 0.481727 0.464419 0.454881 0.453385 0.453387 0.45339 
0.453394 0.453399 0.453405 0.453412 0.453419 0.453427 0.453436 0.453445 0.453455 
0.453466 0.453479 0.453492 0.453506 0.453521 0.453537 0.453554 0.453572 0.45359 
0.453605 0.453662 0.455061 0.458558 0.460109 0.461956 0.441314 0.402556 0.385585 
0.341761 0.31473 0.280856 0.263634 0.275882 0.293855 0.302084 0.318422 0.337607 
0.356647 0.372792 0.399725 0.414805 0.435548 0.460412 0.481631 0.49839 0.511656 
0.526976 0.542165 0.55529 0.564749 0.591142 0.683172 0.635979 0.602738 0.569085 
0.532765 0.512062 0.519147 0.520963 0.518777 0.501795 0.500981 0.500978 0.500973 
0.500972 0.500972 0.500973 0.500974 0.500976 0.500978 0.50098 0.500983 0.500985 
0.500987 0.50099 0.500992 0.500995 0.500997 0.501 0.501003 0.501005 0.501008 
0.50101 0.501013 0.501015 0.501018 0.50102 0.501023 0.501025 0.501028 0.50103 
0.501033 0.501035 0.501038 0.50104 0.501043 0.501045 0.501048 0.50105 0.501053 
0.501055 0.501058 0.50106 0.501063 0.501065 0.501068 0.50107 0.501073 0.501075 
0.501078 0.50108 0.501083 0.501085 0.501088 0.50109 0.501093 0.501095 0.501098 
0.5011 0.501103 0.501105 0.501108 0.50111 0.501112 0.501115 0.501117 0.50112 
0.501122 0.501125 0.501127 0.50113 0.501132 0.501135 0.501137 0.50114 0.501142 
0.501145 0.501147 0.50115 0.501152 0.501155 0.501157 0.501159 0.501158 0.501144 
0.500699 0.498181 0.493893 0.74 0.740001 0.740002 0.740002 0.740003 0.740004 
0.740004 0.740005 0.740006 0.740006 0.740007 0.740008 0.740008 0.740009 0.74001 
0.74001 0.740011 0.740012 0.740012 0.740013 0.740014 0.740014 0.740015 0.740016 
0.740016 0.740017 0.740018 0.740018 0.740019 0.74002 0.74002 0.740021 0.740022 
0.740022 0.740023 0.740024 0.740024 0.740025 0.740026 0.740026 0.740027 0.740028 
0.740028 0.740029 0.74003 0.74003 0.740031 0.740032 0.740032 0.740033 0.740034 
0.740034 0.740035 0.740036 0.740036 0.740037 0.740038 0.740038 0.740039 0.74004 
0.74004 0.740041 0.740042 0.740042 0.740043 0.740044 0.740044 0.740045 0.740046 
0.740046 0.740047 0.740048 0.740048 0.740049 0.74005 0.74005 0.740051 0.740052 
0.740052 0.740053 0.740054 0.740054 0.740055 0.740056 0.740056 0.740057 0.740058 
0.740058 0.740059 0.740059 0.74006 0.740061 0.740061 0.740062 0.740063 0.740063 
0.740064 0.740065 0.740065 0.740066 0.740067 0.740067 0.740068 0.740068 0.740069 
0.74007 0.74007 0.740071 0.740071 0.740072 0.740073 0.740073 0.740074 0.740074 
0.740075 0.740075 0.740075 0.740076 0.740076 0.740076 0.740077 0.740077 0.740077 
0.740077 0.740077 0.740076 0.740076 0.740075 0.740073 0.740072 0.740141 0.740044 
0.735359 0.723228 0.704751 0.681232 0.653972 0.624224 0.593188 0.562028 0.53204 
0.50461 0.48143 0.46427 0.454874 0.453382 0.453385 0.453388 0.453392 0.453397 
0.453403 0.453409 0.453416 0.453424 0.453433 0.453442 0.453452 0.453463 0.453475 
0.453488 0.453502 0.453518 0.453536 0.453556 0.453578 0.453605 0.45363 0.453775 
0.453839 0.450968 0.446259 0.448134 0.436279 0.401535 0.372166 0.341992 0.314452 
0.280343 0.261482 0.273012 0.285433 0.300891 0.317112 0.335204 0.353516 0.371539 
0.393545 0.406674 0.431252 0.455313 0.476647 0.488855 0.509353 0.525565 0.540545 
0.551981 0.564949 0.601066 0.687035 0.636301 0.602421 0.568901 0.532744 0.515933 
0.522501 0.523608 0.520035 0.502074 0.500964 0.500964 0.500965 0.500966 0.500968 
0.50097 0.500972 0.500974 0.500977 0.500979 0.500981 0.500984 0.500986 0.500989 
0.500992 0.500994 0.500997 0.500999 0.501002 0.501005 0.501007 0.50101 0.501012 
0.501015 0.501017 0.50102 0.501023 0.501025 0.501028 0.50103 0.501033 0.501035 
0.501038 0.50104 0.501043 0.501045 0.501048 0.50105 0.501053 0.501055 0.501058 
0.50106 0.501063 0.501065 0.501068 0.50107 0.501073 0.501075 0.501078 0.50108 
0.501083 0.501085 0.501087 0.50109 0.501092 0.501095 0.501097 0.5011 0.501102 
0.501105 0.501107 0.50111 0.501112 0.501115 0.501117 0.50112 0.501122 0.501125 
0.501127 0.50113 0.501132 0.501135 0.501137 0.50114 0.501142 0.501144 0.501147 
0.501149 0.501152 0.501154 0.501157 0.501159 0.501158 0.501144 0.500699 0.49818 
0.493892 0.74 0.740001 0.740002 0.740002 0.740003 0.740004 0.740004 0.740005 
0.740006 0.740006 0.740007 0.740008 0.740008 0.740009 0.74001 0.74001 0.740011 
0.740012 0.740012 0.740013 0.740014 0.740014 0.740015 0.740016 0.740016 0.740017 
0.740018 0.740018 0.740019 0.74002 0.74002 0.740021 0.740022 0.740022 0.740023 
0.740024 0.740024 0.740025 0.740026 0.740026 0.740027 0.740028 0.740028 0.740029 
0.74003 0.74003 0.740031 0.740032 0.740032 0.740033 0.740034 0.740034 0.740035 
0.740036 0.740036 0.740037 0.740038 0.740038 0.740039 0.74004 0.74004 0.740041 
0.740042 0.740042 0.740043 0.740044 0.740044 0.740045 0.740046 0.740046 0.740047 
0.740048 0.740048 0.740049 0.74005 0.74005 0.740051 0.740052 0.740052 0.740053 
0.740054 0.740054 0.740055 0.740056 0.740056 0.740057 0.740058 0.740058 0.740059 
0.740059 0.74006 0.740061 0.740061 0.740062 0.740063 0.740063 0.740064 0.740065 
0.740065 0.740066 0.740067 0.740067 0.740068 0.740068 0.740069 0.74007 0.74007 
0.740071 0.740071 0.740072 0.740073 0.740073 0.740074 0.740074 0.740075 0.740075 
0.740076 0.740076 0.740076 0.740077 0.740077 0.740077 0.740077 0.740078 0.740078 
0.740077 0.740077 0.740077 0.740076 0.740077 0.740148 0.740049 0.735388 0.723332 
0.704956 0.681512 0.654265 0.624461 0.59332 0.562046 0.531941 0.504466 0.481317 
0.464223 0.454865 0.453376 0.453379 0.453383 0.453388 0.453393 0.453399 0.453406 
0.453413 0.453421 0.453429 0.453438 0.453448 0.453459 0.453471 0.453484 0.453498 
0.453514 0.453533 0.453555 0.453582 0.453616 0.453651 0.45395 0.454092 0.448173 
0.440605 0.442363 0.431816 0.394382 0.362138 0.336914 0.308355 0.274194 0.260749 
0.288318 0.288083 0.29725 0.314077 0.326246 0.344401 0.364789 0.379545 0.39513 
0.411055 0.428958 0.450324 0.463286 0.491428 0.507856 0.522136 0.532162 0.556885 
0.600713 0.681626 0.630288 0.594497 0.562074 0.531962 0.519618 0.525441 0.526042 
0.52169 0.501972 0.500959 0.500961 0.500962 0.500964 0.500966 0.500969 0.500971 
0.500973 0.500976 0.500979 0.500981 0.500984 0.500986 0.500989 0.500992 0.500994 
0.500997 0.500999 0.501002 0.501005 0.501007 0.50101 0.501012 0.501015 0.501018 
0.50102 0.501023 0.501025 0.501028 0.50103 0.501033 0.501035 0.501038 0.50104 
0.501043 0.501045 0.501048 0.50105 0.501053 0.501055 0.501058 0.50106 0.501063 
0.501065 0.501068 0.50107 0.501073 0.501075 0.501078 0.50108 0.501083 0.501085 
0.501087 0.50109 0.501092 0.501095 0.501097 0.5011 0.501102 0.501105 0.501107 
0.50111 0.501112 0.501115 0.501117 0.50112 0.501122 0.501125 0.501127 0.50113 
0.501132 0.501135 0.501137 0.50114 0.501142 0.501144 0.501147 0.501149 0.501152 
0.501154 0.501157 0.501159 0.501158 0.501144 0.500699 0.49818 0.493892 0.74 
0.740001 0.740002 0.740002 0.740003 0.740004 0.740004 0.740005 0.740006 0.740006 
0.740007 0.740008 0.740008 0.740009 0.74001 0.74001 0.740011 0.740012 0.740012 
0.740013 0.740014 0.740014 0.740015 0.740016 0.740016 0.740017 0.740018 0.740018 
0.740019 0.74002 0.74002 0.740021 0.740022 0.740022 0.740023 0.740024 0.740024 
0.740025 0.740026 0.740026 0.740027 0.740028 0.740028 0.740029 0.74003 0.74003 
0.740031 0.740032 0.740032 0.740033 0.740034 0.740034 0.740035 0.740036 0.740036 
0.740037 0.740038 0.740038 0.740039 0.74004 0.74004 0.740041 0.740042 0.740042 
0.740043 0.740044 0.740044 0.740045 0.740046 0.740046 0.740047 0.740048 0.740048 
0.740049 0.74005 0.74005 0.740051 0.740052 0.740052 0.740053 0.740054 0.740054 
0.740055 0.740056 0.740056 0.740057 0.740058 0.740058 0.740059 0.740059 0.74006 
0.740061 0.740061 0.740062 0.740063 0.740063 0.740064 0.740065 0.740065 0.740066 
0.740067 0.740067 0.740068 0.740068 0.740069 0.74007 0.74007 0.740071 0.740072 
0.740072 0.740073 0.740073 0.740074 0.740074 0.740075 0.740075 0.740076 0.740076 
0.740077 0.740077 0.740078 0.740078 0.740078 0.740079 0.740079 0.740079 0.740079 
0.740079 0.740079 0.74008 0.740152 0.740054 0.735401 0.723375 0.705045 0.68164 
0.654403 0.624573 0.593379 0.562049 0.531888 0.504397 0.481269 0.464204 0.454858 
0.45337 0.453374 0.453379 0.453384 0.45339 0.453396 0.453402 0.453409 0.453417 
0.453425 0.453434 0.453444 0.453454 0.453466 0.453478 0.453492 0.453508 0.453526 
0.453548 0.453577 0.453615 0.453656 0.454049 0.454239 0.444859 0.41983 0.422904 
0.41892 0.402119 0.367471 0.335716 0.304433 0.274665 0.263944 0.284531 0.284839 
0.295558 0.315144 0.3245 0.340039 0.354463 0.370629 0.403772 0.406423 0.42101 
0.433337 0.453308 0.46536 0.488057 0.504148 0.543677 0.561467 0.595854 0.667607 
0.631536 0.60168 0.5681 0.537098 0.52258 0.528153 0.528449 0.52341 0.502104 
0.500953 0.500957 0.500959 0.500962 0.500964 0.500967 0.50097 0.500973 0.500975 
0.500978 0.500981 0.500983 0.500986 0.500989 0.500991 0.500994 0.500997 0.500999 
0.501002 0.501005 0.501007 0.50101 0.501012 0.501015 0.501017 0.50102 0.501023 
0.501025 0.501028 0.50103 0.501033 0.501035 0.501038 0.50104 0.501043 0.501045 
0.501048 0.50105 0.501053 0.501055 0.501058 0.50106 0.501063 0.501065 0.501068 
0.50107 0.501073 0.501075 0.501078 0.50108 0.501083 0.501085 0.501087 0.50109 
0.501092 0.501095 0.501097 0.5011 0.501102 0.501105 0.501107 0.50111 0.501112 
0.501115 0.501117 0.50112 0.501122 0.501125 0.501127 0.50113 0.501132 0.501135 
0.501137 0.50114 0.501142 0.501144 0.501147 0.501149 0.501152 0.501154 0.501157 
0.501159 0.501158 0.501144 0.500699 0.49818 0.493892 0.74 0.740001 0.740002 
0.740002 0.740003 0.740004 0.740004 0.740005 0.740006 0.740006 0.740007 0.740008 
0.740008 0.740009 0.74001 0.74001 0.740011 0.740012 0.740012 0.740013 0.740014 
0.740014 0.740015 0.740016 0.740016 0.740017 0.740018 0.740018 0.740019 0.74002 
0.74002 0.740021 0.740022 0.740022 0.740023 0.740024 0.740024 0.740025 0.740026 
0.740026 0.740027 0.740028 0.740028 0.740029 0.74003 0.74003 0.740031 0.740032 
0.740032 0.740033 0.740034 0.740034 0.740035 0.740036 0.740036 0.740037 0.740038 
0.740038 0.740039 0.74004 0.74004 0.740041 0.740042 0.740042 0.740043 0.740044 
0.740044 0.740045 0.740046 0.740046 0.740047 0.740048 0.740048 0.740049 0.74005 
0.74005 0.740051 0.740052 0.740052 0.740053 0.740054 0.740054 0.740055 0.740056 
0.740056 0.740057 0.740058 0.740058 0.740059 0.740059 0.74006 0.740061 0.740061 
0.740062 0.740063 0.740063 0.740064 0.740065 0.740065 0.740066 0.740067 0.740067 
0.740068 0.740068 0.740069 0.74007 0.74007 0.740071 0.740072 0.740072 0.740073 
0.740073 0.740074 0.740075 0.740075 0.740076 0.740076 0.740077 0.740077 0.740078 
0.740078 0.740079 0.740079 0.74008 0.74008 0.740081 0.740081 0.740082 0.740083 
0.740085 0.740157 0.74006 0.735407 0.723388 0.705075 0.681688 0.654457 0.624616 
0.593399 0.562045 0.531856 0.50436 0.481244 0.464192 0.45485 0.453363 0.453368 
0.453374 0.453379 0.453385 0.453391 0.453398 0.453405 0.453413 0.453421 0.453429 
0.453438 0.453448 0.453459 0.453471 0.453484 0.453498 0.453515 0.453536 0.453561 
0.453594 0.453632 0.453952 0.454117 0.449324 0.442115 0.441907 0.438139 0.411483 
0.365786 0.341059 0.332211 0.285125 0.270717 0.284646 0.291659 0.305981 0.318718 
0.325805 0.33611 0.347384 0.354174 0.398548 0.399867 0.403689 0.411333 0.425165 
0.453131 0.481558 0.503234 0.542124 0.561905 0.593707 0.68179 0.640478 0.609126 
0.575459 0.5398 0.525089 0.530973 0.530983 0.525149 0.502176 0.500948 0.500953 
0.500956 0.500959 0.500963 0.500966 0.500969 0.500972 0.500975 0.500978 0.50098 
0.500983 0.500986 0.500989 0.500991 0.500994 0.500997 0.500999 0.501002 0.501005 
0.501007 0.50101 0.501012 0.501015 0.501018 0.50102 0.501023 0.501025 0.501028 
0.50103 0.501033 0.501035 0.501038 0.50104 0.501043 0.501045 0.501048 0.50105 
0.501053 0.501055 0.501058 0.50106 0.501063 0.501065 0.501068 0.50107 0.501073 
0.501075 0.501078 0.50108 0.501083 0.501085 0.501087 0.50109 0.501092 0.501095 
0.501097 0.5011 0.501102 0.501105 0.501107 0.50111 0.501112 0.501115 0.501117 
0.50112 0.501122 0.501125 0.501127 0.50113 0.501132 0.501135 0.501137 0.50114 
0.501142 0.501144 0.501147 0.501149 0.501152 0.501154 0.501157 0.501159 0.501158 
0.501144 0.500699 0.49818 0.493892 0.74 0.740001 0.740002 0.740002 0.740003 
0.740004 0.740004 0.740005 0.740006 0.740006 0.740007 0.740008 0.740008 0.740009 
0.74001 0.74001 0.740011 0.740012 0.740012 0.740013 0.740014 0.740014 0.740015 
0.740016 0.740016 0.740017 0.740018 0.740018 0.740019 0.74002 0.74002 0.740021 
0.740022 0.740022 0.740023 0.740024 0.740024 0.740025 0.740026 0.740026 0.740027 
0.740028 0.740028 0.740029 0.74003 0.74003 0.740031 0.740032 0.740032 0.740033 
0.740034 0.740034 0.740035 0.740036 0.740036 0.740037 0.740038 0.740038 0.740039 
0.74004 0.74004 0.740041 0.740042 0.740042 0.740043 0.740044 0.740044 0.740045 
0.740046 0.740046 0.740047 0.740048 0.740048 0.740049 0.74005 0.74005 0.740051 
0.740052 0.740052 0.740053 0.740054 0.740054 0.740055 0.740056 0.740056 0.740057 
0.740058 0.740058 0.740059 0.740059 0.74006 0.740061 0.740061 0.740062 0.740063 
0.740063 0.740064 0.740065 0.740065 0.740066 0.740067 0.740067 0.740068 0.740069 
0.740069 0.74007 0.74007 0.740071 0.740072 0.740072 0.740073 0.740074 0.740074 
0.740075 0.740075 0.740076 0.740076 0.740077 0.740078 0.740078 0.740079 0.740079 
0.74008 0.740081 0.740081 0.740082 0.740083 0.740085 0.740086 0.740089 0.740163 
0.740066 0.735411 0.723393 0.705079 0.681695 0.654467 0.624624 0.5934 0.562038 
0.531837 0.504337 0.481228 0.464182 0.454843 0.453356 0.453362 0.453368 0.453374 
0.45338 0.453387 0.453393 0.4534 0.453407 0.453415 0.453423 0.453432 0.453441 