# vtk DataFile Version 5.1
vtk output
ASCII
DATASET UNSTRUCTURED_GRID
POINTS 9610 double
0.1016 1.5 0.07553717494 0.1016 1.45 0.072586730123 0.1016 1.4 0.075662434101 
0.1016 1.35 0.07241269201 0.1016 1.3 0.073299214244 0.1016 1.25 0.083241671324 
0.1016 1.2 0.08569123596 0.1016 1.15 0.077467411757 0.1016 1.1 0.068724192679 
0.1016 1.05 0.058219458908 0.1016 1 0.047355044633 0.1016 0.95 0.05262138322 
0.1016 0.9 0.054255034775 0.1016 0.85 0.049980182201 0.1016 0.8 0.054412789643 
0.1016 0.75 0.072089999914 0.1016 0.7 0.091008931398 0.1016 0.65 0.09657767415 
0.1016 0.6 0.089469343424 0.1016 0.55 0.089980430901 0.1016 0.5 0.096735879779 
0.1016 0.45 0.10385231674 0.1016 0.4 0.094612747431 0.1016 0.35 0.082164645195 
0.1016 0.3 0.08035415411 0.1016 0.25 0.089107640088 0.1016 0.2 0.091087311506 
0.1016 0.15 0.081848211586 0.1016 0.1 0.075282156467 0.1016 0.05 0.069869413972 
0.1016 0 0.067057110369 5.08 1.5 0.28700000048 5.08 1.45 0.28700000048 
5.08 1.4 0.28700000048 5.08 1.35 0.28700000048 5.08 1.3 0.28700000048 
5.08 1.25 0.28700000048 5.08 1.2 0.28700000048 5.08 1.15 0.28700000048 
5.08 1.1 0.28700000048 5.08 1.05 0.28700000048 5.08 1 0.28700000048 
5.08 0.95 0.28700000048 5.08 0.9 0.28700000048 5.08 0.85 0.28700000048 
5.08 0.8 0.28700000048 5.08 0.75 0.28700000048 5.08 0.7 0.28700000048 
5.08 0.65 0.28700000048 5.08 0.6 0.28700000048 5.08 0.55 0.28700000048 
5.08 0.5 0.28700000048 5.08 0.45 0.28700000048 5.08 0.4 0.28700000048 
5.08 0.35 0.28700000048 5.08 0.3 0.28700000048 5.08 0.25 0.28700000048 
5.08 0.2 0.28700000048 5.08 0.15 0.28700000048 5.08 0.1 0.28700000048 
5.08 0.05 0.28700000048 5.08 0 0.28700000048 0.151384 1.5 0.090614773333 
0.151384 1.45 0.090539246798 0.151384 1.4 0.10428993404 0.151384 1.35 0.091513998806 
0.151384 1.3 0.087625131011 0.151384 1.25 0.10741644353 0.151384 1.2 0.10945007205 
0.151384 1.15 0.094590209424 0.151384 1.1 0.08657322824 0.151384 1.05 0.080418519676 
0.151384 1 0.054744616151 0.151384 0.95 0.070542007685 0.151384 0.9 0.073492459953 
0.151384 0.85 0.065512552857 0.151384 0.8 0.066590674222 0.151384 0.75 0.086605943739 
0.151384 0.7 0.11054953188 0.151384 0.65 0.1184823364 0.151384 0.6 0.097780004144 
0.151384 0.55 0.10460165888 0.151384 0.5 0.11066024005 0.151384 0.45 0.13039319217 
0.151384 0.4 0.11354082078 0.151384 0.35 0.096594825387 0.151384 0.3 0.090717747808 
0.151384 0.25 0.10659813136 0.151384 0.2 0.11055461317 0.151384 0.15 0.088837958872 
0.151384 0.1 0.090591408312 0.151384 0.05 0.086541190743 0.151384 0 0.080604672432 
0.201168 1.5 0.11777001619 0.201168 1.45 0.12939123809 0.201168 1.4 0.14341463149 
0.201168 1.35 0.12747333944 0.201168 1.3 0.12244204432 0.201168 1.25 0.14342571795 
0.201168 1.2 0.13782611489 0.201168 1.15 0.12563630939 0.201168 1.1 0.11473683268 
0.201168 1.05 0.11732920259 0.201168 1 0.10000197589 0.201168 0.95 0.091014869511 
0.201168 0.9 0.10942294449 0.201168 0.85 0.11205178499 0.201168 0.8 0.11109313369 
0.201168 0.75 0.11571389437 0.201168 0.7 0.13586455584 0.201168 0.65 0.14760138094 
0.201168 0.6 0.12570586801 0.201168 0.55 0.13646830618 0.201168 0.5 0.14355620742 
0.201168 0.45 0.15392751992 0.201168 0.4 0.14757317305 0.201168 0.35 0.13431586325 
0.201168 0.3 0.11874909699 0.201168 0.25 0.12991766632 0.201168 0.2 0.13107007742 
0.201168 0.15 0.12015999854 0.201168 0.1 0.12344000489 0.201168 0.05 0.11064000428 
0.201168 0 0.12508000433 0.250952 1.5 0.15376405418 0.250952 1.45 0.16291598976 
0.250952 1.4 0.16549560428 0.250952 1.35 0.16194143891 0.250952 1.3 0.16829551756 
0.250952 1.25 0.17509652674 0.250952 1.2 0.16629597545 0.250952 1.15 0.15710483491 
0.250952 1.1 0.15832109749 0.250952 1.05 0.15463031828 0.250952 1 0.13882249594 
0.250952 0.95 0.13247841597 0.250952 0.9 0.14482088387 0.250952 0.85 0.13861592114 
0.250952 0.8 0.14133302867 0.250952 0.75 0.148092255 0.250952 0.7 0.17184633017 
0.250952 0.65 0.18749898672 0.250952 0.6 0.17037445307 0.250952 0.55 0.17554911971 
0.250952 0.5 0.18078650534 0.250952 0.45 0.18977843225 0.250952 0.4 0.17453044653 
0.250952 0.35 0.16892449558 0.250952 0.3 0.15387426317 0.250952 0.25 0.16555188596 
0.250952 0.2 0.16206766665 0.250952 0.15 0.1557200104 0.250952 0.1 0.1606400013 
0.250952 0.05 0.14460000396 0.250952 0 0.16728000343 0.300736 1.5 0.18724030256 
0.300736 1.45 0.20370472968 0.300736 1.4 0.22031629086 0.300736 1.35 0.19358682632 
0.300736 1.3 0.20051541924 0.300736 1.25 0.20549027622 0.300736 1.2 0.19645866752 
0.300736 1.15 0.18840691447 0.300736 1.1 0.18611766398 0.300736 1.05 0.20321129262 
0.300736 1 0.16406552494 0.300736 0.95 0.16627067327 0.300736 0.9 0.17730879784 
0.300736 0.85 0.17571769655 0.300736 0.8 0.17230536044 0.300736 0.75 0.17951102555 
0.300736 0.7 0.19351065159 0.300736 0.65 0.21399375796 0.300736 0.6 0.20090480149 
0.300736 0.55 0.21114248037 0.300736 0.5 0.21706022322 0.300736 0.45 0.21125163138 
0.300736 0.4 0.20263709128 0.300736 0.35 0.19942955673 0.300736 0.3 0.1920542717 
0.300736 0.25 0.2021445781 0.300736 0.2 0.1996023953 0.300736 0.15 0.16139999032 
0.300736 0.1 0.19028000534 0.300736 0.05 0.17623999715 0.300736 0 0.22164000571 
0.35052 1.5 0.22863642871 0.35052 1.45 0.23421537876 0.35052 1.4 0.23869735003 
0.35052 1.35 0.22763724625 0.35052 1.3 0.23437358439 0.35052 1.25 0.23680537939 
0.35052 1.2 0.23051658273 0.35052 1.15 0.22239938378 0.35052 1.1 0.22033679485 
0.35052 1.05 0.20613434911 0.35052 1 0.21358257532 0.35052 0.95 0.20753590763 
0.35052 0.9 0.20705078542 0.35052 0.85 0.21589924395 0.35052 0.8 0.2091076225 
0.35052 0.75 0.20697136223 0.35052 0.7 0.22184735537 0.35052 0.65 0.237454772 
0.35052 0.6 0.23198954761 0.35052 0.55 0.24127683043 0.35052 0.5 0.25274798274 
0.35052 0.45 0.24195557833 0.35052 0.4 0.23832948506 0.35052 0.35 0.22985157371 
0.35052 0.3 0.22743009031 0.35052 0.25 0.22639991343 0.35052 0.2 0.22194777429 
0.35052 0.15 0.23019999266 0.35052 0.1 0.22540000081 0.35052 0.05 0.21899999678 
0.35052 0 0.24699999392 0.400304 1.5 0.26592051983 0.400304 1.45 0.26706492901 
0.400304 1.4 0.26453712583 0.400304 1.35 0.26389077306 0.400304 1.3 0.26394101977 
0.400304 1.25 0.26242849231 0.400304 1.2 0.25733023882 0.400304 1.15 0.25559693575 
0.400304 1.1 0.25228962302 0.400304 1.05 0.2324526459 0.400304 1 0.2511395216 
0.400304 0.95 0.24434675276 0.400304 0.9 0.23334616423 0.400304 0.85 0.24857497215 
0.400304 0.8 0.24607524276 0.400304 0.75 0.24556060135 0.400304 0.7 0.2518030107 
0.400304 0.65 0.25358602405 0.400304 0.6 0.25407192111 0.400304 0.55 0.25518795848 
0.400304 0.5 0.25752818584 0.400304 0.45 0.25806760788 0.400304 0.4 0.25932464004 
0.400304 0.35 0.25990742445 0.400304 0.3 0.2613530755 0.400304 0.25 0.26162454486 
0.400304 0.2 0.25546893477 0.400304 0.15 0.26715999842 0.400304 0.1 0.25872001052 
0.400304 0.05 0.26227998734 0.400304 0 0.26355999708 0.450088 1.5 0.28612622619 
0.450088 1.45 0.28484910727 0.450088 1.4 0.28075128794 0.450088 1.35 0.27819865942 
0.450088 1.3 0.27499672771 0.450088 1.25 0.2712584734 0.450088 1.2 0.26769369841 
0.450088 1.15 0.2664282918 0.450088 1.1 0.26186415553 0.450088 1.05 0.25313535333 
0.450088 1 0.25865450501 0.450088 0.95 0.25493007898 0.450088 0.9 0.24891191721 
0.450088 0.85 0.25599470735 0.450088 0.8 0.25854167342 0.450088 0.75 0.25905948877 
0.450088 0.7 0.25931295753 0.450088 0.65 0.25713437796 0.450088 0.6 0.25578075647 
0.450088 0.55 0.2537766397 0.450088 0.5 0.25315022469 0.450088 0.45 0.25639021397 
0.450088 0.4 0.26148712635 0.450088 0.35 0.26712396741 0.450088 0.3 0.27195706964 
0.450088 0.25 0.27371785045 0.450088 0.2 0.2730948925 0.450088 0.15 0.27913853526 
0.450088 0.1 0.27514895797 0.450088 0.05 0.27415531874 0.450088 0 0.27383312583 
0.499872 1.5 0.29312691092 0.499872 1.45 0.28690880537 0.499872 1.4 0.28001990914 
0.499872 1.35 0.27505648136 0.499872 1.3 0.27107337117 0.499872 1.25 0.26741027832 
0.499872 1.2 0.26432609558 0.499872 1.15 0.26172086596 0.499872 1.1 0.25753954053 
0.499872 1.05 0.25316652656 0.499872 1 0.25230500102 0.499872 0.95 0.25012046099 
0.499872 0.9 0.24785016477 0.499872 0.85 0.24975381792 0.499872 0.8 0.25204750896 
0.499872 0.75 0.25268420577 0.499872 0.7 0.25191059709 0.499872 0.65 0.25041997433 
0.499872 0.6 0.24901908636 0.499872 0.55 0.24742048979 0.499872 0.5 0.24678272009 
0.499872 0.45 0.24896767735 0.499872 0.4 0.25348797441 0.499872 0.35 0.25895187259 
0.499872 0.3 0.26410961151 0.499872 0.25 0.26733443141 0.499872 0.2 0.26953750849 
0.499872 0.15 0.27266132832 0.499872 0.1 0.27402433753 0.499872 0.05 0.27542313933 
0.499872 0 0.27720424533 0.549656 1.5 0.29478025436 0.549656 1.45 0.28194713593 
0.549656 1.4 0.27354833484 0.549656 1.35 0.26854613423 0.549656 1.3 0.26540139318 
0.549656 1.25 0.26271036267 0.549656 1.2 0.26012045145 0.549656 1.15 0.25750741363 
0.549656 1.1 0.25404635072 0.549656 1.05 0.25025397539 0.549656 1 0.24849590659 
0.549656 0.95 0.24716900289 0.549656 0.9 0.24565604329 0.549656 0.85 0.24559685588 
0.549656 0.8 0.24699191749 0.549656 0.75 0.24764293432 0.549656 0.7 0.2468572706 
0.549656 0.65 0.24708242714 0.549656 0.6 0.24750550091 0.549656 0.55 0.24712203443 
0.549656 0.5 0.24601733685 0.549656 0.45 0.24675409496 0.549656 0.4 0.24925287068 
0.549656 0.35 0.25236439705 0.549656 0.3 0.25670140982 0.549656 0.25 0.2600440383 
0.549656 0.2 0.26218295097 0.549656 0.15 0.26437482238 0.549656 0.1 0.26884609461 
0.549656 0.05 0.27404668927 0.549656 0 0.27760261297 0.59944 1.5 0.29526519775 
0.59944 1.45 0.27798950672 0.59944 1.4 0.2758385241 0.59944 1.35 0.27246806026 
0.59944 1.3 0.27185976505 0.59944 1.25 0.27056837082 0.59944 1.2 0.26922178268 
0.59944 1.15 0.26787272096 0.59944 1.1 0.266310215 0.59944 1.05 0.26302695274 
0.59944 1 0.26263484359 0.59944 0.95 0.26242727041 0.59944 0.9 0.26126891375 
0.59944 0.85 0.26032009721 0.59944 0.8 0.26140961051 0.59944 0.75 0.2623540163 
0.59944 0.7 0.26057526469 0.59944 0.65 0.26239901781 0.59944 0.6 0.26355689764 
0.59944 0.55 0.26437866688 0.59944 0.5 0.26244387031 0.59944 0.45 0.2624656558 
0.59944 0.4 0.26362404227 0.59944 0.35 0.26329267025 0.59944 0.3 0.26658922434 
[...]
CELL_DATA 9270
FIELD FieldData 7
B_Stress_n_p_m2 1 9270 float
0.193165 0.185621 0.18697 0.188605 0.191084 0.193098 0.190922 0.187966 0.185926 
0.179103 0.175154 0.174428 0.171422 0.168956 0.171746 0.1796 0.186157 0.185025 
0.18566 0.187679 0.192699 0.193559 0.190496 0.188007 0.19048 0.192719 0.190205 
0.184567 0.17964 0.187583 0.110874 0.105392 0.125927 0.124453 0.123601 0.123282 
0.122024 0.119971 0.119185 0.118101 0.114483 0.115551 0.115662 0.114672 0.113665 
0.114807 0.117143 0.117032 0.116479 0.117745 0.118744 0.121101 0.120995 0.119104 
0.118718 0.120295 0.121266 0.121296 0.101537 0.108008 0.107506 0.141905 0.151737 
0.152243 0.150581 0.149035 0.146511 0.145517 0.145277 0.14165 0.139034 0.137904 
0.137816 0.137086 0.137987 0.139991 0.143939 0.144747 0.144052 0.145216 0.145788 
0.146245 0.146217 0.145097 0.144624 0.145738 0.144737 0.146551 0.136179 0.104376 
0.115172 0.160078 0.170971 0.17145 0.171139 0.168302 0.164853 0.163151 0.163745 
0.161402 0.156662 0.156248 0.156721 0.15405 0.154267 0.156997 0.161955 0.164827 
0.16602 0.168106 0.166983 0.166591 0.164633 0.164343 0.163931 0.165387 0.163301 
0.161289 0.151088 0.111422 0.130754 0.180461 0.196968 0.196519 0.196045 0.193933 
0.190652 0.187765 0.183616 0.18685 0.182038 0.180126 0.181688 0.180297 0.178323 
0.180023 0.18299 0.187071 0.188707 0.192268 0.193376 0.191764 0.190558 0.189984 
0.189466 0.189986 0.193252 0.18595 0.174052 0.126339 0.150196 0.201634 0.217803 
0.220542 0.219322 0.216982 0.214707 0.211663 0.207921 0.205427 0.207623 0.204256 
0.203682 0.20503 0.20343 0.20215 0.202413 0.203704 0.204399 0.205564 0.208811 
0.210164 0.212542 0.213793 0.215188 0.215268 0.216641 0.215947 0.197623 0.145104 
0.162504 0.215093 0.230218 0.232968 0.230187 0.227064 0.224453 0.222202 0.219827 
0.216133 0.216997 0.215118 0.212595 0.21401 0.213628 0.212118 0.210209 0.208152 
0.207805 0.207261 0.208709 0.212661 0.21723 0.221919 0.225554 0.228258 0.229224 
0.227605 0.209155 0.156283 0.164608 0.216005 0.229873 0.231038 0.228058 0.224744 
0.221974 0.219507 0.217127 0.21497 0.213065 0.211822 0.210204 0.209553 0.209452 
0.208264 0.206543 0.204854 0.203993 0.203368 0.204155 0.207075 0.211134 0.215893 
0.220221 0.223793 0.226121 0.224822 0.209548 0.157174 0.163955 0.213841 0.226978 
0.228016 0.225855 0.223314 0.221025 0.21877 0.216513 0.214843 0.212834 0.21158 
0.21026 0.209079 0.208626 0.207654 0.206916 0.206479 0.206255 0.205847 0.20616 
0.207586 0.209757 0.212984 0.216315 0.219342 0.221424 0.220452 0.207381 0.156814 
0.167156 0.216675 0.23143 0.233848 0.233323 0.232192 0.231077 0.229975 0.228737 
0.227572 0.226438 0.225596 0.224451 0.22325 0.222655 0.2219 0.221335 0.221449 
0.221753 0.221734 0.221606 0.221983 0.222629 0.223833 0.225607 0.227251 0.227918 
0.225432 0.211279 0.160836 0.170621 0.222015 0.239384 0.243381 0.244234 0.244297 
0.24427 0.244268 0.244387 0.244068 0.24371 0.243433 0.242836 0.241847 0.241118 
0.240646 0.239869 0.239699 0.239693 0.239926 0.239812 0.239782 0.239917 0.239739 
0.240128 0.240423 0.240077 0.235796 0.219175 0.167133 0.171027 0.224819 0.242145 
0.246742 0.247796 0.248174 0.248448 0.248715 0.249004 0.249289 0.249173 0.248967 
0.248662 0.248154 0.247493 0.246914 0.246574 0.246115 0.245839 0.245724 0.245845 
0.245826 0.245729 0.245696 0.245458 0.245301 0.244499 0.240386 0.223281 0.170274 
0.172534 0.225366 0.241985 0.246162 0.247116 0.247414 0.247605 0.247772 0.247918 
0.248 0.247911 0.247734 0.247455 0.247061 0.246611 0.246194 0.245854 0.245541 
0.24533 0.245212 0.245178 0.245124 0.245059 0.245003 0.24491 0.244782 0.244019 
0.240051 0.223618 0.171145 0.173501 0.226045 0.242197 0.246126 0.246974 0.247212 
0.247353 0.247467 0.247552 0.247584 0.247511 0.247363 0.24714 0.246845 0.246511 
0.246186 0.245905 0.24565 0.24546 0.245329 0.245255 0.245187 0.245122 0.245071 
0.245004 0.244883 0.244162 0.24035 0.224305 0.172071 0.1743 0.226576 0.242349 
0.246065 0.246806 0.246978 0.247066 0.247131 0.24717 0.247166 0.247096 0.246969 
0.246787 0.246558 0.246302 0.246048 0.245815 0.245607 0.24544 0.245314 0.245225 
0.245152 0.245093 0.245049 0.245008 0.24491 0.244245 0.240578 0.224851 0.172846 
0.174986 0.227019 0.242479 0.246022 0.246672 0.246787 0.246828 0.246854 0.24686 
0.246835 0.246766 0.246655 0.246505 0.246322 0.24612 0.245917 0.245725 0.245552 
0.245407 0.245291 0.245203 0.245134 0.245082 0.245049 0.245026 0.244952 0.244341 
0.240804 0.225349 0.173564 0.175605 0.227394 0.242579 0.245977 0.246551 0.246617 
0.246619 0.246613 0.246595 0.246555 0.246486 0.246387 0.24626 0.246111 0.245948 
0.245782 0.245625 0.24548 0.245355 0.245252 0.245172 0.24511 0.245068 0.245046 
0.245041 0.24499 0.244427 0.241008 0.2258 0.174241 0.17618 0.227719 0.242653 
0.245926 0.246437 0.246464 0.246435 0.246404 0.246367 0.246316 0.246247 0.246157 
0.246047 0.245922 0.245788 0.245652 0.245521 0.2454 0.245293 0.245205 0.245134 
0.245083 0.245051 0.245042 0.245052 0.245021 0.244501 0.241191 0.226218 0.174889 
0.176726 0.22801 0.242707 0.245868 0.246327 0.246323 0.24627 0.246219 0.246168 
0.246109 0.246039 0.245955 0.245859 0.245752 0.24564 0.245526 0.245416 0.245315 
0.245225 0.24515 0.245092 0.245051 0.24503 0.245033 0.245056 0.245043 0.244562 
0.241354 0.226608 0.175517 0.177254 0.228277 0.242746 0.245804 0.24622 0.246191 
0.246119 0.246053 0.245991 0.245926 0.245856 0.245777 0.245691 0.245598 0.245502 
0.245405 0.245313 0.245228 0.245154 0.245092 0.245045 0.245015 0.245005 0.245018 
0.245054 0.245057 0.244611 0.241499 0.226976 0.17613 0.177771 0.228525 0.242772 
0.245735 0.246114 0.246066 0.245979 0.245902 0.245831 0.245762 0.245691 0.245617 
0.245538 0.245456 0.245372 0.245291 0.245213 0.245142 0.24508 0.24503 0.244994 
0.244974 0.244974 0.244998 0.245044 0.245061 0.244647 0.241628 0.227325 0.176732 
0.178281 0.228762 0.242789 0.245663 0.24601 0.245947 0.245849 0.245762 0.245685 
0.245613 0.245542 0.245471 0.245398 0.245324 0.245251 0.245181 0.245115 0.245055 
0.245005 0.244966 0.24494 0.24493 0.244939 0.244972 0.245027 0.245057 0.244672 
0.241744 0.22766 0.177325 0.178789 0.22899 0.2428 0.245588 0.245907 0.245831 
0.245725 0.245632 0.24555 0.245476 0.245405 0.245336 0.245268 0.245201 0.245137 
0.245076 0.245019 0.24497 0.244929 0.2449 0.244883 0.244882 0.244899 0.24494 
0.245004 0.245045 0.244688 0.241846 0.227981 0.177912 0.179295 0.229212 0.242807 
0.245511 0.245805 0.245719 0.245607 0.245509 0.245424 0.245348 0.245277 0.245211 
0.245147 0.245086 0.245028 0.244974 0.244927 0.244886 0.244854 0.244832 0.244824 
0.24483 0.244856 0.244903 0.244975 0.245025 0.244694 0.241938 0.228291 0.178494 
0.179804 0.22943 0.24281 0.245433 0.245704 0.245611 0.245493 0.245392 0.245305 
0.245228 0.245157 0.245093 0.245032 0.244976 0.244924 0.244877 0.244836 0.244803 
0.244778 0.244764 0.244762 0.244776 0.244808 0.244862 0.24494 0.244999 0.244693 
0.242021 0.228591 0.179073 0.180315 0.229645 0.24281 0.245355 0.245604 0.245505 
0.245384 0.24528 0.245191 0.245113 0.245044 0.244981 0.244923 0.244871 0.244824 
0.244782 0.244748 0.24472 0.244702 0.244695 0.244699 0.244719 0.244757 0.244817 
0.2449 0.244968 0.244684 0.242094 0.228882 0.179649 0.18083 0.229859 0.242809 
0.245277 0.245506 0.245401 0.245277 0.245172 0.245082 0.245004 0.244935 0.244874 
0.244819 0.24477 0.244727 0.24469 0.244661 0.244639 0.244626 0.244624 0.244635 
0.24466 0.244703 0.244767 0.244856 0.244931 0.244669 0.24216 0.229166 0.180225 
0.18135 0.230071 0.242807 0.245198 0.245408 0.245299 0.245173 0.245067 0.244976 
0.244898 0.24483 0.244771 0.244718 0.244672 0.244633 0.2446 0.244575 0.244558 
0.24455 0.244553 0.244569 0.244598 0.244646 0.244715 0.244807 0.244889 0.244648 
0.242219 0.229443 0.1808 0.181874 0.230284 0.242803 0.24512 0.245312 0.245198 
0.245072 0.244965 0.244874 0.244796 0.244729 0.244671 0.24462 0.244577 0.244541 
0.244512 0.244491 0.244478 0.244474 0.244482 0.244501 0.244535 0.244586 0.244659 
0.244755 0.244843 0.244623 0.242271 0.229715 0.181376 0.182405 0.230496 0.242799 
0.245042 0.245217 0.2451 0.244972 0.244865 0.244774 0.244697 0.244631 0.244574 
0.244525 0.244484 0.244451 0.244425 0.244407 0.244398 0.244398 0.244409 0.244432 
0.24447 0.244525 0.244601 0.2447 0.244793 0.244593 0.242318 0.229981 0.181953 
0.182941 0.230708 0.242795 0.244964 0.245123 0.245003 0.244875 0.244767 0.244676 
0.2446 0.244535 0.244479 0.244432 0.244393 0.244362 0.244339 0.244324 0.244318 
0.244321 0.244336 0.244362 0.244403 0.244461 0.24454 0.244642 0.24474 0.244558 
0.24236 0.230243 0.182532 0.183484 0.230921 0.242789 0.244887 0.24503 0.244907 
0.244778 0.244671 0.244581 0.244505 0.24444 0.244386 0.244341 0.244304 0.244275 
0.244254 0.244242 0.244238 0.244245 0.244262 0.244291 0.244335 0.244395 0.244477 
0.244582 0.244684 0.244521 0.242397 0.2305 0.183114 0.184032 0.231133 0.242784 
0.24481 0.244938 0.244812 0.244684 0.244576 0.244486 0.244411 0.244348 0.244294 
0.24425 0.244215 0.244188 0.24417 0.24416 0.244159 0.244167 0.244187 0.244219 
0.244265 0.244328 0.244412 0.244519 0.244626 0.244479 0.242429 0.230753 0.183698 
0.184587 0.231346 0.242778 0.244734 0.244846 0.244719 0.24459 0.244483 0.244393 
0.244319 0.244256 0.244204 0.244162 0.244128 0.244102 0.244086 0.244078 0.244079 
0.24409 0.244112 0.244146 0.244194 0.244259 0.244345 0.244454 0.244565 0.244435 
0.242458 0.231003 0.184285 0.185149 0.231559 0.242771 0.244658 0.244756 0.244626 
0.244497 0.24439 0.244302 0.244227 0.244166 0.244115 0.244073 0.244041 0.244017 
0.244002 0.243996 0.243999 0.244012 0.244036 0.244072 0.244122 0.244189 0.244276 
0.244387 0.244502 0.244388 0.242483 0.231249 0.184876 0.185717 0.231773 0.242764 
0.244582 0.244666 0.244534 0.244406 0.244299 0.244211 0.244137 0.244076 0.244026 
0.243986 0.243955 0.243933 0.243919 0.243915 0.243919 0.243934 0.24396 0.243997 
0.244049 0.244117 0.244206 0.244319 0.244437 0.244338 0.242504 0.231493 0.18547 
0.186292 0.231986 0.242757 0.244506 0.244577 0.244443 0.244315 0.244208 0.244121 
0.244048 0.243988 0.243939 0.243899 0.243869 0.243848 0.243836 0.243833 0.243839 
0.243855 0.243883 0.243922 0.243975 0.244045 0.244135 0.244249 0.24437 0.244287 
0.242522 0.231734 0.186069 0.186874 0.232199 0.242749 0.244431 0.244488 0.244353 
0.244224 0.244119 0.244031 0.243959 0.2439 0.243851 0.243813 0.243784 0.243764 
0.243753 0.243751 0.243759 0.243776 0.243805 0.243845 0.2439 0.243971 0.244062 
0.244177 0.244301 0.244233 0.242537 0.231972 0.186672 0.187462 0.232413 0.24274 
0.244355 0.2444 0.244263 0.244135 0.244029 0.243943 0.243871 0.243812 0.243765 
0.243727 0.243699 0.24368 0.24367 0.24367 0.243679 0.243697 0.243727 0.243768 
0.243824 0.243896 0.243988 0.244105 0.244231 0.244177 0.242549 0.232207 0.18728 
0.188057 0.232626 0.24273 0.24428 0.244312 0.244174 0.244046 0.243941 0.243854 
0.243783 0.243725 0.243678 0.243642 0.243614 0.243596 0.243588 0.243588 0.243598 
0.243617 0.243648 0.243691 0.243748 0.243821 0.243914 0.244031 0.24416 0.244119 
0.242558 0.232441 0.187893 0.188659 0.232838 0.24272 0.244205 0.244225 0.244085 
0.243957 0.243852 0.243767 0.243696 0.243638 0.243592 0.243556 0.24353 0.243513 
0.243505 0.243506 0.243517 0.243537 0.243569 0.243613 0.24367 0.243744 0.243838 
0.243956 0.244088 0.24406 0.242564 0.232671 0.188511 0.189268 0.23305 0.242708 
0.24413 0.244138 0.243997 0.243869 0.243764 0.243679 0.243609 0.243552 0.243506 
0.243471 0.243445 0.243429 0.243422 0.243424 0.243435 0.243457 0.24349 0.243534 
0.243592 0.243667 0.243762 0.24388 0.244014 0.243999 0.242568 0.2329 0.189135 
0.189884 0.233262 0.242696 0.244054 0.244051 0.243908 0.243781 0.243677 0.243592 
0.243522 0.243466 0.243421 0.243386 0.243361 0.243345 0.243339 0.243341 0.243354 
0.243376 0.243409 0.243455 0.243514 0.243589 0.243684 0.243804 0.243939 0.243936 
0.242569 0.233127 0.189763 0.190507 0.233473 0.242682 0.243979 0.243964 0.243821 
0.243693 0.24359 0.243505 0.243436 0.24338 0.243335 0.243301 0.243276 0.243261 
0.243255 0.243259 0.243272 0.243295 0.243329 0.243375 0.243435 0.24351 0.243606 
0.243726 0.243864 0.243872 0.242568 0.233351 0.190398 0.191137 0.233683 0.242668 
0.243903 0.243878 0.243733 0.243606 0.243503 0.243418 0.243349 0.243294 0.24325 
0.243216 0.243192 0.243177 0.243172 0.243176 0.24319 0.243213 0.243248 0.243294 
0.243355 0.243431 0.243527 0.243648 0.243787 0.243807 0.242565 0.233573 0.191039 
0.191774 0.233892 0.242652 0.243828 0.243792 0.243646 0.243519 0.243416 0.243332 
0.243263 0.243208 0.243164 0.243131 0.243107 0.243093 0.243089 0.243093 0.243107 
0.243132 0.243167 0.243214 0.243275 0.243351 0.243448 0.243569 0.24371 0.243741 
0.242559 0.233793 0.191685 0.192418 0.2341 0.242635 0.243751 0.243706 0.243559 
0.243432 0.243329 0.243246 0.243177 0.243122 0.243079 0.243046 0.243023 0.243009 
0.243005 0.24301 0.243025 0.243049 0.243085 0.243132 0.243194 0.243271 0.243368 
0.24349 0.243632 0.243673 0.242552 0.234011 0.192338 0.193069 0.234307 0.242617 
0.243675 0.24362 0.243472 0.243345 0.243242 0.243159 0.243091 0.243037 0.242993 
0.242961 0.242938 0.242925 0.242921 0.242927 0.242942 0.242967 0.243003 0.243051 
0.243113 0.24319 0.243288 0.243409 0.243554 0.243605 0.242542 0.234227 0.192998 
0.193728 0.234513 0.242597 0.243599 0.243534 0.243385 0.243259 0.243156 0.243073 
0.243005 0.242951 0.242908 0.242876 0.242854 0.242841 0.242837 0.242843 0.242859 
0.242884 0.242921 0.242969 0.243031 0.243109 0.243207 0.243329 0.243474 0.243535 
0.24253 0.234441 0.193663 0.194394 0.234717 0.242576 0.243522 0.243448 0.243298 
0.243172 0.243069 0.242987 0.242919 0.242865 0.242822 0.242791 0.242769 0.242756 
0.242753 0.242759 0.242775 0.242801 0.242838 0.242886 0.242949 0.243027 0.243125 
0.243248 0.243394 0.243464 0.242515 0.234652 0.194336 0.195068 0.23492 0.242554 
0.243444 0.243363 0.243212 0.243085 0.242983 0.242901 0.242833 0.242779 0.242737 
0.242706 0.242684 0.242672 0.242669 0.242675 0.242692 0.242718 0.242755 0.242803 
0.242866 0.242945 0.243043 0.243166 0.243314 0.243393 0.242499 0.234862 0.195015 
0.195749 0.235121 0.24253 0.243367 0.243277 0.243125 0.242999 0.242897 0.242814 
0.242747 0.242694 0.242651 0.24262 0.242599 0.242587 0.242584 0.242591 0.242608 
0.242634 0.242671 0.24272 0.242784 0.242862 0.242961 0.243084 0.243233 0.24332 
0.242481 0.235069 0.195701 0.196438 0.235321 0.242505 0.243289 0.243191 0.243038 
0.242912 0.24281 0.242728 0.242661 0.242608 0.242566 0.242535 0.242513 0.242502 
0.2425 0.242507 0.242523 0.24255 0.242588 0.242637 0.2427 0.242779 0.242878 
0.243001 0.243151 0.243247 0.24246 0.235273 0.196395 0.197134 0.235518 0.242478 
0.24321 0.243105 0.242951 0.242826 0.242724 0.242642 0.242575 0.242522 0.24248 
0.242449 0.242428 0.242417 0.242415 0.242422 0.242439 0.242466 0.242504 0.242553 
0.242617 0.242696 0.242795 0.242918 0.243069 0.243173 0.242438 0.235475 0.197095 
0.197838 0.235714 0.242449 0.243131 0.243019 0.242865 0.242739 0.242637 0.242555 
0.242488 0.242436 0.242394 0.242363 0.242343 0.242331 0.24233 0.242337 0.242354 
0.242381 0.24242 0.242469 0.242533 0.242612 0.242711 0.242835 0.242987 0.243098 
0.242413 0.235675 0.197804 0.19855 0.235907 0.242419 0.243052 0.242933 0.242778 
0.242652 0.242551 0.242469 0.242402 0.24235 0.242308 0.242278 0.242257 0.242246 
0.242244 0.242252 0.242269 0.242297 0.242335 0.242385 0.242449 0.242528 0.242627 
0.242751 0.242904 0.243022 0.242387 0.235873 0.198519 0.19927 0.236098 0.242388 
0.242972 0.242846 0.242691 0.242566 0.242464 0.242383 0.242316 0.242263 0.242222 
0.242192 0.242171 0.24216 0.242159 0.242167 0.242184 0.242212 0.24225 0.2423 
0.242364 0.242443 0.242543 0.242667 0.24282 0.242945 0.242359 0.236067 0.199242 
0.199999 0.236287 0.242355 0.242892 0.24276 0.242604 0.242479 0.242377 0.242296 
0.242229 0.242177 0.242136 0.242106 0.242085 0.242074 0.242073 0.242081 0.242099 
0.242126 0.242165 0.242215 0.24228 0.242359 0.242459 0.242582 0.242737 0.242868 
0.242329 0.236259 0.199973 0.200735 0.236474 0.24232 0.242812 0.242674 0.242517 
0.242392 0.24229 0.242209 0.242143 0.24209 0.242049 0.242019 0.241999 0.241988 
0.241987 0.241995 0.242013 0.242041 0.24208 0.24213 0.242195 0.242274 0.242374 
0.242497 0.242653 0.24279 0.242296 0.236449 0.200712 0.20148 0.236657 0.242283 
0.242731 0.242587 0.24243 0.242305 0.242203 0.242122 0.242056 0.242004 0.241963 
0.241933 0.241913 0.241902 0.241901 0.241909 0.241928 0.241955 0.241994 0.242045 
0.242109 0.242189 0.242289 0.242412 0.242568 0.242711 0.242262 0.236635 0.201459 
0.202233 0.236838 0.242245 0.242649 0.2425 0.242343 0.242218 0.242116 0.242036 
0.241969 0.241917 0.241876 0.241846 0.241826 0.241816 0.241815 0.241823 0.241842 
0.241869 0.241909 0.241959 0.242024 0.242103 0.242203 0.242327 0.242483 0.242631 
0.242226 0.236818 0.202214 0.202994 0.237017 0.242205 0.242567 0.242413 0.242256 
0.242131 0.242029 0.241949 0.241882 0.24183 0.241789 0.24176 0.24174 0.24173 
0.241729 0.241737 0.241755 0.241783 0.241823 0.241873 0.241938 0.242017 0.242118 
0.242241 0.242398 0.242551 0.242188 0.236998 0.202978 0.203765 0.237192 0.242163 
0.242485 0.242326 0.242168 0.242044 0.241942 0.241861 0.241795 0.241743 0.241702 
0.241673 0.241653 0.241643 0.241642 0.241651 0.241669 0.241697 0.241736 0.241787 
0.241852 0.241931 0.242032 0.242155 0.242313 0.242471 0.242148 0.237175 0.20375 
0.204544 0.237364 0.24212 0.242402 0.242239 0.242081 0.241956 0.241855 0.241774 
0.241708 0.241656 0.241615 0.241586 0.241566 0.241556 0.241555 0.241564 0.241582 
0.24161 0.24165 0.2417 0.241766 0.241845 0.241946 0.242069 0.242227 0.242389 
0.242106 0.237349 0.20453 0.205332 0.237533 0.242075 0.242319 0.242152 0.241993 
0.241869 0.241767 0.241687 0.241621 0.241569 0.241528 0.241499 0.241479 0.241469 
0.241468 0.241477 0.241496 0.241524 0.241563 0.241614 0.241679 0.241758 0.241859 
0.241983 0.242141 0.242307 0.242063 0.237519 0.20532 0.206129 0.237698 0.242028 
0.242235 0.242064 0.241905 0.241781 0.24168 0.241599 0.241533 0.241481 0.241441 
0.241412 0.241392 0.241382 0.241381 0.24139 0.241409 0.241437 0.241476 0.241527 
0.241592 0.241672 0.241772 0.241896 0.242054 0.242225 0.242017 0.237686 0.206118 
0.206935 0.23786 0.241979 0.242151 0.241977 0.241817 0.241693 0.241592 0.241512 
0.241445 0.241394 0.241353 0.241324 0.241305 0.241295 0.241294 0.241303 0.241322 
0.24135 0.241389 0.24144 0.241505 0.241585 0.241686 0.241809 0.241968 0.242142 
0.241969 0.237849 0.206925 0.207751 0.238018 0.241929 0.242067 0.241889 0.241729 
0.241605 0.241504 0.241424 0.241358 0.241306 0.241266 0.241237 0.241217 0.241207 
0.241207 0.241216 0.241234 0.241263 0.241302 0.241353 0.241418 0.241498 0.241598 
0.241722 0.241881 0.242058 0.24192 0.238008 0.207742 0.208576 0.238172 0.241876 
0.241982 0.241801 0.241641 0.241517 0.241416 0.241336 0.24127 0.241218 0.241178 
0.241149 0.241129 0.24112 0.241119 0.241128 0.241147 0.241175 0.241215 0.241266 
0.241331 0.24141 0.241511 0.241634 0.241793 0.241974 0.241869 0.238163 0.208568 
0.20941 0.238322 0.241822 0.241896 0.241712 0.241552 0.241429 0.241328 0.241248 
0.241182 0.241131 0.24109 0.241061 0.241042 0.241032 0.241032 0.241041 0.241059 
0.241088 0.241127 0.241178 0.241243 0.241323 0.241423 0.241546 0.241706 0.241889 
0.241815 0.238314 0.209403 0.210254 0.238467 0.241766 0.24181 0.241624 0.241464 
0.241341 0.241239 0.24116 0.241094 0.241043 0.241002 0.240973 0.240954 0.240944 
0.240944 0.240953 0.240972 0.241 0.24104 0.24109 0.241156 0.241235 0.241336 
0.241458 0.241618 0.241804 0.24176 0.238461 0.210248 0.211108 0.238609 0.241709 
0.241724 0.241535 0.241375 0.241252 0.241151 0.241071 0.241006 0.240954 0.240914 
0.240885 0.240866 0.240856 0.240856 0.240865 0.240884 0.240912 0.240952 0.241002 
0.241068 0.241147 0.241248 0.24137 0.24153 0.241718 0.241703 0.238603 0.211103 
0.211973 0.238746 0.241649 0.241637 0.241446 0.241286 0.241163 0.241062 0.240983 
0.240917 0.240866 0.240826 0.240797 0.240778 0.240769 0.240768 0.240777 0.240796 
0.240824 0.240864 0.240914 0.24098 0.241059 0.241159 0.241282 0.241442 0.241632 
0.241644 0.23874 0.211968 0.212847 0.238877 0.241588 0.241549 0.241357 0.241197 
0.241074 0.240974 0.240894 0.240829 0.240778 0.240738 0.240709 0.24069 0.240681 