# vtk DataFile Version 5.1
vtk output
ASCII
DATASET UNSTRUCTURED_GRID
POINTS 4929 double
0.1016 1.5 0.07553717494 0.1016 1.45 0.072586730123 0.1016 1.4 0.075662434101 
0.1016 1.35 0.07241269201 0.1016 1.3 0.073299214244 0.1016 1.25 0.083241671324 
0.1016 1.2 0.08569123596 0.1016 1.15 0.077467411757 0.1016 1.1 0.068724192679 
0.1016 1.05 0.058219458908 0.1016 1 0.047355044633 0.1016 0.95 0.05262138322 
0.1016 0.9 0.054255034775 0.1016 0.85 0.049980182201 0.1016 0.8 0.054412789643 
0.1016 0.75 0.072089999914 0.1016 0.7 0.091008931398 0.1016 0.65 0.09657767415 
0.1016 0.6 0.089469343424 0.1016 0.55 0.089980430901 0.1016 0.5 0.096735879779 
0.1016 0.45 0.10385231674 0.1016 0.4 0.094612747431 0.1016 0.35 0.082164645195 
0.1016 0.3 0.08035415411 0.1016 0.25 0.089107640088 0.1016 0.2 0.091087311506 
0.1016 0.15 0.081848211586 0.1016 0.1 0.075282156467 0.1016 0.05 0.069869413972 
0.1016 0 0.067057110369 5.08 1.5 0.28700000048 5.08 1.45 0.28700000048 
5.08 1.4 0.28700000048 5.08 1.35 0.28700000048 5.08 1.3 0.28700000048 
5.08 1.25 0.28700000048 5.08 1.2 0.28700000048 5.08 1.15 0.28700000048 
5.08 1.1 0.28700000048 5.08 1.05 0.28700000048 5.08 1 0.28700000048 
5.08 0.95 0.28700000048 5.08 0.9 0.28700000048 5.08 0.85 0.28700000048 
5.08 0.8 0.28700000048 5.08 0.75 0.28700000048 5.08 0.7 0.28700000048 
5.08 0.65 0.28700000048 5.08 0.6 0.28700000048 5.08 0.55 0.28700000048 
5.08 0.5 0.28700000048 5.08 0.45 0.28700000048 5.08 0.4 0.28700000048 
5.08 0.35 0.28700000048 5.08 0.3 0.28700000048 5.08 0.25 0.28700000048 
5.08 0.2 0.28700000048 5.08 0.15 0.28700000048 5.08 0.1 0.28700000048 
5.08 0.05 0.28700000048 5.08 0 0.28700000048 0.12737462728 1.5 0.081511490047 
0.12737462728 1.45 0.079651027918 0.12737462728 1.4 0.087510257959 0.12737462728 1.35 0.080029115081 
0.12737462728 1.3 0.078766494989 0.12737462728 1.25 0.093626104295 0.12737462728 1.2 0.096454553306 
0.12737462728 1.15 0.084906339645 0.12737462728 1.1 0.07648819685 0.12737462728 1.05 0.066677480936 
0.12737462728 1 0.048709586263 0.12737462728 0.95 0.059719078243 0.12737462728 0.9 0.061498533934 
0.12737462728 0.85 0.05399350822 0.12737462728 0.8 0.056917801499 0.12737462728 0.75 0.077293917537 
0.12737462728 0.7 0.099904283881 0.12737462728 0.65 0.10624914616 0.12737462728 0.6 0.092581279576 
0.12737462728 0.55 0.095188446343 0.12737462728 0.5 0.10263121128 0.12737462728 0.45 0.1160537526 
0.12737462728 0.4 0.10268978029 0.12737462728 0.35 0.087020009756 0.12737462728 0.3 0.084047883749 
0.12737462728 0.25 0.097101487219 0.12737462728 0.2 0.10002950579 0.12737462728 0.15 0.085008606315 
0.12737462728 0.1 0.080935835838 0.12737462728 0.05 0.075699023902 0.12737462728 0 0.071262486279 
0.15441581276 1.5 0.092001967132 0.15441581276 1.45 0.092578552663 0.15441581276 1.4 0.10660176724 
0.15441581276 1.35 0.093421928585 0.15441581276 1.3 0.089311517775 0.15441581276 1.25 0.10937468708 
0.15441581276 1.2 0.11113698035 0.15441581276 1.15 0.096186771989 0.15441581276 1.1 0.088048413396 
0.15441581276 1.05 0.082358293235 0.15441581276 1 0.056747943163 0.15441581276 0.95 0.071689337492 
0.15441581276 0.9 0.075371928513 0.15441581276 0.85 0.067876718938 0.15441581276 0.8 0.068759009242 
0.15441581276 0.75 0.088105022907 0.15441581276 0.7 0.11193703115 0.15441581276 0.65 0.1199933961 
0.15441581276 0.6 0.099017687142 0.15441581276 0.55 0.1060994789 0.15441581276 0.5 0.11226605624 
0.15441581276 0.45 0.13184076548 0.15441581276 0.4 0.11536222696 0.15441581276 0.35 0.098424419761 
0.15441581276 0.3 0.09206058085 0.15441581276 0.25 0.10783100128 0.15441581276 0.2 0.11174411327 
0.15441581276 0.15 0.089793629944 0.15441581276 0.1 0.091238088906 0.15441581276 0.05 0.087634898722 
0.15441581276 0 0.082745976746 0.18278579477 1.5 0.10664313287 0.18278579477 1.45 0.11483775824 
0.18278579477 1.4 0.12907283008 0.18278579477 1.35 0.11366269737 0.18278579477 1.3 0.10834826529 
0.18278579477 1.25 0.12918426096 0.18278579477 1.2 0.12720671296 0.18278579477 1.15 0.11329983175 
0.18278579477 1.1 0.10330980271 0.18278579477 1.05 0.10221455246 0.18278579477 1 0.081927150488 
0.18278579477 0.95 0.082103036344 0.18278579477 0.9 0.095156311989 0.18278579477 0.85 0.094427540898 
0.18278579477 0.8 0.093842960894 0.18278579477 0.75 0.10407932848 0.18278579477 0.7 0.1255929023 
0.18278579477 0.65 0.13494887948 0.18278579477 0.6 0.11399864405 0.18278579477 0.55 0.12261210382 
0.18278579477 0.5 0.13049523532 0.18278579477 0.45 0.14422540367 0.18278579477 0.4 0.1346654892 
0.18278579477 0.35 0.11908050627 0.18278579477 0.3 0.10743302852 0.18278579477 0.25 0.12012656778 
0.18278579477 0.2 0.12265773118 0.18278579477 0.15 0.10351469368 0.18278579477 0.1 0.10028131306 
0.18278579477 0.05 0.098336949944 0.18278579477 0 0.10771098733 0.21254987001 1.5 0.1257610172 
0.21254987001 1.45 0.13712275028 0.21254987001 1.4 0.14848352969 0.21254987001 1.35 0.1355689466 
0.21254987001 1.3 0.13300481439 0.21254987001 1.25 0.15094038844 0.21254987001 1.2 0.1444478929 
0.21254987001 1.15 0.13296589255 0.21254987001 1.1 0.12434708327 0.21254987001 1.05 0.12571889162 
0.21254987001 1 0.109676525 0.21254987001 0.95 0.10009343177 0.21254987001 0.9 0.11756725609 
0.21254987001 0.85 0.11932499707 0.21254987001 0.8 0.11892963946 0.21254987001 0.75 0.12329537421 
0.21254987001 0.7 0.14401341975 0.21254987001 0.65 0.15642033517 0.21254987001 0.6 0.13587887585 
0.21254987001 0.55 0.14520601928 0.21254987001 0.5 0.15219801664 0.21254987001 0.45 0.16180513799 
0.21254987001 0.4 0.15443094075 0.21254987001 0.35 0.14251695573 0.21254987001 0.3 0.12673099339 
0.21254987001 0.25 0.1371101886 0.21254987001 0.2 0.1378518343 0.21254987001 0.15 0.12825778127 
0.21254987001 0.1 0.12968105078 0.21254987001 0.05 0.11752158403 0.21254987001 0 0.13178536296 
0.24377654385 1.5 0.14850027859 0.24377654385 1.45 0.15800987184 0.24377654385 1.4 0.1619540453 
0.24377654385 1.35 0.15709526837 0.24377654385 1.3 0.16192874312 0.24377654385 1.25 0.17061546445 
0.24377654385 1.2 0.16228444874 0.24377654385 1.15 0.15264335275 0.24377654385 1.1 0.15201455355 
0.24377654385 1.05 0.14905172586 0.24377654385 1 0.13369633257 0.24377654385 0.95 0.12654219568 
0.24377654385 0.9 0.13969092071 0.24377654385 0.85 0.13535757363 0.24377654385 0.8 0.13740871847 
0.24377654385 0.75 0.14360113442 0.24377654385 0.7 0.16677625477 0.24377654385 0.65 0.18161121011 
0.24377654385 0.6 0.16419354081 0.24377654385 0.55 0.1697793752 0.24377654385 0.5 0.17557561398 
0.24377654385 0.45 0.184548527 0.24377654385 0.4 0.17107091844 0.24377654385 0.35 0.16403840482 
0.24377654385 0.3 0.1488699466 0.24377654385 0.25 0.15978863835 0.24377654385 0.2 0.15751865506 
0.24377654385 0.15 0.15035253763 0.24377654385 0.1 0.1527300477 0.24377654385 0.05 0.13895003498 
0.24377654385 0 0.15852256119 0.27653768798 1.5 0.17086410522 0.27653768798 1.45 0.18399246037 
0.27653768798 1.4 0.19248960912 0.27653768798 1.35 0.1790112704 0.27653768798 1.3 0.18561527133 
0.27653768798 1.25 0.19058841467 0.27653768798 1.2 0.18141317368 0.27653768798 1.15 0.17301347852 
0.27653768798 1.1 0.1745185554 0.27653768798 1.05 0.18035452068 0.27653768798 1 0.15245474875 
0.27653768798 0.95 0.1500325799 0.27653768798 0.9 0.16135661304 0.27653768798 0.85 0.15640245378 
0.27653768798 0.8 0.15645033121 0.27653768798 0.75 0.16459086537 0.27653768798 0.7 0.18437412381 
0.27653768798 0.65 0.20194405317 0.27653768798 0.6 0.18800002337 0.27653768798 0.55 0.19409623742 
0.27653768798 0.5 0.19952742755 0.27653768798 0.45 0.20093761384 0.27653768798 0.4 0.1886280477 
0.27653768798 0.35 0.18425172567 0.27653768798 0.3 0.17426902056 0.27653768798 0.25 0.18499521911 
0.27653768798 0.2 0.18442136049 0.27653768798 0.15 0.17219696939 0.27653768798 0.1 0.17464773357 
0.27653768798 0.05 0.16474620998 0.27653768798 0 0.18164773285 0.31090870586 1.5 0.1950943023 
0.31090870586 1.45 0.21086648107 0.31090870586 1.4 0.22704106569 0.31090870586 1.35 0.20037378371 
0.31090870586 1.3 0.20705673099 0.31090870586 1.25 0.21185447276 0.31090870586 1.2 0.20322871208 
0.31090870586 1.15 0.19508776069 0.31090870586 1.1 0.19225299358 0.31090870586 1.05 0.20692105591 
0.31090870586 1 0.17223204672 0.31090870586 0.95 0.17397344112 0.31090870586 0.9 0.18366858363 
0.31090870586 0.85 0.18392933905 0.31090870586 0.8 0.17945840955 0.31090870586 0.75 0.18509207666 
0.31090870586 0.7 0.19842395186 0.31090870586 0.65 0.21871137619 0.31090870586 0.6 0.20707592368 
0.31090870586 0.55 0.21794039011 0.31090870586 0.5 0.22474743426 0.31090870586 0.45 0.21703508496 
0.31090870586 0.4 0.20948469639 0.31090870586 0.35 0.20566953719 0.31090870586 0.3 0.19936518371 
0.31090870586 0.25 0.20764540136 0.31090870586 0.2 0.20482321084 0.31090870586 0.15 0.17246800661 
0.31090870586 0.1 0.19732899964 0.31090870586 0.05 0.18401250243 0.31090870586 0 0.23044300079 
0.34696870625 1.5 0.2255859673 0.34696870625 1.45 0.23226870596 0.34696870625 1.4 0.23778671026 
0.34696870625 1.35 0.22528643906 0.34696870625 1.3 0.23183844984 0.34696870625 1.25 0.23457209766 
0.34696870625 1.2 0.22808143497 0.34696870625 1.15 0.21988227963 0.34696870625 1.1 0.2177759409 
0.34696870625 1.05 0.20622827113 0.34696870625 1 0.2097954005 0.34696870625 0.95 0.20441518724 
0.34696870625 0.9 0.20498907566 0.34696870625 0.85 0.21303249896 0.34696870625 0.8 0.20638656616 
0.34696870625 0.75 0.20485413074 0.34696870625 0.7 0.21964342892 0.34696870625 0.65 0.23567548394 
0.34696870625 0.6 0.22988502681 0.34696870625 0.55 0.23937311769 0.34696870625 0.5 0.25047457218 
0.34696870625 0.45 0.23982729018 0.34696870625 0.4 0.23576352 0.34696870625 0.35 0.22765061259 
0.34696870625 0.3 0.22493445873 0.34696870625 0.25 0.22458226979 0.34696870625 0.2 0.22051312029 
0.34696870625 0.15 0.22754351795 0.34696870625 0.1 0.2228833288 0.34696870625 0.05 0.21620370448 
0.34696870625 0 0.24490277469 0.3848006853 1.5 0.25554561615 0.3848006853 1.45 0.25705730915 
0.3848006853 1.4 0.25573039055 0.3848006853 1.35 0.25344017148 0.3848006853 1.3 0.25616145134 
[...]
CELL_DATA 4740
FIELD FieldData 7
B_Stress_n_p_m2 1 4740 float
0.0635121 0.0807908 0.0893801 0.102564 0.113416 0.121167 0.124381 0.12544 0.125052 
0.121745 0.120465 0.11961 0.116976 0.114724 0.115769 0.119616 0.122656 0.121986 
0.121847 0.123395 0.126763 0.126879 0.12397 0.120962 0.11914 0.114713 0.104122 
0.0893821 0.0800705 0.0630835 0.180153 0.0457559 0.0814563 0.0982325 0.109771 0.120577 
0.125802 0.128325 0.131924 0.129779 0.129697 0.132643 0.132492 0.130759 0.130248 
0.131925 0.134371 0.132025 0.132096 0.132277 0.134884 0.134377 0.129106 0.121966 
0.11595 0.108376 0.0960123 0.0775563 0.0433222 0.177792 0.111188 0.0663017 0.0899564 
0.105304 0.116377 0.125933 0.130647 0.131909 0.133822 0.132987 0.130031 0.132294 
0.133063 0.131812 0.130485 0.131779 0.133994 0.132937 0.132487 0.133788 0.135551 
0.136814 0.13302 0.126676 0.120892 0.113948 0.10265 0.0848313 0.062935 0.109149 
0.101732 0.0848119 0.0998506 0.113318 0.123516 0.132353 0.137198 0.139372 0.140605 
0.140826 0.138401 0.138924 0.140309 0.140433 0.139525 0.140443 0.142564 0.141868 
0.140991 0.14212 0.143437 0.143292 0.140252 0.133708 0.127114 0.119576 0.109389 
0.0950005 0.081095 0.0987935 0.11281 0.102358 0.111385 0.123164 0.132376 0.140078 
0.144874 0.148775 0.151011 0.150215 0.149182 0.148924 0.149483 0.14977 0.150303 
0.151927 0.154971 0.15494 0.153575 0.15384 0.154079 0.152155 0.148509 0.142269 
0.13546 0.127819 0.11794 0.107494 0.0989925 0.109125 0.12531 0.121474 0.125781 
0.13489 0.143551 0.149755 0.154 0.158303 0.16348 0.160834 0.159374 0.160057 
0.160259 0.159166 0.16038 0.162765 0.167161 0.168165 0.167651 0.167345 0.165478 
0.162619 0.157687 0.152246 0.146016 0.1389 0.128124 0.12092 0.115766 0.121816 
0.13916 0.140345 0.143846 0.149243 0.156867 0.162528 0.165972 0.169193 0.174063 
0.174916 0.171296 0.172453 0.173891 0.172089 0.172088 0.174582 0.179076 0.181438 
0.182309 0.183293 0.179995 0.175487 0.169631 0.164272 0.15812 0.151405 0.141618 
0.134718 0.131945 0.137478 0.15627 0.15762 0.162953 0.166674 0.173332 0.178931 
0.182181 0.184291 0.184811 0.190686 0.188218 0.188284 0.190711 0.189795 0.188106 
0.189747 0.192949 0.196286 0.197257 0.199551 0.19731 0.191823 0.185735 0.179909 
0.173166 0.166681 0.161514 0.152347 0.151002 0.153539 0.177684 0.176828 0.181307 
0.185991 0.191596 0.196485 0.200297 0.202119 0.201512 0.204556 0.208006 0.206586 
0.208128 0.209344 0.207732 0.207063 0.208044 0.209755 0.20965 0.210102 0.21 
0.206437 0.202747 0.197695 0.192043 0.185376 0.181247 0.176637 0.172112 0.173123 
0.197018 0.195103 0.198042 0.202214 0.205788 0.209288 0.212825 0.215412 0.2158 
0.216291 0.220687 0.219703 0.219538 0.222056 0.22167 0.219936 0.218003 0.216319 
0.21471 0.212765 0.212308 0.212022 0.211662 0.209947 0.206879 0.202005 0.198117 
0.195078 0.190014 0.190392 0.207047 0.205329 0.206675 0.20902 0.210714 0.212797 
0.215209 0.217505 0.218979 0.218913 0.221066 0.221115 0.220277 0.221858 0.222049 
0.220536 0.217632 0.214297 0.211894 0.209267 0.207904 0.208593 0.209678 0.21027 
0.209446 0.207414 0.20444 0.202366 0.199053 0.199658 0.208595 0.207241 0.207105 
0.207755 0.208645 0.209949 0.211498 0.212895 0.213969 0.214482 0.214706 0.215023 
0.214745 0.214703 0.21468 0.213515 0.211382 0.208958 0.206711 0.20445 0.202966 
0.202789 0.203301 0.203916 0.203887 0.20312 0.201941 0.201061 0.200209 0.200021 
0.208649 0.207794 0.207073 0.207487 0.20852 0.209913 0.211374 0.212562 0.213367 
0.214046 0.214186 0.21439 0.214176 0.213736 0.213412 0.212439 0.211321 0.210124 
0.208716 0.206796 0.205079 0.203871 0.202992 0.202647 0.202166 0.201392 0.200445 
0.200281 0.200916 0.200548 0.212885 0.212461 0.213008 0.214556 0.216635 0.218873 
0.221048 0.223018 0.224457 0.225566 0.226391 0.226949 0.226853 0.226406 0.226048 
0.225194 0.224302 0.223594 0.222738 0.221156 0.219164 0.21722 0.21514 0.213365 
0.211789 0.210145 0.20825 0.206977 0.206781 0.206123 0.218248 0.218771 0.221657 
0.224438 0.227525 0.230524 0.233413 0.23615 0.238667 0.240408 0.241861 0.242934 
0.243323 0.243028 0.242613 0.242053 0.240884 0.23997 0.238852 0.237579 0.235623 
0.233463 0.231112 0.228254 0.22575 0.223141 0.220578 0.217715 0.215544 0.21429 
0.219532 0.222432 0.225627 0.228832 0.231882 0.234863 0.237724 0.240411 0.242884 
0.244992 0.246499 0.247557 0.248183 0.248284 0.247922 0.247323 0.246544 0.245406 
0.244084 0.242645 0.241069 0.239123 0.236855 0.234355 0.23159 0.228835 0.226121 
0.223363 0.220561 0.218661 0.221185 0.223732 0.226458 0.229232 0.231929 0.234533 
0.236998 0.239272 0.24131 0.243036 0.24435 0.245281 0.245841 0.246012 0.245827 
0.245376 0.244708 0.243774 0.242637 0.241323 0.239833 0.238089 0.236106 0.233934 
0.231576 0.229145 0.226679 0.224186 0.221735 0.219759 0.222566 0.224907 0.227384 
0.229877 0.232301 0.234615 0.236779 0.238753 0.240498 0.241968 0.243121 0.243956 
0.244472 0.244673 0.244583 0.244242 0.243675 0.242888 0.241901 0.240727 0.239363 
0.237794 0.236029 0.234089 0.231999 0.229804 0.227537 0.225222 0.222917 0.22074 
0.223554 0.225861 0.228206 0.230511 0.232721 0.234805 0.236731 0.238471 0.239997 
0.241281 0.242301 0.24305 0.24353 0.243744 0.243709 0.243446 0.242971 0.242295 
0.241431 0.240385 0.239159 0.23775 0.236166 0.234418 0.232524 0.230509 0.228395 
0.226201 0.223958 0.221702 0.22429 0.226588 0.228841 0.231004 0.233046 0.234943 
0.236676 0.238226 0.239575 0.240708 0.241613 0.242286 0.242727 0.242942 0.24294 
0.242735 0.242338 0.241757 0.240999 0.240071 0.238974 0.237708 0.236278 0.234691 
0.232957 0.231088 0.229097 0.226994 0.224796 0.222522 0.22485 0.227142 0.229329 
0.231387 0.233298 0.235049 0.236629 0.238028 0.239236 0.240248 0.241057 0.241663 
0.242068 0.242276 0.242296 0.242135 0.2418 0.241298 0.240634 0.239809 0.238826 
0.237684 0.236385 0.234931 0.233325 0.231574 0.22968 0.227649 0.22549 0.223215 
0.225274 0.227561 0.2297 0.23168 0.233491 0.235129 0.236589 0.23787 0.238968 
0.239882 0.240612 0.241162 0.241534 0.241734 0.241767 0.241639 0.241355 0.240919 
0.240333 0.239598 0.238713 0.237677 0.236487 0.235142 0.233641 0.231984 0.230169 
0.228196 0.226068 0.223794 0.225591 0.227874 0.229979 0.2319 0.233635 0.235186 
0.236554 0.237741 0.238752 0.239589 0.240256 0.240759 0.241103 0.241293 0.241335 
0.241232 0.240989 0.240608 0.240088 0.239429 0.238627 0.237679 0.23658 0.235325 
0.233909 0.232328 0.230576 0.22865 0.226549 0.224277 0.225827 0.228108 0.230186 
0.232062 0.233739 0.235223 0.236519 0.237635 0.238577 0.239353 0.239969 0.240434 
0.240754 0.240935 0.240983 0.2409 0.24069 0.240354 0.239889 0.239292 0.23856 
0.237685 0.236661 0.23548 0.234135 0.232615 0.230916 0.229028 0.226948 0.224677 
0.226003 0.22828 0.230338 0.232181 0.233813 0.235245 0.236486 0.237545 0.238434 
0.239161 0.239737 0.240171 0.240471 0.240645 0.240696 0.240629 0.240446 0.240146 
0.239726 0.239182 0.238507 0.237694 0.236732 0.235612 0.234324 0.232856 0.231198 
0.229342 0.22728 0.22501 0.226136 0.22841 0.230452 0.232267 0.233866 0.235257 
0.236454 0.237469 0.238315 0.239003 0.239547 0.239956 0.24024 0.240406 0.240461 
0.240407 0.240246 0.239975 0.239593 0.239092 0.238466 0.237703 0.236793 0.235724 
0.234483 0.233057 0.231434 0.229604 0.227557 0.225289 0.226238 0.228509 0.230538 
0.232332 0.233903 0.235262 0.236424 0.237403 0.238214 0.238872 0.239389 0.239777 
0.240048 0.240209 0.240265 0.240221 0.240078 0.239833 0.239482 0.239017 0.238431 
0.237711 0.236844 0.235817 0.234616 0.233226 0.231633 0.229824 0.22779 0.225524 
0.22632 0.228588 0.230606 0.232383 0.23393 0.235263 0.236396 0.237346 0.238128 
0.23876 0.239254 0.239626 0.239885 0.24004 0.240099 0.240063 0.239935 0.23971 
0.239385 0.238952 0.2384 0.237716 0.236886 0.235896 0.234729 0.23337 0.231802 
0.230012 0.22799 0.225726 0.226392 0.228657 0.230664 0.232426 0.233953 0.235263 
0.236371 0.237295 0.238053 0.238662 0.239137 0.239493 0.239742 0.239893 0.239952 
0.239924 0.239808 0.239601 0.239299 0.238892 0.23837 0.237717 0.236921 0.235963 
0.234826 0.233493 0.231948 0.230176 0.228164 0.225903 0.226459 0.228721 0.230719 
0.232466 0.233976 0.235264 0.236349 0.23725 0.237986 0.238574 0.239032 0.239374 
0.239613 0.23976 0.239819 0.239796 0.239691 0.2395 0.239218 0.238835 0.238338 
0.237715 0.236948 0.236019 0.23491 0.233602 0.232078 0.230322 0.228319 0.226061 
0.226528 0.228786 0.230775 0.232508 0.234 0.235268 0.236332 0.237211 0.237925 
0.238493 0.238934 0.239262 0.239492 0.239634 0.239693 0.239675 0.239579 0.239402 
0.239138 0.238776 0.238305 0.237708 0.236968 0.236067 0.234984 0.2337 0.232196 
0.230455 0.228462 0.226207 0.226602 0.228855 0.230836 0.232555 0.234029 0.235277 
0.236318 0.237175 0.237867 0.238416 0.238839 0.239154 0.239375 0.23951 0.239569 
0.239555 0.239467 0.239303 0.239056 0.238715 0.238267 0.237695 0.236982 0.236108 
0.235051 0.23379 0.232306 0.230581 0.228598 0.226347 0.226685 0.228934 0.230904 
0.232608 0.234064 0.23529 0.236309 0.237142 0.237812 0.23834 0.238746 0.239047 
0.239256 0.239386 0.239443 0.239432 0.239352 0.2392 0.238969 0.238648 0.238223 
0.237677 0.236991 0.236143 0.235112 0.233876 0.232413 0.230703 0.228731 0.226484 
0.226779 0.229023 0.230982 0.232671 0.234106 0.235309 0.236303 0.237112 0.237758 
0.238264 0.238651 0.238936 0.239134 0.239257 0.239312 0.239303 0.239231 0.239091 
0.238876 0.238575 0.238173 0.237653 0.236994 0.236175 0.235171 0.23396 0.232519 
0.230827 0.228866 0.226623 0.226888 0.229126 0.231073 0.232744 0.234157 0.235335 
0.236302 0.237083 0.237703 0.238185 0.238551 0.238819 0.239005 0.23912 0.239172 
0.239166 0.2391 0.238972 0.238774 0.238493 0.238116 0.237623 0.236993 0.236203 
0.235229 0.234045 0.232627 0.230954 0.229006 0.226768 0.227013 0.229245 0.231178 
0.232829 0.234217 0.235366 0.236303 0.237054 0.237646 0.238102 0.238445 0.238695 
0.238867 0.238974 0.239022 0.239017 0.238959 0.238842 0.238661 0.238402 0.238049 
0.237585 0.236987 0.236229 0.235286 0.234132 0.232741 0.231088 0.229154 0.226923 
0.227158 0.229382 0.2313 0.232927 0.234287 0.235405 0.236308 0.237026 0.237585 
0.238013 0.238331 0.238561 0.238718 0.238815 0.238859 0.238855 0.238804 0.2387 
0.238535 0.238299 0.237974 0.23754 0.236975 0.236253 0.235345 0.234224 0.232862 
0.231232 0.229314 0.22709 0.227325 0.229541 0.23144 0.233042 0.234369 0.23545 
0.236316 0.236996 0.23752 0.237915 0.238207 0.238415 0.238555 0.238641 0.238681 
0.238678 0.238633 0.238541 0.238396 0.238183 0.237887 0.237487 0.236958 0.236275 
0.235406 0.234322 0.232993 0.231391 0.229491 0.227275 0.227518 0.229724 0.231602 
0.233173 0.234463 0.235502 0.236325 0.236962 0.237447 0.237808 0.238069 0.238253 
0.238376 0.238451 0.238485 0.238483 0.238445 0.238366 0.23824 0.238052 0.237787 
0.237423 0.236935 0.236295 0.235471 0.234429 0.233138 0.231566 0.229688 0.227482 
0.227742 0.229935 0.231789 0.233323 0.23457 0.235561 0.236334 0.236924 0.237365 
0.237687 0.237917 0.238075 0.238179 0.238241 0.238269 0.238268 0.238237 0.238172 
0.238065 0.237904 0.237673 0.237348 0.236905 0.236313 0.235539 0.234546 0.233299 
0.231763 0.22991 0.227716 0.228002 0.230181 0.232004 0.233496 0.234691 0.235626 
0.236343 0.236879 0.237272 0.237551 0.237746 0.237877 0.237961 0.23801 0.238032 
0.238031 0.238007 0.237956 0.23787 0.237737 0.237541 0.23726 0.236866 0.236328 
0.235611 0.234674 0.233479 0.231986 0.230163 0.227984 0.228306 0.230467 0.232253 
0.233693 0.234827 0.235697 0.236348 0.236824 0.237162 0.237396 0.237554 0.237656 
0.237719 0.237754 0.23777 0.23777 0.237752 0.237715 0.237651 0.237548 0.237389 
0.237154 0.236815 0.236338 0.235686 0.234815 0.233682 0.232241 0.230455 0.228294 
0.228664 0.230803 0.232543 0.233919 0.234978 0.23577 0.236347 0.236754 0.237033 
0.237218 0.237336 0.237409 0.237451 0.237473 0.237483 0.237482 0.237472 0.237449 
0.237406 0.237332 0.237213 0.237027 0.236748 0.23634 0.235763 0.234971 0.233911 
0.232535 0.230795 0.228656 0.229092 0.231201 0.232881 0.234176 0.235144 0.235843 
0.236332 0.236663 0.236877 0.237011 0.237089 0.237133 0.237155 0.237165 0.237168 
0.237168 0.237164 0.237153 0.237131 0.237087 0.237008 0.236874 0.236659 0.236328 
0.235839 0.235139 0.234171 0.232876 0.231196 0.229087 0.229609 0.231677 0.233277 
0.234467 0.23532 0.235908 0.236297 0.236542 0.236689 0.23677 0.236809 0.236825 
0.236829 0.236828 0.236826 0.236826 0.236827 0.236828 0.236824 0.236808 0.236768 
0.236687 0.23654 0.236294 0.235905 0.235317 0.234464 0.233274 0.231674 0.229606 
0.230243 0.232252 0.23374 0.234789 0.235497 0.23595 0.236226 0.236381 0.236459 
0.23649 0.236495 0.236487 0.236475 0.236465 0.23646 0.236459 0.236465 0.236475 
0.236486 0.236494 0.236489 0.236457 0.23638 0.236224 0.235949 0.235495 0.234787 
0.233738 0.232251 0.230242 0.231052 0.232965 0.23428 0.235132 0.235652 0.235947 
0.236099 0.236163 0.236177 0.236166 0.236143 0.236119 0.236098 0.236082 0.236074 
0.236074 0.236082 0.236097 0.236118 0.236143 0.236165 0.236177 0.236162 0.236098 
0.235947 0.235651 0.235131 0.234279 0.232964 0.231051 0.232146 0.233864 0.234885 
0.235446 0.235725 0.235843 0.235873 0.235859 0.235826 0.235788 0.235753 0.235723 
0.235701 0.235686 0.235678 0.235678 0.235685 0.235701 0.235723 0.235753 0.235788 
0.235826 0.235859 0.235873 0.235843 0.235725 0.235445 0.234885 0.233864 0.232146 
0.233501 0.234753 0.235324 0.235554 0.235622 0.235619 0.235588 0.235549 0.235511 
0.23548 0.235454 0.235435 0.235422 0.235413 0.235409 0.235409 0.235413 0.235421 
0.235435 0.235454 0.23548 0.235511 0.235549 0.235588 0.235619 0.235622 0.235554 
0.235324 0.234753 0.233501 602.896 1156.23 1413.81 1615.22 1750.27 1837.96 
1892.26 1907.7 1909.09 1918.94 1926.67 1924.06 1918.31 1911.55 1895.65 
1873.05 1859.19 1861.99 1875.77 1890.67 1897.5 1898.65 1894.19 1870.01 
1814.23 1724.66 1591.56 1401.06 1158.8 610.374 476.028 1040.19 1328.41 
1533.48 1672.51 1758.59 1805.71 1824.3 1827.76 1828.16 1824.26 1816.05 
1806.58 1797.13 1786.34 1775.64 1770.93 1776.92 1789.22 1802.11 1811.41 
1817.05 1814.55 1793.62 1743.15 1656.4 1521 1325.06 1047.46 485.253 
439.85 942.297 1243.67 1454.55 1595.93 1681.44 1726.32 1745.59 1748.35 
1741.64 1728.49 1713.85 1700.42 1689.85 1684.01 1683.12 1686.82 1696.31 
1708.44 1720.92 1731.78 1739.67 1738.63 1720.36 1674.27 1590.08 1452.88 
1248.09 952.275 450.366 436.825 877.401 1176.94 1387.6 1528.99 1614.9 
1660.07 1679.13 1679.96 1668.44 1649.48 1629.92 1613.05 1602.13 1600.89 
1608.09 1618.64 1630.76 1642.83 1655.58 1667.35 1675.37 1673.75 1656.37 
1613.29 1531.56 1394.62 1186.76 888.358 447.088 438.993 849.302 1132.96 
1335.04 1473.92 1560.47 1606.54 1625.12 1623.79 1608.98 1587.26 1565.04 
1545.36 1533.98 1536.74 1550.92 1566.8 1580 1591.42 1604.74 1617.51 
1624.33 1619.99 1601.75 1561 1482.31 1348.31 1145.96 859.979 447.79 
437.93 845.707 1106.35 1294.94 1430.28 1518.02 1565.08 1583.44 1580.51 
1563.23 1541.47 1519.07 1497.12 1484.62 1490.64 1511.11 1531.1 1543.32 
1553.07 1567.08 1581.65 1586.34 1577.03 1556.07 1517.18 1441.75 1311.81 
1119.99 854.604 444.293 437.077 849.193 1089.77 1266.42 1399.47 1489.47 
1537.28 1555.68 1552.12 1532 1512.25 1491.94 1468.05 1453.4 1461.74 
1488.08 1511.53 1520.53 1527.76 1542.52 1560.52 1562.78 1546.7 1521.31 
1484 1411.57 1284.06 1101.1 854.421 440.323 481.436 868.949 1087.45 
1258.31 1391.33 1484.07 1530.82 1548.1 1543.69 1517.91 1499.96 1482.57 
1456.01 1437.52 1447.56 1480.74 1508.62 1512.59 1516.92 1533.1 1557.8 
1558.84 1535.52 1505.43 1471.42 1403.32 1275.37 1094.38 869.051 481.654 
0.0911006 0.0918885 0.0926544 0.0933972 0.094115 0.0948052 0.0954651 0.096091 0.0966793 
0.0972258 0.0977264 0.0981769 0.0985735 0.0989123 0.09919 0.0994038 0.0995509 0.0996296 
0.0996381 0.0995754 0.099441 0.0992345 0.098956 0.0986058 0.0981842 0.0976917 0.0971288 
0.0964956 0.0957922 0.0950184 0.0909462 0.0917374 0.0925092 0.0932606 0.0939894 0.0946931 
0.0953682 0.0960108 0.0966166 0.097181 0.0976994 0.0981672 0.0985801 0.0989339 0.099225 
0.0994502 0.099607 0.0996932 0.0997073 0.0996485 0.0995161 0.0993103 0.0990313 0.0986797 
0.0982562 0.0977615 0.0971964 0.0965613 0.0958567 0.0950824 0.0908311 0.0916245 0.0924011 
0.0931596 0.0938979 0.0946129 0.0953008 0.0959573 0.0965776 0.0971567 0.0976895 0.098171 
0.0985965 0.0989615 0.0992623 0.0994953 0.0996581 0.0997484 0.0997648 0.0997066 0.0995735 
0.0993657 0.0990838 0.0987287 0.0983014 0.097803 0.0972345 0.0965966 0.0958899 0.0951145 
0.0906888 0.0914845 0.0922667 0.093034 0.0937839 0.0945128 0.0952165 0.0958902 0.0965284 
0.0971256 0.0976763 0.0981748 0.0986159 0.0989949 0.0993077 0.0995506 0.0997208 0.0998163 
0.0998357 0.0997783 0.0996443 0.0994341 0.0991487 0.0987894 0.0983575 0.0978546 0.0972819 
0.0966406 0.0959313 0.0951545 0.0905412 0.0913395 0.0921278 0.0929047 0.093667 0.094411 
0.0951317 0.0958238 0.0964812 0.0970979 0.0976674 0.0981838 0.0986413 0.0990347 0.0993596 
0.0996122 0.0997896 0.0998897 0.0999112 0.0998537 0.0997176 0.0995038 0.0992136 0.0988486 
0.0984109 0.0979023 0.0973245 0.096679 0.0959667 0.0951882 0.0903826 0.0911837 0.0919788 
0.0927661 0.0935422 0.0943027 0.0950422 0.0957545 0.096433 0.0970708 0.0976609 0.0981967 
0.0986719 0.0990809 0.0994187 0.0996814 0.0998661 0.0999705 0.0999936 0.0999354 0.0997963 
0.0995776 0.0992814 0.0989097 0.0984649 0.0979495 0.0973656 0.0967151 0.0959993 0.0952189 
0.0902147 0.0910189 0.0918214 0.0926202 0.0934113 0.0941899 0.0949497 0.095684 0.0963853 
0.097046 0.0976582 0.0982148 0.0987088 0.0991341 0.0994853 0.0997584 0.0999502 0.100059 
0.100083 0.100022 0.0998791 0.0996544 0.0993507 0.0989708 0.0985177 0.0979942 0.0974032 
0.0967469 0.096027 0.0952444 0.0900367 0.0908442 0.0916549 0.0924662 0.0932738 0.094072 
0.094854 0.0956121 0.0963381 0.0970234 0.0976595 0.0982384 0.0987524 0.0991949 0.0995602 
0.0998438 0.100043 0.100154 0.100179 0.100116 0.0999667 0.0997345 0.0994218 0.0990321 
0.0985691 0.0980362 0.0974369 0.0967739 0.0960492 0.0952642 0.0898482 0.0906595 0.0914791 
0.092304 0.0931294 0.093949 0.0947551 0.095539 0.0962917 0.0970036 0.0976654 0.098268 
0.0988033 0.099264 0.0996439 0.0999383 0.100144 0.100259 0.100282 0.100215 0.100059 
0.0998177 0.0994943 0.0990932 0.0986186 0.0980749 0.097466 0.0967952 0.0960652 0.0952774 
0.0896487 0.0904641 0.0912934 0.0921332 0.092978 0.0938208 0.094653 0.0954649 0.0962464 
0.096987 0.0976763 0.0983044 0.0988623 0.099342 0.0997371 0.100042 0.100255 0.100372 
0.100393 0.100321 0.100156 0.0999041 0.0995683 0.0991538 0.0986659 0.0981097 0.0974898 
0.0968102 0.0960741 0.0952832 0.0894376 0.0902574 0.0910973 0.0919533 0.0928193 0.0936872 
0.0945477 0.0953899 0.0962025 0.0969739 0.0976927 0.098348 0.0989299 0.0994298 0.0998407 
0.100157 0.100375 0.100494 0.100513 0.100433 0.100259 0.0999939 0.0996436 0.0992137 
0.0987106 0.0981401 0.0975077 0.0968182 0.0960751 0.0952808 0.0892141 0.0900388 0.0908902 
0.0917638 0.0926528 0.093548 0.0944391 0.095314 0.0961601 0.0969647 0.0977151 0.0983994 
0.0990068 0.099528 0.0999553 0.100283 0.100507 0.100627 0.100641 0.100553 0.100367 
0.100087 0.0997202 0.0992728 0.0987523 0.0981656 0.0975192 0.0968184 0.0960676 0.0952693 
0.0889776 0.0898078 0.0906717 0.0915644 0.0924782 0.0934031 0.0943272 0.0952373 0.0961196 
0.0969598 0.0977441 0.0984594 0.0990939 0.0996374 0.100082 0.100421 0.100651 0.10077 
0.100779 0.100681 0.100481 0.100184 0.0997981 0.0993309 0.0987908 0.0981858 0.0975235 
0.0968101 0.0960505 0.0952479 0.0887274 0.0895635 0.090441 0.0913545 0.0922952 0.093252 
0.0942119 0.0951601 0.0960812 0.0969597 0.0977802 0.0985285 0.0991917 0.0997587 0.100221 
0.100571 0.100806 0.100925 0.100927 0.100818 0.100601 0.100285 0.0998774 0.0993877 
0.0988255 0.0982001 0.09752 0.0967924 0.0960231 0.0952158 0.0884629 0.0893053 0.0901976 
0.0911335 0.0921034 0.0930948 0.0940931 0.0950823 0.0960452 0.0969646 0.0978239 0.0986073 
0.0993009 0.0998927 0.100373 0.100735 0.100975 0.101092 0.101086 0.100963 0.100728 
0.10039 0.0999579 0.0994431 0.0988563 0.098208 0.097508 0.0967647 0.0959846 0.0951719 
0.0881831 0.0890325 0.0899409 0.0909011 0.0919024 0.0929311 0.0939709 0.0950041 0.0960118 
0.0969751 0.0978758 0.0986966 0.0994224 0.10004 0.10054 0.100914 0.101158 0.101272 
0.101256 0.101117 0.100861 0.100499 0.10004 0.099497 0.0988827 0.0982089 0.0974869 