# vtk DataFile Version 5.1
vtk output
ASCII
DATASET UNSTRUCTURED_GRID
POINTS 4929 double
0.1016 1.5 0.1439999938 0.1016 1.45 0.16599999368 0.1016 1.4 0.15700000525 
0.1016 1.35 0.13199999928 0.1016 1.3 0.10700000077 0.1016 1.25 0.090000003576 
0.1016 1.2 0.075999997556 0.1016 1.15 0.059999998659 0.1016 1.1 0.0270000007 
0.1016 1.05 0 0.1016 1 -1.4520933349e-19 0.1016 0.95 -1.9172115972e-20 
0.1016 0.9 -1.9935036607e-21 0.1016 0.85 1.2043517074e-19 0.1016 0.8 2.5499320644e-20 
0.1016 0.75 -2.7692611041e-19 0.1016 0.7 0.0017266095383 0.1016 0.65 0.006275348831 
0.1016 0.6 0.015275382437 0.1016 0.55 0.034349132329 0.1016 0.5 0.057032302022 
0.1016 0.45 0.069950312376 0.1016 0.4 0.088548511267 0.1016 0.35 0.1118433848 
0.1016 0.3 0.13683372736 0.1016 0.25 0.16178821027 0.1016 0.2 0.18516084552 
0.1016 0.15 0.20709982514 0.1016 0.1 0.23110230267 0.1016 0.05 0.2536047399 
0.1016 0 0.2658187151 5.08 1.5 0.28700000048 5.08 1.45 0.28700000048 
5.08 1.4 0.28700000048 5.08 1.35 0.28700000048 5.08 1.3 0.28700000048 
5.08 1.25 0.28700000048 5.08 1.2 0.28700000048 5.08 1.15 0.28700000048 
5.08 1.1 0.28700000048 5.08 1.05 0.28700000048 5.08 1 0.28700000048 
5.08 0.95 0.28700000048 5.08 0.9 0.28700000048 5.08 0.85 0.28700000048 
5.08 0.8 0.28700000048 5.08 0.75 0.28700000048 5.08 0.7 0.28700000048 
5.08 0.65 0.28700000048 5.08 0.6 0.28700000048 5.08 0.55 0.28700000048 
5.08 0.5 0.28700000048 5.08 0.45 0.28700000048 5.08 0.4 0.28700000048 
5.08 0.35 0.28700000048 5.08 0.3 0.28700000048 5.08 0.25 0.28700000048 
5.08 0.2 0.28700000048 5.08 0.15 0.28700000048 5.08 0.1 0.28700000048 
5.08 0.05 0.28700000048 5.08 0 0.28700000048 0.12737462728 1.5 0.1507910341 
0.12737462728 1.45 0.16967715323 0.12737462728 1.4 0.16453096271 0.12737462728 1.35 0.13924466074 
0.12737462728 1.3 0.11179300398 0.12737462728 1.25 0.091728575528 0.12737462728 1.2 0.07720143348 
0.12737462728 1.15 0.065351217985 0.12737462728 1.1 0.038767263293 0.12737462728 1.05 0.010095033795 
0.12737462728 1 -0.00081655819668 0.12737462728 0.95 1.9428311134e-05 0.12737462728 0.9 0.00026101342519 
0.12737462728 0.85 2.4148555894e-05 0.12737462728 0.8 -5.3817097069e-05 0.12737462728 0.75 -8.6767904577e-05 
0.12737462728 0.7 0.00045566365588 0.12737462728 0.65 0.0019542288501 0.12737462728 0.6 0.0058519374579 
0.12737462728 0.55 0.022836450487 0.12737462728 0.5 0.047981780022 0.12737462728 0.45 0.05461114645 
0.12737462728 0.4 0.074895486236 0.12737462728 0.35 0.099331989884 0.12737462728 0.3 0.1257699281 
0.12737462728 0.25 0.15223304927 0.12737462728 0.2 0.17733550072 0.12737462728 0.15 0.20057636499 
0.12737462728 0.1 0.2280883044 0.12737462728 0.05 0.25636717677 0.12737462728 0 0.26787433028 
0.15441581276 1.5 0.15733589232 0.15441581276 1.45 0.17319840193 0.15441581276 1.4 0.17124161124 
0.15441581276 1.35 0.14639207721 0.15441581276 1.3 0.11615762115 0.15441581276 1.25 0.093051612377 
0.15441581276 1.2 0.077079929411 0.15441581276 1.15 0.069109812379 0.15441581276 1.1 0.050421155989 
0.15441581276 1.05 0.022821208462 0.15441581276 1 0.00045756829786 0.15441581276 0.95 -0.00010577934881 
0.15441581276 0.9 -9.59588142e-05 0.15441581276 0.85 4.3476943574e-06 0.15441581276 0.8 2.1786554498e-05 
0.15441581276 0.75 1.5466785044e-05 0.15441581276 0.7 8.6864583864e-06 0.15441581276 0.65 -2.3533866624e-05 
0.15441581276 0.6 -2.2623378754e-05 0.15441581276 0.55 0.013745664619 0.15441581276 0.5 0.041122786701 
0.15441581276 0.45 0.042821854353 0.15441581276 0.4 0.066781260073 0.15441581276 0.35 0.091932758689 
0.15441581276 0.3 0.11878988147 0.15441581276 0.25 0.14578913152 0.15441581276 0.2 0.17170213163 
0.15441581276 0.15 0.19585584104 0.15441581276 0.1 0.22603450716 0.15441581276 0.05 0.26000609994 
0.15441581276 0 0.2715613246 0.18278579477 1.5 0.16216810048 0.18278579477 1.45 0.17618699372 
0.18278579477 1.4 0.17462447286 0.18278579477 1.35 0.15193346143 0.18278579477 1.3 0.11838144064 
0.18278579477 1.25 0.093915238976 0.18278579477 1.2 0.078202039003 0.18278579477 1.15 0.070504657924 
0.18278579477 1.1 0.055835396051 0.18278579477 1.05 0.034242231399 0.18278579477 1 0.0073818857782 
0.18278579477 0.95 -0.0008749399567 0.18278579477 0.9 -0.00097177823773 0.18278579477 0.85 4.4029249693e-05 
0.18278579477 0.8 0.00022063318465 0.18278579477 0.75 0.00015663265367 0.18278579477 0.7 8.7968066509e-05 
0.18278579477 0.65 -0.00023832826992 0.18278579477 0.6 -3.2816587918e-05 0.18278579477 0.55 0.010639169253 
0.18278579477 0.5 0.029583189636 0.18278579477 0.45 0.040999602526 0.18278579477 0.4 0.064392209053 
0.18278579477 0.35 0.091515310109 0.18278579477 0.3 0.11628320813 0.18278579477 0.25 0.14327572286 
0.18278579477 0.2 0.16800197959 0.18278579477 0.15 0.19434389472 0.18278579477 0.1 0.22674204409 
0.18278579477 0.05 0.26006180048 0.18278579477 0 0.27923649549 0.21254987001 1.5 0.16912205517 
0.21254987001 1.45 0.18129588664 0.21254987001 1.4 0.178769961 0.21254987001 1.35 0.1584790051 
0.21254987001 1.3 0.12210386246 0.21254987001 1.25 0.096018590033 0.21254987001 1.2 0.079549334943 
0.21254987001 1.15 0.07110401243 0.21254987001 1.1 0.059331297874 0.21254987001 1.05 0.044514365494 
0.21254987001 1 0.018628451973 0.21254987001 0.95 0.0044738231227 0.21254987001 0.9 0.0029053241014 
0.21254987001 0.85 -0.00051403063117 0.21254987001 0.8 -0.00042016146472 0.21254987001 0.75 -0.00028493948048 
0.21254987001 0.7 -0.00030128951767 0.21254987001 0.65 -0.00029744394124 0.21254987001 0.6 0.0007500302163 
0.21254987001 0.55 0.01020119898 0.21254987001 0.5 0.024718550965 0.21254987001 0.45 0.042976696044 
0.21254987001 0.4 0.065460979939 0.21254987001 0.35 0.093071356416 0.21254987001 0.3 0.11635792255 
0.21254987001 0.25 0.14298541844 0.21254987001 0.2 0.16774837673 0.21254987001 0.15 0.19648656249 
0.21254987001 0.1 0.22891868651 0.21254987001 0.05 0.26043587923 0.21254987001 0 0.28405177593 
0.24377654385 1.5 0.17957128584 0.24377654385 1.45 0.18927793205 0.24377654385 1.4 0.18431285024 
0.24377654385 1.35 0.1670756489 0.24377654385 1.3 0.12947045267 0.24377654385 1.25 0.10029627383 
0.24377654385 1.2 0.081990659237 0.24377654385 1.15 0.071711234748 0.24377654385 1.1 0.063040696084 
0.24377654385 1.05 0.051919311285 0.24377654385 1 0.033998444676 0.24377654385 0.95 0.017943430692 
0.24377654385 0.9 0.01512681134 0.24377654385 0.85 -0.00056205806322 0.24377654385 0.8 -0.00045941839926 
0.24377654385 0.75 -0.00031156223849 0.24377654385 0.7 -0.00032943990664 0.24377654385 0.65 -0.00032523501432 
0.24377654385 0.6 0.00072667479981 0.24377654385 0.55 0.012610005215 0.24377654385 0.5 0.029565701261 
0.24377654385 0.45 0.047847967595 0.24377654385 0.4 0.067894056439 0.24377654385 0.35 0.094273023307 
0.24377654385 0.3 0.1187813729 0.24377654385 0.25 0.14477655292 0.24377654385 0.2 0.1720008105 
0.24377654385 0.15 0.20260047913 0.24377654385 0.1 0.23258954287 0.24377654385 0.05 0.26226913929 
0.24377654385 0 0.28345912695 0.27653768798 1.5 0.188074857 0.27653768798 1.45 0.19574593008 
0.27653768798 1.4 0.18759168684 0.27653768798 1.35 0.1733853817 0.27653768798 1.3 0.13755051792 
0.27653768798 1.25 0.10660494864 0.27653768798 1.2 0.087311215699 0.27653768798 1.15 0.073080271482 
0.27653768798 1.1 0.063810668886 0.27653768798 1.05 0.05601323396 0.27653768798 1 0.045168120414 
0.27653768798 0.95 0.036753099412 0.27653768798 0.9 0.02828829363 0.27653768798 0.85 0.010207134299 
0.27653768798 0.8 0.0043171597645 0.27653768798 0.75 0.0042425328866 0.27653768798 0.7 0.0045950547792 
0.27653768798 0.65 0.0041565545835 0.27653768798 0.6 0.0064575956203 0.27653768798 0.55 0.020515056327 
0.27653768798 0.5 0.037986312062 0.27653768798 0.45 0.057455275208 0.27653768798 0.4 0.074991934001 
0.27653768798 0.35 0.099533259869 0.27653768798 0.3 0.12630687654 0.27653768798 0.25 0.15310066938 
0.27653768798 0.2 0.1815841198 0.27653768798 0.15 0.21028663218 0.27653768798 0.1 0.23792006075 
0.27653768798 0.05 0.26573973894 0.27653768798 0 0.28307566047 0.31090870586 1.5 0.19804394245 
0.31090870586 1.45 0.20213462412 0.31090870586 1.4 0.1905618161 0.31090870586 1.35 0.17888469994 
0.31090870586 1.3 0.14739389718 0.31090870586 1.25 0.11641236395 0.31090870586 1.2 0.09533251822 
0.31090870586 1.15 0.075759127736 0.31090870586 1.1 0.063224345446 0.31090870586 1.05 0.056988723576 
0.31090870586 1 0.051103413105 0.31090870586 0.95 0.051879577339 0.31090870586 0.9 0.041414249688 
0.31090870586 0.85 0.030816141516 0.31090870586 0.8 0.020619554445 0.31090870586 0.75 0.018849920481 
0.31090870586 0.7 0.018324706703 0.31090870586 0.65 0.017104160041 0.31090870586 0.6 0.022040020674 
0.31090870586 0.55 0.034704942256 0.31090870586 0.5 0.051454473287 0.31090870586 0.45 0.073134765029 
0.31090870586 0.4 0.089433543384 0.31090870586 0.35 0.11203686893 0.31090870586 0.3 0.13954639435 
0.31090870586 0.25 0.16627463698 0.31090870586 0.2 0.19387084246 0.31090870586 0.15 0.21833248436 
0.31090870586 0.1 0.24425514042 0.31090870586 0.05 0.27091109753 0.31090870586 0 0.28252595663 
0.34696870625 1.5 0.21778613329 0.34696870625 1.45 0.20986518264 0.34696870625 1.4 0.19978919625 
0.34696870625 1.35 0.18453152478 0.34696870625 1.3 0.16158616543 0.34696870625 1.25 0.13127245009 
0.34696870625 1.2 0.10446519405 0.34696870625 1.15 0.081354089081 0.34696870625 1.1 0.065297544003 
0.34696870625 1.05 0.056984066963 0.34696870625 1 0.056180365384 0.34696870625 0.95 0.054883539677 
0.34696870625 0.9 0.053634364158 0.34696870625 0.85 0.051537387073 0.34696870625 0.8 0.047614239156 
0.34696870625 0.75 0.042886041105 0.34696870625 0.7 0.039503205568 0.34696870625 0.65 0.03621102497 
0.34696870625 0.6 0.046814832836 0.34696870625 0.55 0.051666393876 0.34696870625 0.5 0.073346741498 
0.34696870625 0.45 0.092254266143 0.34696870625 0.4 0.10999679565 0.34696870625 0.35 0.13045576215 
0.34696870625 0.3 0.1551220119 0.34696870625 0.25 0.17975746095 0.34696870625 0.2 0.20520636439 
0.34696870625 0.15 0.22680495679 0.34696870625 0.1 0.25203549862 0.34696870625 0.05 0.27656883001 
[...]
CELL_DATA 4740
FIELD FieldData 7
B_Stress_n_p_m2 1 4740 float
0.344895 0.355698 0.358606 0.359291 0.361406 0.365905 0.372374 0.375531 0.371395 
0.366639 0.366857 0.361857 0.348272 0.322974 0.284442 0.183052 0.120771 0.0885169 
0.0708356 0.0592555 0.049852 0.0428928 0.0380481 0.0344848 0.0317691 0.0296824 0.0281997 
0.0275878 0.0277398 0.0267885 0.339829 0.350243 0.354465 0.353269 0.353117 0.355298 
0.36072 0.365746 0.364243 0.356708 0.351616 0.346882 0.33559 0.314461 0.279737 
0.20274 0.14342 0.107889 0.0864145 0.0715799 0.0596489 0.0506155 0.0443241 0.039277 
0.0351647 0.0317267 0.0291132 0.0276127 0.0269919 0.0259434 0.333462 0.343173 0.347987 
0.345078 0.343084 0.344014 0.347858 0.352636 0.353385 0.345703 0.335759 0.329521 
0.318226 0.298755 0.266283 0.207227 0.156165 0.12118 0.0979695 0.0812565 0.0682971 
0.058183 0.0512373 0.0453423 0.0405052 0.0365168 0.0336768 0.032153 0.0314417 0.0309021 
0.328185 0.33749 0.341694 0.337374 0.332872 0.332579 0.335235 0.338839 0.339652 
0.333861 0.322502 0.313154 0.299223 0.279773 0.249832 0.203805 0.160957 0.128541 
0.105599 0.0885457 0.0751757 0.0651335 0.0577089 0.0514502 0.0462382 0.0422378 0.0395929 
0.0383641 0.0378665 0.0377152 0.324822 0.333489 0.336918 0.331686 0.324504 0.322389 
0.323151 0.325314 0.325567 0.321828 0.312098 0.299695 0.282421 0.260848 0.233341 
0.19642 0.160625 0.13179 0.110528 0.0942851 0.0812748 0.0714624 0.0637799 0.0575215 
0.0523725 0.0487339 0.0465064 0.0456448 0.0453651 0.0453613 0.32052 0.329091 0.331648 
0.326814 0.318096 0.313885 0.312127 0.31176 0.311277 0.308406 0.302177 0.288272 
0.269868 0.245831 0.220413 0.189688 0.159426 0.134274 0.114955 0.100031 0.0879712 
0.0782801 0.0706002 0.0646254 0.059964 0.0567849 0.0549521 0.0544354 0.0543952 0.0545177 
0.315657 0.325654 0.326781 0.323319 0.314105 0.307173 0.302765 0.299186 0.296706 
0.29428 0.28937 0.278008 0.260388 0.238042 0.21372 0.186861 0.160573 0.138583 
0.120861 0.107389 0.0961369 0.0868972 0.0794128 0.0737865 0.0696382 0.0668183 0.0651913 
0.0649106 0.0652296 0.0653607 0.315811 0.325307 0.325066 0.322199 0.313639 0.30371 
0.295618 0.288493 0.283385 0.280001 0.274717 0.266519 0.252218 0.23485 0.212957 
0.188523 0.164968 0.145317 0.129325 0.117104 0.106479 0.0978343 0.0906619 0.085353 
0.0814944 0.0788795 0.0774875 0.0775009 0.0780076 0.0782295 0.326301 0.327756 0.326302 
0.322024 0.315158 0.303938 0.291351 0.280377 0.272399 0.266277 0.260628 0.252528 
0.242202 0.229195 0.212591 0.191614 0.170994 0.153435 0.139891 0.128286 0.11874 
0.110333 0.10374 0.0988467 0.0954178 0.093328 0.0925119 0.0929225 0.0930016 0.0933712 
0.348609 0.337923 0.329823 0.324539 0.317177 0.305814 0.290951 0.276462 0.265468 
0.256434 0.248202 0.239298 0.229669 0.218478 0.206092 0.191516 0.175739 0.161555 
0.14997 0.13985 0.131576 0.123802 0.117959 0.113666 0.111375 0.110583 0.110802 
0.111175 0.110094 0.109558 0.37839 0.357697 0.340706 0.330931 0.322161 0.310252 
0.295052 0.278735 0.265946 0.253696 0.242756 0.231021 0.220029 0.209037 0.197773 
0.188021 0.177851 0.168314 0.15948 0.151622 0.145247 0.139222 0.134759 0.131836 
0.130751 0.131425 0.132416 0.131116 0.128203 0.126058 0.403506 0.384398 0.360696 
0.342767 0.331362 0.319262 0.304545 0.288926 0.27486 0.260206 0.247767 0.233857 
0.220572 0.209548 0.198056 0.189 0.182311 0.176829 0.171334 0.166804 0.163194 
0.160297 0.157736 0.156737 0.156614 0.156855 0.155777 0.151512 0.146122 0.142615 
0.415089 0.410536 0.390568 0.365882 0.347436 0.334055 0.319688 0.305487 0.289453 
0.275208 0.261674 0.249453 0.234759 0.222836 0.212075 0.202122 0.196675 0.193653 
0.19142 0.190495 0.18986 0.190261 0.189133 0.188736 0.188006 0.184161 0.177702 
0.170715 0.162961 0.159022 0.417191 0.421309 0.420974 0.401446 0.377436 0.356952 
0.341407 0.32534 0.309021 0.294474 0.281964 0.271923 0.259659 0.246602 0.236546 
0.227006 0.221123 0.219337 0.220491 0.221226 0.221282 0.221796 0.221552 0.220108 
0.21529 0.207194 0.197064 0.187126 0.179768 0.17575 0.417227 0.421697 0.428693 
0.431347 0.416599 0.393306 0.371659 0.352968 0.335436 0.318951 0.307809 0.299146 
0.288955 0.278657 0.267731 0.259603 0.252856 0.247994 0.246566 0.246533 0.24521 
0.240735 0.239379 0.235545 0.230935 0.22267 0.212442 0.203732 0.197003 0.193005 
0.419102 0.423442 0.428919 0.435947 0.441537 0.43387 0.415521 0.394049 0.37369 
0.356974 0.343237 0.333435 0.325387 0.318428 0.309759 0.301284 0.291909 0.28196 
0.272433 0.264741 0.259947 0.253154 0.247771 0.243996 0.240023 0.234832 0.227437 
0.220059 0.213918 0.209832 0.421181 0.426335 0.431453 0.43697 0.443497 0.449849 
0.450934 0.441301 0.425439 0.407701 0.397012 0.383892 0.374831 0.368807 0.362774 
0.353659 0.341116 0.327608 0.312437 0.295828 0.283924 0.27782 0.27115 0.265112 
0.258365 0.250892 0.244094 0.236429 0.230186 0.225894 0.423136 0.42902 0.434417 
0.439613 0.444975 0.450916 0.456982 0.462793 0.462383 0.456748 0.446234 0.441004 
0.430551 0.420682 0.412727 0.402824 0.391772 0.376492 0.361748 0.347099 0.328854 
0.316078 0.307396 0.29672 0.284868 0.274129 0.263134 0.254624 0.24828 0.244006 
0.428453 0.433642 0.439476 0.445054 0.450295 0.455506 0.460219 0.465052 0.470262 
0.473701 0.472223 0.467359 0.461546 0.453133 0.442156 0.430782 0.419049 0.408068 
0.396224 0.383189 0.370114 0.354941 0.338748 0.325244 0.309983 0.296411 0.285239 
0.276637 0.269948 0.265946 0.434102 0.439102 0.444534 0.4499 0.454857 0.459259 
0.463146 0.466301 0.468783 0.470393 0.470642 0.467807 0.462747 0.455739 0.447056 
0.437301 0.42699 0.41644 0.405385 0.39405 0.382592 0.370166 0.356448 0.341664 
0.328402 0.316501 0.306381 0.297942 0.291356 0.287391 0.434059 0.438869 0.443855 
0.448521 0.452648 0.456167 0.459031 0.461121 0.462319 0.462423 0.461176 0.458208 
0.453672 0.447723 0.440558 0.43246 0.423701 0.414445 0.404716 0.394602 0.384161 
0.373318 0.362114 0.350753 0.339962 0.330006 0.32116 0.313527 0.30735 0.303368 
0.429524 0.434557 0.439236 0.443385 0.4469 0.449745 0.451878 0.453235 0.453729 
0.453239 0.451631 0.448809 0.444814 0.439735 0.433703 0.426889 0.419454 0.411519 
0.403158 0.394442 0.385431 0.376171 0.366769 0.357417 0.348396 0.339933 0.332218 
0.325367 0.31958 0.315306 0.424994 0.430209 0.434698 0.438493 0.441584 0.443959 
0.445601 0.446481 0.446559 0.445783 0.444101 0.441487 0.437968 0.433607 0.428491 
0.42273 0.416429 0.409682 0.402563 0.395142 0.387483 0.379654 0.371747 0.363896 
0.356262 0.348992 0.342213 0.336016 0.330544 0.326055 0.420569 0.425771 0.430121 
0.433687 0.436499 0.438569 0.439907 0.440513 0.440382 0.439506 0.437878 0.435509 
0.432426 0.428682 0.424339 0.419471 0.414155 0.408459 0.402449 0.396184 0.389723 
0.383128 0.376471 0.369838 0.363324 0.35702 0.351006 0.345345 0.340141 0.335583 
0.416229 0.421378 0.425625 0.429046 0.431686 0.433578 0.434752 0.43523 0.435034 
0.434182 0.432695 0.430599 0.427931 0.424733 0.421059 0.416961 0.412497 0.40772 
0.402681 0.397426 0.392001 0.386455 0.380835 0.375194 0.369586 0.364064 0.358673 
0.35345 0.348471 0.343877 0.412085 0.41718 0.421355 0.424686 0.427231 0.429037 
0.430144 0.430595 0.430427 0.429676 0.428378 0.42657 0.424293 0.421587 0.418497 
0.415067 0.41134 0.407357 0.403153 0.398765 0.394223 0.389558 0.384798 0.37997 
0.3751 0.370213 0.365328 0.360464 0.355669 0.351046 0.408222 0.413268 0.417394 
0.420677 0.423182 0.424961 0.426068 0.426556 0.426472 0.425865 0.424779 0.423259 
0.421347 0.419084 0.416508 0.413657 0.410564 0.407259 0.403769 0.400116 0.396318 
0.392389 0.38834 0.38418 0.379913 0.375543 0.371071 0.366498 0.361853 0.357203 
0.4047 0.409703 0.413798 0.41706 0.419558 0.42135 0.422498 0.423059 0.423091 
0.422647 0.42178 0.420537 0.418961 0.417092 0.414966 0.412614 0.410064 0.407338 
0.404451 0.401416 0.398239 0.394922 0.391462 0.387851 0.384078 0.380131 0.375995 
0.371659 0.367134 0.362461 0.401555 0.40652 0.410595 0.413853 0.416365 0.418192 
0.419401 0.420054 0.420213 0.419937 0.419281 0.418294 0.417021 0.415501 0.413765 
0.411843 0.409755 0.407517 0.405137 0.40262 0.399961 0.397152 0.394177 0.391018 
0.38765 0.38405 0.38019 0.376047 0.37162 0.366927 0.398803 0.403733 0.407795 
0.411059 0.413593 0.415465 0.416742 0.41749 0.417776 0.41766 0.417199 0.416444 
0.415438 0.414221 0.412822 0.411265 0.409568 0.40774 0.405785 0.403698 0.401469 
0.39908 0.396507 0.393721 0.390688 0.387373 0.383741 0.379758 0.37541 0.370701 
0.396442 0.401342 0.405394 0.408665 0.411224 0.41314 0.414483 0.415321 0.415722 
0.41575 0.415462 0.41491 0.414137 0.413179 0.412066 0.410818 0.409449 0.407964 
0.406362 0.404634 0.402762 0.400722 0.398482 0.396005 0.393249 0.390172 0.386728 
0.382879 0.378598 0.373876 0.39446 0.399332 0.403374 0.406651 0.409231 0.411185 
0.412583 0.413499 0.414 0.414152 0.414012 0.413633 0.413056 0.412317 0.411444 
0.410454 0.409358 0.408159 0.406851 0.40542 0.403844 0.402094 0.400131 0.397912 
0.395389 0.392512 0.389228 0.385491 0.381267 0.376538 0.392834 0.397681 0.401711 
0.404989 0.407582 0.409562 0.411004 0.41198 0.412562 0.412814 0.412797 0.41256 
0.412146 0.411589 0.410914 0.410137 0.409267 0.408304 0.407239 0.406055 0.404726 
0.403218 0.401488 0.399488 0.397162 0.394455 0.391308 0.387669 0.383497 0.378763 
0.391538 0.39636 0.400376 0.403646 0.406242 0.408237 0.409705 0.410724 0.411364 
0.411694 0.411772 0.411649 0.411366 0.410956 0.410443 0.409841 0.409157 0.408388 
0.407525 0.406546 0.405423 0.404119 0.402586 0.400773 0.398618 0.396059 0.393033 
0.389481 0.385356 0.380622 0.390539 0.395338 0.399335 0.402591 0.405177 0.40717 
0.408648 0.40969 0.410369 0.410753 0.410901 0.410865 0.410685 0.410391 0.410008 
0.409547 0.409014 0.408405 0.407707 0.4069 0.405951 0.40482 0.403458 0.401807 
0.399802 0.397376 0.39446 0.390989 0.386909 0.382178 0.389809 0.394584 0.398557 
0.401788 0.404352 0.406328 0.407798 0.408843 0.409539 0.409955 0.410151 0.410178 
0.410074 0.409871 0.409589 0.409241 0.40883 0.408352 0.407792 0.407128 0.406327 
0.405346 0.404133 0.402627 0.400759 0.398455 0.395642 0.392247 0.388212 0.383489 
0.389316 0.394067 0.398009 0.401206 0.403733 0.405676 0.40712 0.408149 0.408842 
0.409271 0.409494 0.409561 0.409513 0.409377 0.409174 0.408915 0.408602 0.40823 
0.407784 0.407241 0.406568 0.405718 0.404639 0.403266 0.401525 0.399338 0.396624 
0.393307 0.389318 0.384606 0.389034 0.39376 0.397664 0.400814 0.403291 0.405183 
0.406583 0.407578 0.408251 0.408673 0.408904 0.408995 0.408982 0.408895 0.408751 
0.408561 0.408326 0.408041 0.407691 0.407252 0.406689 0.405958 0.405002 0.403754 
0.402136 0.400063 0.39745 0.394212 0.390273 0.385577 0.388941 0.393638 0.397496 
0.400586 0.402996 0.404821 0.406159 0.407103 0.407738 0.408137 0.408362 0.40846 
0.408468 0.408413 0.408312 0.408175 0.408002 0.407788 0.407518 0.407168 0.406705 
0.406082 0.405243 0.404116 0.40262 0.400665 0.398156 0.395002 0.391119 0.386443 
0.389017 0.393683 0.397484 0.4005 0.402825 0.404564 0.405822 0.406698 0.40728 
0.407643 0.407847 0.40794 0.407956 0.407921 0.40785 0.407753 0.407629 0.407474 
0.407272 0.407001 0.406627 0.406106 0.405378 0.404372 0.403002 0.40117 0.398775 
0.395714 0.391895 0.387244 0.389251 0.39388 0.397612 0.400535 0.402755 0.404389 
0.405549 0.406341 0.406856 0.40717 0.407343 0.407421 0.407436 0.407411 0.407361 
0.407293 0.407208 0.4071 0.406956 0.406755 0.406464 0.406039 0.405423 0.40454 
0.403302 0.401604 0.399334 0.396379 0.392635 0.388017 0.389638 0.394221 0.397868 
0.400677 0.402769 0.404275 0.405318 0.40601 0.406446 0.406702 0.406836 0.406891 
0.406898 0.406876 0.406839 0.406793 0.406738 0.40667 0.406575 0.406436 0.406221 
0.40589 0.405385 0.404631 0.403535 0.401985 0.399859 0.397028 0.393374 0.388797 
0.390179 0.394706 0.398245 0.400912 0.402848 0.404201 0.405107 0.405684 0.406031 
0.406222 0.406312 0.40634 0.406334 0.406311 0.406282 0.406251 0.40622 0.406183 
0.406131 0.406046 0.405903 0.405663 0.405271 0.404652 0.403711 0.402329 0.40037 
0.397689 0.394145 0.389622 0.390889 0.395344 0.398743 0.40123 0.402975 0.404145 
0.404893 0.405343 0.405593 0.405715 0.405758 0.405759 0.405738 0.405712 0.405687 
0.405667 0.405653 0.405642 0.405625 0.405589 0.405511 0.405358 0.405079 0.404602 
0.403832 0.402642 0.400883 0.398387 0.394984 0.390533 0.391795 0.39615 0.399363 
0.401619 0.403127 0.404083 0.404653 0.404965 0.405115 0.405168 0.405167 0.405141 
0.405108 0.405076 0.405054 0.405042 0.405041 0.405048 0.405059 0.405063 0.405043 
0.404971 0.404803 0.404475 0.403891 0.402923 0.401407 0.399145 0.395929 0.391576 
0.392941 0.397152 0.400107 0.402059 0.403275 0.403982 0.404358 0.40453 0.404583 
0.404573 0.404534 0.404487 0.404444 0.40441 0.404388 0.404382 0.404389 0.40441 
0.404441 0.404475 0.404502 0.404501 0.404437 0.404256 0.403872 0.403158 0.401938 
0.399982 0.397026 0.392817 0.394429 0.398407 0.400975 0.402514 0.403368 0.403794 
0.403969 0.404007 0.403976 0.403917 0.403852 0.403793 0.403744 0.403711 0.403692 
0.403688 0.4037 0.403727 0.403769 0.403822 0.403881 0.403934 0.40396 0.403918 
0.403738 0.403309 0.402453 0.400912 0.398343 0.394367 0.396445 0.399966 0.401905 
0.402871 0.403292 0.403426 0.40342 0.403355 0.403272 0.403192 0.403122 0.403066 
0.403025 0.402997 0.402983 0.402982 0.402993 0.403018 0.403057 0.403111 0.403178 
0.403257 0.403337 0.403401 0.403405 0.40327 0.402848 0.40188 0.399941 0.396422 
0.398956 0.401464 0.402504 0.40287 0.402946 0.402908 0.402833 0.402755 0.402686 
0.40263 0.402586 0.402554 0.402531 0.402517 0.40251 0.402509 0.402516 0.40253 
0.402552 0.402583 0.402626 0.402682 0.402751 0.402829 0.402903 0.402941 0.402864 
0.402498 0.401458 0.398951 0.403473 0.412927 0.418641 0.421947 0.427693 0.435594 
0.437333 0.436087 0.430624 0.420391 0.397723 0.357675 0.295403 0.208651 0.104504 
0.0167072 0.0144715 0.0165861 0.0191105 0.0209332 0.0220581 0.0225645 0.0226715 0.0225229 
0.0220367 0.0213712 0.0206279 0.019764 0.0191774 0.0187883 0.395711 0.404011 0.408867 
0.413958 0.421584 0.42865 0.433282 0.432766 0.429455 0.420085 0.401113 0.365725 
0.308047 0.223508 0.117742 0.0204748 0.0181734 0.0200556 0.0221731 0.0236465 0.0245416 
0.0249483 0.02506 0.0249722 0.0245805 0.0239945 0.0233497 0.0225894 0.0220366 0.0216717 
0.388038 0.39523 0.39939 0.405197 0.414565 0.420078 0.426084 0.425283 0.424405 
0.41779 0.402992 0.372742 0.320518 0.239377 0.13305 0.025041 0.0219633 0.0226281 
0.0235442 0.0240242 0.0241849 0.0241119 0.0239656 0.0237895 0.0234502 0.0230041 0.0225566 
0.0220418 0.0216685 0.021409 0.379974 0.386625 0.390107 0.39645 0.405541 0.411455 
0.415774 0.416843 0.415913 0.413669 0.403031 0.378201 0.332236 0.256084 0.151174 
0.0311776 0.0264361 0.0252919 0.0247059 0.0240485 0.0234116 0.0228141 0.0223497 0.0220213 
0.0217037 0.021401 0.0211507 0.0208776 0.0206695 0.0204474 0.370679 0.377761 0.381281 
0.387473 0.39544 0.402614 0.405085 0.408055 0.407037 0.407845 0.400948 0.381531 
0.342652 0.273704 0.173845 0.0401015 0.0321557 0.0285148 0.0262342 0.0244406 0.0230527 
0.0219542 0.0211674 0.0206645 0.0203319 0.0201305 0.0200409 0.019961 0.0198881 0.0196612 
0.361919 0.369198 0.372873 0.378762 0.385776 0.393193 0.396833 0.397832 0.397956 
0.399898 0.396356 0.382088 0.350766 0.291667 0.202116 0.053413 0.0396078 0.0324954 
0.0282863 0.0253472 0.0232125 0.0215989 0.0204722 0.0197683 0.019369 0.0191994 0.0192049 
0.0192667 0.0193143 0.0190385 0.354897 0.362942 0.365838 0.370726 0.37703 0.384261 
0.389965 0.388555 0.387376 0.389579 0.389068 0.37927 0.35527 0.308212 0.234716 
0.0722561 0.048768 0.0371684 0.0308442 0.0267246 0.023739 0.0215161 0.0199691 0.0189749 
0.0183866 0.0181044 0.0180513 0.0181341 0.0182464 0.0178362 0.349654 0.358941 0.36147 
0.364275 0.369013 0.375542 0.382154 0.381867 0.377991 0.377815 0.37922 0.37267 
0.354769 0.320075 0.265288 0.100799 0.0635844 0.0462253 0.0370812 0.0311803 0.0266969 
0.0233707 0.02101 0.0193516 0.0181883 0.0174051 0.016922 0.0167167 0.016688 0.0160206 
0.137514 0.138391 0.138786 0.138705 0.138162 0.137167 0.135736 0.133886 0.131635 
0.129007 0.126028 0.122726 0.119134 0.115287 0.111222 0.106981 0.10261 0.0981543 
0.0936665 0.0891997 0.0848102 0.0805564 0.0764982 0.072696 0.0692097 0.0660972 0.0634118 
0.0612013 0.059508 0.058362 0.139733 0.140591 0.140953 0.140826 0.140218 0.139142 
0.137611 0.135643 0.133258 0.130481 0.127338 0.123859 0.120076 0.116028 0.111752 
0.107293 0.102697 0.0980134 0.0932956 0.0885997 0.0839845 0.0795116 0.0752441 0.0712461 
0.0675814 0.0643121 0.0614959 0.0591845 0.0574207 0.0562354 0.141198 0.142054 0.142402 
0.142248 0.141601 0.140474 0.13888 0.136839 0.134369 0.131496 0.128247 0.124651 
0.120744 0.116563 0.112147 0.107541 0.102793 0.0979541 0.0930784 0.0882238 0.0834511 
0.0788239 0.0744078 0.0702698 0.0664768 0.0630942 0.0601835 0.0577996 0.0559883 0.0547831 
0.143031 0.143885 0.144217 0.14403 0.143336 0.142145 0.140472 0.138336 0.135758 
0.132763 0.129379 0.125637 0.121572 0.117222 0.11263 0.10784 0.102902 0.0978698 
0.0927985 0.0877482 0.0827823 0.0779668 0.0733704 0.0690633 0.0651163 0.0615985 0.0585758 
0.056107 0.0542419 0.053017 0.144867 0.145721 0.146036 0.145817 0.145074 0.14382 
0.142068 0.139839 0.137153 0.134036 0.130518 0.126629 0.122406 0.117888 0.11312 
0.108147 0.10302 0.0977951 0.0925291 0.0872844 0.0821264 0.0771239 0.0723484 0.0678734 
0.0637731 0.0601207 0.0569861 0.0544325 0.0525134 0.0512686 0.146801 0.147654 0.147952 
0.1477 0.146906 0.145585 0.143751 0.141423 0.138624 0.135379 0.131718 0.127675 
0.123286 0.118592 0.113638 0.108473 0.103148 0.0977212 0.0922518 0.0868043 0.0814465 
0.0762498 0.0712885 0.0666395 0.0623805 0.0585887 0.0553384 0.052697 0.0507221 0.049457 
0.148794 0.149647 0.149927 0.149641 0.148796 0.147406 0.145487 0.143058 0.140142 
0.136765 0.132959 0.128756 0.124196 0.119321 0.114177 0.108814 0.103286 0.0976525 
0.0919752 0.0863208 0.0807593 0.0753649 0.0702148 0.065389 0.0609688 0.0570354 0.0536674 
0.0509365 0.0489047 0.0476188 0.150851 0.151705 0.151967 0.151645 0.150748 0.149288 
0.147282 0.144749 0.141712 0.1382 0.134243 0.129877 0.12514 0.120078 0.114737 
0.109171 0.103434 0.0975886 0.0916983 0.0858322 0.080063 0.0744672 0.0691251 0.0641196 
0.0595357 0.0554586 0.0519708 0.049149 0.0470591 0.0457521 0.152968 0.153821 0.154067 
0.153709 0.152758 0.151227 0.149131 0.146492 0.143333 0.139681 0.135569 0.131034 
0.126116 0.120862 0.115319 0.109543 0.103593 0.09753 0.0914222 0.0853403 0.0793597 
0.0735597 0.068023 0.062836 0.0580868 0.0538644 0.0502558 0.0473419 0.0451933 0.0438648 
0.155143 0.155997 0.156224 0.15583 0.154825 0.153222 0.151036 0.148288 0.145002 
0.141208 0.136938 0.132229 0.127125 0.121672 0.115922 0.109932 0.103761 0.0974765 
0.0911464 0.0848448 0.0786497 0.0726427 0.0669097 0.0615397 0.0566242 0.052256 0.0485259 
0.0455194 0.0433116 0.0419614 0.157374 0.158229 0.158438 0.158009 0.156949 0.155272 
0.152994 0.150136 0.146722 0.142781 0.138348 0.133462 0.128166 0.122509 0.116546 
0.110335 0.10394 0.0974273 0.0908705 0.0843454 0.0779327 0.0717168 0.0657862 0.0602326 
0.0551508 0.0506367 0.0467854 0.0436865 0.0414195 0.0400477 0.15966 0.160516 0.160708 
0.160243 0.159128 0.157377 0.155007 0.152036 0.148491 0.144401 0.139802 0.134732 
0.129239 0.123373 0.117191 0.110753 0.104127 0.0973818 0.0905936 0.0838414 0.0772085 
0.0707821 0.0646531 0.0589162 0.0536688 0.0490101 0.0450386 0.0418482 0.0395226 0.0381294 
0.161997 0.162855 0.163031 0.16253 0.161361 0.159537 0.157072 0.153989 0.150311 
0.146068 0.141298 0.136041 0.130346 0.124264 0.117856 0.111186 0.104322 0.0973387 
0.0903145 0.0833316 0.0764762 0.0698382 0.0635111 0.0575919 0.0521808 0.0473796 0.0432902 
0.04001 0.0376271 0.0362131 0.164384 0.165244 0.165403 0.164868 0.163646 0.161748 
0.159191 0.155993 0.15218 0.147783 0.142838 0.137389 0.131485 0.125182 0.118541 
0.111631 0.104524 0.0972967 0.0900319 0.0828149 0.075735 0.0688848 0.0623605 0.0562613 
0.0506894 0.0457492 0.0415452 0.0381782 0.03574 0.0343062 0.166815 0.167677 0.167822 
0.167254 0.165979 0.16401 0.161359 0.158047 0.154098 0.149543 0.144421 0.138774 
0.132656 0.126125 0.119245 0.112088 0.104731 0.0972543 0.0897442 0.0822899 0.0749838 
0.0679217 0.0612019 0.0549258 0.0491975 0.0441231 0.0398094 0.0363597 0.033869 0.0324167 