# vtk DataFile Version 5.1
vtk output
ASCII
DATASET UNSTRUCTURED_GRID
POINTS 4929 double
0.1016 1.5 0 0.1016 1.45 0 0.1016 1.4 0 
0.1016 1.35 0 0.1016 1.3 0 0.1016 1.25 0 
0.1016 1.2 0 0.1016 1.15 0 0.1016 1.1 0 
0.1016 1.05 0 0.1016 1 0 0.1016 0.95 0 
0.1016 0.9 0 0.1016 0.85 0 0.1016 0.8 0 
0.1016 0.75 0 0.1016 0.7 0 0.1016 0.65 0 
0.1016 0.6 0 0.1016 0.55 0 0.1016 0.5 0 
0.1016 0.45 0 0.1016 0.4 0 0.1016 0.35 0 
0.1016 0.3 0 0.1016 0.25 0 0.1016 0.2 0 
0.1016 0.15 0 0.1016 0.1 0 0.1016 0.05 0 
0.1016 0 0 5.08 1.5 0 5.08 1.45 0 
5.08 1.4 0 5.08 1.35 0 5.08 1.3 0 
5.08 1.25 0 5.08 1.2 0 5.08 1.15 0 
5.08 1.1 0 5.08 1.05 0 5.08 1 0 
5.08 0.95 0 5.08 0.9 0 5.08 0.85 0 
5.08 0.8 0 5.08 0.75 0 5.08 0.7 0 
5.08 0.65 0 5.08 0.6 0 5.08 0.55 0 
5.08 0.5 0 5.08 0.45 0 5.08 0.4 0 
5.08 0.35 0 5.08 0.3 0 5.08 0.25 0 
5.08 0.2 0 5.08 0.15 0 5.08 0.1 0 
5.08 0.05 0 5.08 0 0 0.12737462728 1.5 0 
0.12737462728 1.45 0 0.12737462728 1.4 0 0.12737462728 1.35 0 
0.12737462728 1.3 0 0.12737462728 1.25 0 0.12737462728 1.2 0 
0.12737462728 1.15 0 0.12737462728 1.1 0 0.12737462728 1.05 0 
0.12737462728 1 0 0.12737462728 0.95 0 0.12737462728 0.9 0 
0.12737462728 0.85 0 0.12737462728 0.8 0 0.12737462728 0.75 0 
0.12737462728 0.7 0 0.12737462728 0.65 0 0.12737462728 0.6 0 
0.12737462728 0.55 0 0.12737462728 0.5 0 0.12737462728 0.45 0 
0.12737462728 0.4 0 0.12737462728 0.35 0 0.12737462728 0.3 0 
0.12737462728 0.25 0 0.12737462728 0.2 0 0.12737462728 0.15 0 
0.12737462728 0.1 0 0.12737462728 0.05 0 0.12737462728 0 0 
0.15441581276 1.5 0 0.15441581276 1.45 0 0.15441581276 1.4 0 
0.15441581276 1.35 0 0.15441581276 1.3 0 0.15441581276 1.25 0 
0.15441581276 1.2 0 0.15441581276 1.15 0 0.15441581276 1.1 0 
0.15441581276 1.05 0 0.15441581276 1 0 0.15441581276 0.95 0 
0.15441581276 0.9 0 0.15441581276 0.85 0 0.15441581276 0.8 0 
0.15441581276 0.75 0 0.15441581276 0.7 0 0.15441581276 0.65 0 
0.15441581276 0.6 0 0.15441581276 0.55 0 0.15441581276 0.5 0 
0.15441581276 0.45 0 0.15441581276 0.4 0 0.15441581276 0.35 0 
0.15441581276 0.3 0 0.15441581276 0.25 0 0.15441581276 0.2 0 
0.15441581276 0.15 0 0.15441581276 0.1 0 0.15441581276 0.05 0 
0.15441581276 0 0 0.18278579477 1.5 0 0.18278579477 1.45 0 
0.18278579477 1.4 0 0.18278579477 1.35 0 0.18278579477 1.3 0 
0.18278579477 1.25 0 0.18278579477 1.2 0 0.18278579477 1.15 0 
0.18278579477 1.1 0 0.18278579477 1.05 0 0.18278579477 1 0 
0.18278579477 0.95 0 0.18278579477 0.9 0 0.18278579477 0.85 0 
0.18278579477 0.8 0 0.18278579477 0.75 0 0.18278579477 0.7 0 
0.18278579477 0.65 0 0.18278579477 0.6 0 0.18278579477 0.55 0 
0.18278579477 0.5 0 0.18278579477 0.45 0 0.18278579477 0.4 0 
0.18278579477 0.35 0 0.18278579477 0.3 0 0.18278579477 0.25 0 
0.18278579477 0.2 0 0.18278579477 0.15 0 0.18278579477 0.1 0 
0.18278579477 0.05 0 0.18278579477 0 0 0.21254987001 1.5 0 
0.21254987001 1.45 0 0.21254987001 1.4 0 0.21254987001 1.35 0 
0.21254987001 1.3 0 0.21254987001 1.25 0 0.21254987001 1.2 0 
0.21254987001 1.15 0 0.21254987001 1.1 0 0.21254987001 1.05 0 
0.21254987001 1 0 0.21254987001 0.95 0 0.21254987001 0.9 0 
0.21254987001 0.85 0 0.21254987001 0.8 0 0.21254987001 0.75 0 
0.21254987001 0.7 0 0.21254987001 0.65 0 0.21254987001 0.6 0 
0.21254987001 0.55 0 0.21254987001 0.5 0 0.21254987001 0.45 0 
0.21254987001 0.4 0 0.21254987001 0.35 0 0.21254987001 0.3 0 
0.21254987001 0.25 0 0.21254987001 0.2 0 0.21254987001 0.15 0 
0.21254987001 0.1 0 0.21254987001 0.05 0 0.21254987001 0 0 
0.24377654385 1.5 0 0.24377654385 1.45 0 0.24377654385 1.4 0 
0.24377654385 1.35 0 0.24377654385 1.3 0 0.24377654385 1.25 0 
0.24377654385 1.2 0 0.24377654385 1.15 0 0.24377654385 1.1 0 
0.24377654385 1.05 0 0.24377654385 1 0 0.24377654385 0.95 0 
0.24377654385 0.9 0 0.24377654385 0.85 0 0.24377654385 0.8 0 
0.24377654385 0.75 0 0.24377654385 0.7 0 0.24377654385 0.65 0 
0.24377654385 0.6 0 0.24377654385 0.55 0 0.24377654385 0.5 0 
0.24377654385 0.45 0 0.24377654385 0.4 0 0.24377654385 0.35 0 
0.24377654385 0.3 0 0.24377654385 0.25 0 0.24377654385 0.2 0 
0.24377654385 0.15 0 0.24377654385 0.1 0 0.24377654385 0.05 0 
0.24377654385 0 0 0.27653768798 1.5 0 0.27653768798 1.45 0 
0.27653768798 1.4 0 0.27653768798 1.35 0 0.27653768798 1.3 0 
0.27653768798 1.25 0 0.27653768798 1.2 0 0.27653768798 1.15 0 
0.27653768798 1.1 0 0.27653768798 1.05 0 0.27653768798 1 0 
0.27653768798 0.95 0 0.27653768798 0.9 0 0.27653768798 0.85 0 
0.27653768798 0.8 0 0.27653768798 0.75 0 0.27653768798 0.7 0 
0.27653768798 0.65 0 0.27653768798 0.6 0 0.27653768798 0.55 0 
0.27653768798 0.5 0 0.27653768798 0.45 0 0.27653768798 0.4 0 
0.27653768798 0.35 0 0.27653768798 0.3 0 0.27653768798 0.25 0 
0.27653768798 0.2 0 0.27653768798 0.15 0 0.27653768798 0.1 0 
0.27653768798 0.05 0 0.27653768798 0 0 0.31090870586 1.5 0 
0.31090870586 1.45 0 0.31090870586 1.4 0 0.31090870586 1.35 0 
0.31090870586 1.3 0 0.31090870586 1.25 0 0.31090870586 1.2 0 
0.31090870586 1.15 0 0.31090870586 1.1 0 0.31090870586 1.05 0 
0.31090870586 1 0 0.31090870586 0.95 0 0.31090870586 0.9 0 
0.31090870586 0.85 0 0.31090870586 0.8 0 0.31090870586 0.75 0 
0.31090870586 0.7 0 0.31090870586 0.65 0 0.31090870586 0.6 0 
0.31090870586 0.55 0 0.31090870586 0.5 0 0.31090870586 0.45 0 
0.31090870586 0.4 0 0.31090870586 0.35 0 0.31090870586 0.3 0 
0.31090870586 0.25 0 0.31090870586 0.2 0 0.31090870586 0.15 0 
0.31090870586 0.1 0 0.31090870586 0.05 0 0.31090870586 0 0 
0.34696870625 1.5 0 0.34696870625 1.45 0 0.34696870625 1.4 0 
0.34696870625 1.35 0 0.34696870625 1.3 0 0.34696870625 1.25 0 
0.34696870625 1.2 0 0.34696870625 1.15 0 0.34696870625 1.1 0 
0.34696870625 1.05 0 0.34696870625 1 0 0.34696870625 0.95 0 
0.34696870625 0.9 0 0.34696870625 0.85 0 0.34696870625 0.8 0 
0.34696870625 0.75 0 0.34696870625 0.7 0 0.34696870625 0.65 0 
0.34696870625 0.6 0 0.34696870625 0.55 0 0.34696870625 0.5 0 
0.34696870625 0.45 0 0.34696870625 0.4 0 0.34696870625 0.35 0 
0.34696870625 0.3 0 0.34696870625 0.25 0 0.34696870625 0.2 0 
0.34696870625 0.15 0 0.34696870625 0.1 0 0.34696870625 0.05 0 
0.34696870625 0 0 0.3848006853 1.5 0 0.3848006853 1.45 0 
0.3848006853 1.4 0 0.3848006853 1.35 0 0.3848006853 1.3 0 
0.3848006853 1.25 0 0.3848006853 1.2 0 0.3848006853 1.15 0 
0.3848006853 1.1 0 0.3848006853 1.05 0 0.3848006853 1 0 
0.3848006853 0.95 0 0.3848006853 0.9 0 0.3848006853 0.85 0 
0.3848006853 0.8 0 0.3848006853 0.75 0 0.3848006853 0.7 0 
0.3848006853 0.65 0 0.3848006853 0.6 0 0.3848006853 0.55 0 
0.3848006853 0.5 0 0.3848006853 0.45 0 0.3848006853 0.4 0 
0.3848006853 0.35 0 0.3848006853 0.3 0 0.3848006853 0.25 0 
0.3848006853 0.2 0 0.3848006853 0.15 0 0.3848006853 0.1 0 
0.3848006853 0.05 0 0.3848006853 0 0 0.42449171754 1.5 0 
0.42449171754 1.45 0 0.42449171754 1.4 0 0.42449171754 1.35 0 
0.42449171754 1.3 0 0.42449171754 1.25 0 0.42449171754 1.2 0 
0.42449171754 1.15 0 0.42449171754 1.1 0 0.42449171754 1.05 0 
0.42449171754 1 0 0.42449171754 0.95 0 0.42449171754 0.9 0 
0.42449171754 0.85 0 0.42449171754 0.8 0 0.42449171754 0.75 0 
0.42449171754 0.7 0 0.42449171754 0.65 0 0.42449171754 0.6 0 
0.42449171754 0.55 0 0.42449171754 0.5 0 0.42449171754 0.45 0 
0.42449171754 0.4 0 0.42449171754 0.35 0 0.42449171754 0.3 0 
0.42449171754 0.25 0 0.42449171754 0.2 0 0.42449171754 0.15 0 
0.42449171754 0.1 0 0.42449171754 0.05 0 0.42449171754 0 0 
0.46613315636 1.5 0 0.46613315636 1.45 0 0.46613315636 1.4 0 
0.46613315636 1.35 0 0.46613315636 1.3 0 0.46613315636 1.25 0 
0.46613315636 1.2 0 0.46613315636 1.15 0 0.46613315636 1.1 0 
0.46613315636 1.05 0 0.46613315636 1 0 0.46613315636 0.95 0 
0.46613315636 0.9 0 0.46613315636 0.85 0 0.46613315636 0.8 0 
0.46613315636 0.75 0 0.46613315636 0.7 0 0.46613315636 0.65 0 
0.46613315636 0.6 0 0.46613315636 0.55 0 0.46613315636 0.5 0 
0.46613315636 0.45 0 0.46613315636 0.4 0 0.46613315636 0.35 0 
0.46613315636 0.3 0 0.46613315636 0.25 0 0.46613315636 0.2 0 
0.46613315636 0.15 0 0.46613315636 0.1 0 0.46613315636 0.05 0 
0.46613315636 0 0 0.5098208442 1.5 0 0.5098208442 1.45 0 
0.5098208442 1.4 0 0.5098208442 1.35 0 0.5098208442 1.3 0 
0.5098208442 1.25 0 0.5098208442 1.2 0 0.5098208442 1.15 0 
0.5098208442 1.1 0 0.5098208442 1.05 0 0.5098208442 1 0 
0.5098208442 0.95 0 0.5098208442 0.9 0 0.5098208442 0.85 0 
0.5098208442 0.8 0 0.5098208442 0.75 0 0.5098208442 0.7 0 
0.5098208442 0.65 0 0.5098208442 0.6 0 0.5098208442 0.55 0 
0.5098208442 0.5 0 0.5098208442 0.45 0 0.5098208442 0.4 0 
0.5098208442 0.35 0 0.5098208442 0.3 0 0.5098208442 0.25 0 
0.5098208442 0.2 0 0.5098208442 0.15 0 0.5098208442 0.1 0 
0.5098208442 0.05 0 0.5098208442 0 0 0.55565533319 1.5 0 
0.55565533319 1.45 0 0.55565533319 1.4 0 0.55565533319 1.35 0 
0.55565533319 1.3 0 0.55565533319 1.25 0 0.55565533319 1.2 0 
0.55565533319 1.15 0 0.55565533319 1.1 0 0.55565533319 1.05 0 
0.55565533319 1 0 0.55565533319 0.95 0 0.55565533319 0.9 0 
0.55565533319 0.85 0 0.55565533319 0.8 0 0.55565533319 0.75 0 
0.55565533319 0.7 0 0.55565533319 0.65 0 0.55565533319 0.6 0 
0.55565533319 0.55 0 0.55565533319 0.5 0 0.55565533319 0.45 0 
0.55565533319 0.4 0 0.55565533319 0.35 0 0.55565533319 0.3 0 
0.55565533319 0.25 0 0.55565533319 0.2 0 0.55565533319 0.15 0 
0.55565533319 0.1 0 0.55565533319 0.05 0 0.55565533319 0 0 
0.60374211656 1.5 0 0.60374211656 1.45 0 0.60374211656 1.4 0 
0.60374211656 1.35 0 0.60374211656 1.3 0 0.60374211656 1.25 0 
0.60374211656 1.2 0 0.60374211656 1.15 0 0.60374211656 1.1 0 
0.60374211656 1.05 0 0.60374211656 1 0 0.60374211656 0.95 0 
0.60374211656 0.9 0 0.60374211656 0.85 0 0.60374211656 0.8 0 
0.60374211656 0.75 0 0.60374211656 0.7 0 0.60374211656 0.65 0 
0.60374211656 0.6 0 0.60374211656 0.55 0 0.60374211656 0.5 0 
0.60374211656 0.45 0 0.60374211656 0.4 0 0.60374211656 0.35 0 
0.60374211656 0.3 0 0.60374211656 0.25 0 0.60374211656 0.2 0 
0.60374211656 0.15 0 0.60374211656 0.1 0 0.60374211656 0.05 0 
0.60374211656 0 0 0.65419187143 1.5 0 0.65419187143 1.45 0 
0.65419187143 1.4 0 0.65419187143 1.35 0 0.65419187143 1.3 0 
0.65419187143 1.25 0 0.65419187143 1.2 0 0.65419187143 1.15 0 
[...]
CELL_DATA 4740
FIELD FieldData 7
B_Stress_n_p_m2 1 4740 float
1.26944 1.28559 1.30028 1.31512 1.33046 1.34708 1.36537 1.38526 1.40587 
1.42481 1.43731 1.43411 1.39882 1.32219 1.17631 0.692942 0.411968 0.280604 
0.21348 0.171817 0.143741 0.123984 0.109687 0.0991821 0.0914261 0.0857345 0.0816437 
0.0788844 0.0771277 0.0751653 1.22912 1.24471 1.25806 1.27102 1.28374 1.29693 
1.31085 1.3254 1.33978 1.35201 1.35825 1.35112 1.31878 1.25235 1.11194 
0.760047 0.498814 0.351391 0.264199 0.206864 0.167002 0.138247 0.116984 0.101039 
0.0890325 0.0800477 0.0734644 0.0689007 0.0657834 0.0632404 1.18781 1.20279 1.21484 
1.22587 1.23596 1.24568 1.25515 1.26412 1.27174 1.27615 1.27392 1.25878 
1.22143 1.15169 1.01524 0.755745 0.539118 0.396385 0.302656 0.238158 0.192208 
0.158551 0.1334 0.114378 0.0999354 0.0890224 0.0809249 0.0751779 0.0709948 0.0678285 
1.14575 1.16009 1.17086 1.18 1.18753 1.19387 1.199 1.20252 1.20347 
1.2 1.18891 1.16488 1.12045 1.04625 0.919722 0.723604 0.547331 0.418162 
0.326557 0.260707 0.212511 0.1766 0.149457 0.128761 0.11294 0.1009 0.0918906 
0.0853941 0.0805546 0.0772682 1.10319 1.11686 1.12642 1.13375 1.13885 1.14203 
1.14312 1.14162 1.13648 1.1259 1.10698 1.0753 1.02509 0.949102 0.834875 
0.681354 0.538199 0.425235 0.340058 0.276213 0.228111 0.191538 0.163493 0.141873 
0.125192 0.112387 0.102717 0.0956491 0.0903419 0.0870353 1.06038 1.07339 1.08181 
1.08745 1.09034 1.09065 1.08817 1.08231 1.07201 1.0556 1.03059 0.993504 
0.940148 0.865707 0.764531 0.641117 0.523814 0.42613 0.348734 0.28847 0.241734 
0.20542 0.177109 0.154993 0.13774 0.12436 0.114156 0.106606 0.100921 0.0975506 
1.01762 1.02996 1.03733 1.04145 1.04238 1.04023 1.03473 1.02528 1.01092 
0.990167 0.961013 0.920894 0.867 0.796609 0.708019 0.606736 0.509303 0.424877 
0.355265 0.299203 0.254517 0.219026 0.190868 0.168554 0.150931 0.137115 0.126473 
0.118513 0.112517 0.109061 0.975191 0.986884 0.993316 0.996114 0.995382 0.991186 
0.983263 0.971069 0.953749 0.930107 0.898614 0.857502 0.805074 0.740111 0.662893 
0.578302 0.49627 0.423068 0.360739 0.309044 0.266783 0.232498 0.204812 0.182544 
0.164731 0.150611 0.139624 0.131324 0.125073 0.121526 0.933392 0.944458 0.95007 
0.95176 0.949684 0.943891 0.934155 0.920015 0.900779 0.875532 0.843191 0.802637 
0.752987 0.693971 0.62669 0.555019 0.485139 0.421397 0.365692 0.318306 0.278668 
0.245861 0.218908 0.196905 0.179077 0.164784 0.153553 0.144984 0.138529 0.134889 
0.892511 0.902979 0.907897 0.908703 0.905602 0.898651 0.88768 0.872332 0.852086 
0.826294 0.794251 0.75533 0.709198 0.656116 0.597403 0.535998 0.475898 0.420162 
0.370414 0.327166 0.29024 0.259106 0.233102 0.211566 0.193891 0.179562 0.168189 
0.159428 0.152817 0.149085 0.852819 0.862724 0.867077 0.867219 0.863401 0.855704 
0.844023 0.82811 0.807608 0.7821 0.751181 0.714573 0.672292 0.624848 0.573506 
0.520456 0.468381 0.41947 0.375057 0.335726 0.301529 0.272202 0.247327 0.226437 
0.209079 0.19485 0.183441 0.174564 0.167847 0.164026 0.814566 0.823946 0.827859 
0.827545 0.823297 0.815226 0.803291 0.78735 0.76719 0.742582 0.713345 0.679437 
0.641072 0.598845 0.553862 0.507753 0.462383 0.419343 0.379709 0.344052 0.312551 
0.285117 0.261512 0.241426 0.224534 0.210534 0.199195 0.190281 0.183504 0.179597 
0.777968 0.786867 0.790454 0.789874 0.785452 0.777327 0.765521 0.749982 0.730618 
0.707345 0.680139 0.649106 0.614559 0.577091 0.537625 0.497384 0.457704 0.419761 
0.384413 0.352184 0.323309 0.297814 0.275585 0.256433 0.24014 0.226492 0.215322 
0.206446 0.199655 0.195663 0.74321 0.751669 0.755036 0.754356 0.749977 0.742065 
0.730694 0.715887 0.697646 0.675991 0.651005 0.62288 0.591964 0.558803 0.524155 
0.488947 0.454161 0.420678 0.389185 0.360141 0.3338 0.310252 0.289471 0.271359 
0.255778 0.242588 0.231678 0.222912 0.216149 0.212074 0.710436 0.718499 0.721735 
0.721095 0.716937 0.709449 0.698747 0.68491 0.66801 0.648139 0.625447 0.600166 
0.572647 0.543373 0.512958 0.482117 0.451586 0.422038 0.394021 0.367928 0.34401 
0.32239 0.303099 0.286101 0.271323 0.258683 0.248113 0.23952 0.232821 0.228663 
0.679753 0.687459 0.690641 0.690152 0.686354 0.679448 0.669581 0.656873 0.641444 
0.623433 0.603025 0.580468 0.556093 0.530319 0.503646 0.476628 0.449831 0.423775 
0.398899 0.375536 0.353918 0.334183 0.316394 0.30056 0.286654 0.274634 0.264472 
0.256104 0.2495 0.24526 0.651226 0.658616 0.661803 0.661549 0.658212 0.651998 
0.643075 0.631589 0.617691 0.601546 0.583355 0.563366 0.54188 0.519256 0.495903 
0.472258 0.448761 0.42582 0.403787 0.382942 0.363495 0.345582 0.329285 0.314639 
0.301648 0.290302 0.280598 0.272499 0.266015 0.261692 0.624886 0.631996 0.635234 
0.635275 0.632465 0.627011 0.61909 0.608865 0.596502 0.58218 0.566103 0.548505 
0.529659 0.50987 0.489474 0.46882 0.448254 0.428101 0.408644 0.390119 0.372707 
0.356539 0.341702 0.328244 0.316191 0.305552 0.296342 0.288545 0.282199 0.277794 
0.60073 0.607593 0.610914 0.611289 0.609042 0.604379 0.597478 0.58851 0.577647 
0.56507 0.550978 0.535588 0.519143 0.501903 0.484145 0.466152 0.4482 0.430549 
0.413428 0.397032 0.381518 0.367005 0.353577 0.341289 0.330175 0.32026 0.311566 
0.304092 0.297894 0.293407 0.578725 0.58537 0.588796 0.589522 0.587852 0.583981 
0.578086 0.570339 0.56091 0.549977 0.537727 0.52436 0.51009 0.495139 0.479738 
0.464118 0.448501 0.433096 0.41809 0.403644 0.38989 0.376933 0.364849 0.353695 
0.343506 0.334313 0.326142 0.319001 0.312958 0.308391 0.558813 0.565268 0.56881 
0.56989 0.568788 0.565689 0.560763 0.554176 0.546095 0.536688 0.526131 0.514604 
0.502296 0.489397 0.476101 0.462597 0.449067 0.435679 0.422586 0.409918 0.397787 
0.38628 0.375466 0.365394 0.3561 0.347614 0.339963 0.333157 0.327269 0.322623 
0.540915 0.547203 0.550866 0.552291 0.551735 0.549369 0.545355 0.539853 0.53302 
0.525015 0.515998 0.506134 0.495588 0.484525 0.473106 0.461488 0.449821 0.438241 
0.426872 0.41582 0.405175 0.395009 0.385381 0.376331 0.36789 0.360084 0.352937 
0.34646 0.340725 0.336003 0.524936 0.531079 0.53486 0.536613 0.536568 0.534885 
0.531717 0.527213 0.52152 0.514787 0.507161 0.49879 0.489819 0.48039 0.470641 
0.460701 0.450694 0.440731 0.43091 0.421318 0.412026 0.403092 0.39456 0.386463 
0.378824 0.371663 0.364998 0.358838 0.353248 0.348453 0.510769 0.516786 0.520679 
0.522735 0.523161 0.522104 0.519705 0.516106 0.511443 0.505854 0.499473 0.492433 
0.484862 0.476883 0.468613 0.460161 0.451629 0.443105 0.43467 0.42639 0.418321 
0.410507 0.40298 0.395762 0.388868 0.38231 0.376098 0.370237 0.364784 0.359921 
0.498298 0.504205 0.508201 0.510532 0.511383 0.51089 0.509183 0.506394 0.50265 
0.498079 0.492803 0.486941 0.480606 0.473906 0.466942 0.459803 0.452575 0.445328 
0.438125 0.431018 0.424048 0.417245 0.41063 0.404214 0.398004 0.392003 0.386211 
0.380629 0.375303 0.370377 0.487403 0.493214 0.497303 0.499878 0.501107 0.501113 
0.500019 0.497946 0.495014 0.491339 0.487034 0.482207 0.476957 0.471379 0.46556 
0.459575 0.453493 0.447371 0.441259 0.435193 0.429203 0.423306 0.417511 0.411822 
0.406233 0.400739 0.395333 0.390008 0.384798 0.379813 0.477959 0.483687 0.487856 
0.490645 0.492204 0.492646 0.492087 0.49064 0.488416 0.485522 0.482064 0.478137 
0.473832 0.469232 0.46441 0.459431 0.454351 0.449216 0.444062 0.438915 0.433791 
0.428699 0.423637 0.418598 0.413568 0.408534 0.403477 0.398386 0.393282 0.388245 
0.469842 0.475497 0.479735 0.482707 0.484549 0.485367 0.485269 0.48436 0.482746 
0.480526 0.477797 0.474648 0.471158 0.467403 0.463444 0.459337 0.455128 0.450851 
0.446533 0.442189 0.437827 0.433445 0.429032 0.424571 0.42004 0.415417 0.410675 
0.405794 0.400785 0.395704 0.46293 0.468522 0.472815 0.475941 0.478022 0.479158 
0.479449 0.478998 0.477902 0.476257 0.47415 0.471664 0.468873 0.46584 0.462622 
0.459265 0.455806 0.45227 0.448676 0.445031 0.441334 0.437572 0.433729 0.429778 
0.42569 0.421432 0.416971 0.41228 0.407357 0.402236 0.457102 0.462639 0.466976 
0.470228 0.472506 0.473905 0.474521 0.474452 0.473791 0.472628 0.471046 0.469121 
0.466919 0.4645 0.461912 0.459194 0.456375 0.453475 0.450503 0.447461 0.444338 
0.441117 0.437771 0.434268 0.430569 0.426634 0.422423 0.4179 0.413055 0.407901 
0.452244 0.457733 0.462101 0.465453 0.467889 0.469501 0.470383 0.470627 0.470324 
0.46956 0.468413 0.466955 0.465248 0.463344 0.461286 0.459107 0.456831 0.45447 
0.45203 0.449503 0.446875 0.444121 0.441207 0.438093 0.434736 0.431086 0.427096 
0.422724 0.417948 0.412769 0.448245 0.453691 0.458081 0.461507 0.464066 0.465846 
0.466937 0.467432 0.467418 0.466978 0.466188 0.465115 0.463815 0.462338 0.460722 
0.458994 0.457173 0.455267 0.453276 0.451188 0.448983 0.446629 0.444088 0.441314 
0.438255 0.434856 0.431062 0.426825 0.422113 0.416914 0.445002 0.450409 0.45481 
0.45829 0.460938 0.462844 0.464096 0.464786 0.464999 0.464817 0.464312 0.463549 
0.462582 0.461454 0.460201 0.458846 0.457403 0.455878 0.454264 0.452547 0.450701 
0.448691 0.446472 0.443992 0.441194 0.438016 0.434397 0.430281 0.425629 0.420416 
0.442418 0.447791 0.452193 0.455705 0.458414 0.460407 0.461776 0.46261 0.462995 
0.463012 0.462731 0.462214 0.461512 0.460667 0.459709 0.458659 0.457528 0.456317 
0.455019 0.453613 0.452071 0.450354 0.448412 0.446189 0.44362 0.440639 0.437177 
0.433172 0.428575 0.423354 0.440406 0.445746 0.450141 0.453665 0.456407 0.458455 
0.4599 0.460834 0.461343 0.461507 0.461396 0.461069 0.460576 0.459954 0.459232 
0.458429 0.457552 0.4566 0.455562 0.454417 0.453133 0.451666 0.449964 0.447966 
0.445601 0.442796 0.439477 0.435575 0.431033 0.425809 0.438886 0.444195 0.448572 
0.452092 0.454841 0.456912 0.458398 0.459393 0.459984 0.460251 0.460263 0.460079 
0.459744 0.459297 0.458761 0.458155 0.457482 0.456742 0.45592 0.454992 0.453925 
0.452674 0.451182 0.449382 0.4472 0.444556 0.44137 0.437565 0.433077 0.427857 
0.437788 0.443066 0.447416 0.450913 0.453647 0.455712 0.457207 0.458228 0.458864 
0.459196 0.459292 0.459209 0.458993 0.458677 0.458287 0.457835 0.457326 0.456757 
0.456112 0.455366 0.454485 0.45342 0.452112 0.450491 0.448477 0.445984 0.442925 
0.439215 0.434783 0.429572 0.437049 0.442296 0.44661 0.450068 0.452763 0.454797 
0.456271 0.457287 0.457936 0.458299 0.458446 0.458431 0.458299 0.458081 0.457801 
0.457469 0.45709 0.456659 0.456159 0.455566 0.454843 0.453941 0.452799 0.451342 
0.449486 0.447139 0.444205 0.440591 0.436217 0.43102 0.43662 0.441834 0.4461 
0.449501 0.452135 0.454111 0.455539 0.456522 0.457156 0.457524 0.457693 0.457719 
0.457643 0.457495 0.457296 0.457057 0.45678 0.456459 0.456079 0.455615 0.455029 
0.454273 0.453282 0.45198 0.450277 0.448074 0.445266 0.441753 0.437444 0.432267 
0.436459 0.441635 0.445841 0.449166 0.451717 0.453611 0.454965 0.455891 0.456487 
0.456836 0.457005 0.457049 0.457007 0.456906 0.456767 0.456597 0.456399 0.456167 
0.455886 0.455531 0.455066 0.454442 0.453593 0.452441 0.45089 0.448835 0.446161 
0.442757 0.43852 0.433371 0.436535 0.441668 0.445799 0.449026 0.451468 0.453254 
0.454511 0.455357 0.455894 0.456204 0.456357 0.456401 0.456376 0.456306 0.456208 
0.45609 0.455953 0.455792 0.455593 0.455332 0.454974 0.454471 0.453759 0.452755 
0.451361 0.449463 0.446935 0.443652 0.4395 0.434386 0.436826 0.441908 0.445945 
0.449049 0.451354 0.453005 0.454141 0.454886 0.455346 0.455603 0.455725 0.455758 
0.455737 0.455684 0.455614 0.455534 0.455444 0.45534 0.455208 0.455028 0.454767 
0.454378 0.453799 0.452947 0.451718 0.44999 0.447626 0.444484 0.440433 0.435364 
0.437325 0.442343 0.446262 0.44921 0.451346 0.452832 0.453822 0.454447 0.454815 
0.455009 0.45509 0.455103 0.455078 0.455033 0.454981 0.454928 0.454874 0.454815 
0.454739 0.454629 0.454455 0.454175 0.453727 0.453031 0.45198 0.450442 0.448267 
0.445294 0.441366 0.436356 0.438037 0.442973 0.446738 0.449489 0.451414 0.452703 
0.453522 0.45401 0.454276 0.454399 0.454436 0.454424 0.45439 0.454348 0.454308 
0.454274 0.454246 0.454222 0.454191 0.454141 0.454045 0.453866 0.45355 0.453015 
0.452157 0.450836 0.448885 0.446118 0.442347 0.437416 0.438984 0.44381 0.447368 
0.449864 0.451529 0.452582 0.453207 0.453546 0.453705 0.453756 0.453748 0.453712 
0.453667 0.453625 0.453593 0.453572 0.453563 0.453565 0.45357 0.453568 0.45354 
0.453455 0.453265 0.452897 0.452248 0.451175 0.449494 0.446989 0.443427 0.438604 
0.440212 0.444877 0.448149 0.450309 0.451652 0.452431 0.452843 0.453029 0.453083 
0.453068 0.453021 0.452965 0.452912 0.45287 0.452842 0.45283 0.452834 0.452853 
0.452883 0.452918 0.452944 0.45294 0.452868 0.452666 0.45224 0.451449 0.450098 
0.447932 0.444659 0.439996 0.441828 0.446234 0.449077 0.450779 0.451722 0.452191 
0.452382 0.452421 0.452384 0.452317 0.452242 0.452174 0.452119 0.452079 0.452056 
0.45205 0.452061 0.452089 0.452133 0.45219 0.452254 0.452312 0.45234 0.452293 
0.452095 0.45162 0.450673 0.448968 0.446124 0.441719 0.444033 0.447931 0.450077 
0.451146 0.45161 0.451757 0.451749 0.451676 0.451583 0.451492 0.451414 0.451351 
0.451305 0.451273 0.451257 0.451254 0.451266 0.451293 0.451336 0.451394 0.451468 
0.451555 0.451645 0.451715 0.45172 0.451571 0.451105 0.450035 0.447889 0.443991 
0.446795 0.449572 0.450723 0.451127 0.45121 0.451167 0.451084 0.450997 0.45092 
0.450857 0.450809 0.450773 0.450747 0.450731 0.450723 0.450723 0.45073 0.450745 
0.450769 0.450804 0.450852 0.450913 0.450989 0.451076 0.451158 0.451201 0.451117 
0.450712 0.449562 0.446786 1.59009 1.60969 1.63323 1.65988 1.69024 1.7233 
1.75637 1.78346 1.7937 1.76968 1.68654 1.51407 1.22431 0.806052 0.323855 
0.0137899 0.018056 0.0256845 0.0325376 0.0373139 0.0404756 0.0425371 0.0438805 0.0447593 
0.0453353 0.0457106 0.0459495 0.0460927 0.0461599 0.0461675 1.55042 1.56975 1.59255 
1.61836 1.64795 1.68081 1.71502 1.7458 1.76381 1.75325 1.69019 1.54325 
1.27848 0.871094 0.376501 0.0210239 0.0273115 0.0353816 0.0421181 0.0467993 0.0499218 
0.051981 0.0533385 0.0542358 0.0548288 0.055217 0.0554638 0.0556094 0.0556765 0.0556395 
1.51029 1.52929 1.55122 1.57593 1.60433 1.63634 1.67075 1.70394 1.72823 
1.72983 1.68654 1.56707 1.33219 0.94284 0.441074 0.0299174 0.0369123 0.0426396 
0.0471916 0.0503223 0.0524502 0.0538966 0.0548801 0.0555484 0.0559997 0.0562991 0.0564896 
0.0565993 0.0566543 0.0566532 1.46991 1.48851 1.50944 1.53283 1.55966 1.5902 
1.62385 1.65803 1.68679 1.69862 1.67386 1.58275 1.38236 1.02066 0.522955 
0.0422212 0.0482023 0.0501157 0.0516902 0.0528007 0.0536326 0.0542686 0.0547481 0.0551016 
0.0553548 0.0555282 0.0556375 0.0556934 0.0557178 0.0556811 1.42945 1.4476 1.46742 
1.48931 1.51424 1.54275 1.57469 1.60844 1.63961 1.65913 1.65055 1.5872 
1.42505 1.10388 0.630695 0.0610734 0.0621498 0.0584556 0.0565689 0.0555566 0.0550699 
0.0548808 0.0548397 0.0548617 0.0549017 0.0549367 0.0549549 0.0549472 0.0549294 0.0548137 
1.3891 1.40676 1.42539 1.44562 1.46838 1.49438 1.52378 1.5557 1.58712 
1.61129 1.61537 1.57705 1.45498 1.18993 0.771959 0.0922176 0.07939 0.0673904 
0.061529 0.0583389 0.056543 0.0555262 0.054946 0.0546103 0.0544097 0.0542818 0.0541887 
0.0541024 0.0540316 0.0537514 1.349 1.36616 1.38352 1.402 1.4224 1.4455 
1.47167 1.50051 1.53006 1.55558 1.56769 1.54909 1.46529 1.26999 0.939062 
0.14028 0.0975485 0.0744854 0.0644526 0.0591005 0.0559734 0.0540691 0.0528725 0.0520994 
0.0515857 0.0512341 0.0509829 0.0507904 0.050657 0.0501023 1.30919 1.32585 1.34188 
1.35856 1.37646 1.39641 1.41882 1.44355 1.46937 1.49298 1.50782 1.50124 
1.44828 1.3234 1.09089 0.226147 0.129092 0.089421 0.0724433 0.0628613 0.0568216 
0.0528194 0.0500766 0.0481548 0.0467897 0.0458157 0.0451228 0.0446498 0.0443613 0.0435755 
0.800671 0.807828 0.810933 0.810071 0.805368 0.796947 0.784952 0.769549 0.750928 
0.729299 0.704893 0.677958 0.648763 0.61759 0.584738 0.550522 0.515268 0.479319 
0.443034 0.406789 0.370983 0.336041 0.302421 0.270625 0.241198 0.214739 0.191889 
0.173313 0.159675 0.151549 0.818071 0.825133 0.828022 0.826808 0.821595 0.812511 
0.799709 0.783364 0.763676 0.740869 0.715186 0.686892 0.65627 0.623618 0.589252 
0.553502 0.516712 0.479237 0.44145 0.403739 0.366511 0.3302 0.295273 0.262236 
0.231647 0.204121 0.180328 0.160977 0.146776 0.138347 0.829983 0.837055 0.839832 
0.83839 0.832835 0.823299 0.809941 0.792944 0.772516 0.748889 0.722319 0.69308 
0.661467 0.627792 0.592381 0.555577 0.517734 0.479219 0.440413 0.401711 0.363528 
0.3263 0.290496 0.256628 0.225258 0.197011 0.172577 0.152698 0.138126 0.129542 
0.844305 0.851402 0.854061 0.852356 0.846396 0.83632 0.822293 0.804507 0.783183 
0.758563 0.730916 0.70053 0.667716 0.632799 0.596122 0.558042 0.518928 0.479161 
0.439134 0.399252 0.359939 0.321637 0.28482 0.250002 0.21775 0.188699 0.163556 
0.143098 0.128127 0.119389 0.859014 0.866136 0.868667 0.866684 0.860299 0.849659 
0.834935 0.816331 0.794077 0.768429 0.739668 0.7081 0.674048 0.637856 0.599883 
0.560502 0.520098 0.479066 0.437814 0.396758 0.356329 0.316978 0.279181 0.243454 
0.210366 0.180556 0.154745 0.133735 0.11838 0.109493 0.874516 0.881665 0.884062 
0.881784 0.874949 0.86371 0.848247 0.828774 0.805533 0.778794 0.748855 0.716034 
0.680675 0.643138 0.6038 0.563053 0.521298 0.478949 0.436427 0.394161 0.352593 
0.31218 0.273403 0.236778 0.202872 0.172324 0.145865 0.124321 0.108589 0.0995533 
0.890686 0.897863 0.900118 0.897528 0.890219 0.87835 0.86211 0.841724 0.817447 
0.789564 0.758389 0.724258 0.687533 0.648593 0.607835 0.56567 0.522519 0.478813 
0.43499 0.391494 0.348778 0.307306 0.267563 0.230063 0.195371 0.164123 0.137051 
0.114997 0.0989 0.0897189 0.907553 0.914759 0.916864 0.913947 0.906139 0.893607 
0.876551 0.855206 0.829843 0.800762 0.768293 0.732792 0.69464 0.654237 0.612001 
0.568364 0.523768 0.478663 0.433506 0.388757 0.344881 0.302351 0.261656 0.223308 
0.187867 0.15596 0.128314 0.105782 0.0893379 0.0800151 0.925132 0.932369 0.934315 
0.931055 0.922723 0.909495 0.891583 0.869234 0.842732 0.812397 0.778575 0.741643 
0.702002 0.660075 0.616303 0.571138 0.525047 0.478502 0.431977 0.385951 0.340904 
0.297319 0.255688 0.216523 0.180374 0.147857 0.119689 0.0967191 0.0799518 0.0704934 
0.94346 0.950728 0.952508 0.948886 0.940005 0.926047 0.907237 0.883835 0.856142 
0.824493 0.789257 0.75083 0.709636 0.666121 0.62075 0.574001 0.526363 0.47833 
0.430402 0.383075 0.336844 0.292205 0.249656 0.209706 0.172897 0.139828 0.111197 
0.0878418 0.0707834 0.0611993 0.962582 0.969882 0.971487 0.967485 0.958027 0.943304 
0.923552 0.899046 0.870105 0.837082 0.800366 0.760377 0.717562 0.672392 0.625357 
0.576961 0.527719 0.478152 0.428781 0.380124 0.332695 0.287003 0.243552 0.202854 
0.165437 0.131882 0.102859 0.0791841 0.0618784 0.0521832 0.982556 0.989889 0.991309 
0.986909 0.976844 0.961317 0.940577 0.914914 0.884665 0.850203 0.811938 0.770315 
0.725807 0.678909 0.63014 0.580032 0.529127 0.477972 0.427114 0.377095 0.328451 
0.281704 0.237369 0.195958 0.15799 0.124023 0.094693 0.0707798 0.0532854 0.0435012 
1.00345 1.01082 1.01204 1.00722 0.996518 0.980147 0.95837 0.931494 0.899873 
0.863902 0.824016 0.780684 0.734404 0.685702 0.635124 0.583232 0.530598 0.477797 
0.425405 0.373989 0.324107 0.2763 0.231096 0.189009 0.15055 0.116252 0.0867144 
0.0626633 0.0450584 0.0352176 1.02533 1.03274 1.03376 1.0285 1.01712 0.999865 
0.976998 0.948848 0.915789 0.878237 0.836652 0.791529 0.743395 0.692807 0.64034 
0.586588 0.532153 0.477643 0.423663 0.370809 0.319663 0.270788 0.224725 0.181997 
0.143108 0.108569 0.0789353 0.0548687 0.0372574 0.0274086 1.0483 1.05574 1.05654 
1.05081 1.03874 1.02055 0.996538 0.967051 0.932482 0.893272 0.849906 0.802908 
0.752834 0.700272 0.64583 0.590136 0.533824 0.477537 0.42191 0.36757 0.315127 
0.265169 0.218256 0.174917 0.135658 0.100971 0.0713651 0.04743 0.0299504 0.0201679 
1.07242 1.0799 1.08048 1.07426 1.06144 1.04228 1.01707 0.98618 0.950029 
0.909082 0.863851 0.814888 0.762783 0.708156 0.651649 0.593925 0.535656 0.477517 
0.420179 0.364302 0.310525 0.259464 0.2117 0.167777 0.128205 0.0934617 0.0640183 
0.0403867 0.0232219 0.0136236 1.0978 1.10531 1.10565 1.09892 1.08533 1.06514 
1.03867 1.00632 0.968512 0.925747 0.878563 0.827545 0.773316 0.716529 0.657865 
0.598023 0.53771 0.477642 0.418524 0.361053 0.305899 0.253708 0.205086 0.160597 