# vtk DataFile Version 5.1
vtk output
ASCII
DATASET UNSTRUCTURED_GRID
POINTS 4929 double
0.1016 1.5 0 0.1016 1.45 0 0.1016 1.4 0 
0.1016 1.35 0 0.1016 1.3 0 0.1016 1.25 0 
0.1016 1.2 0 0.1016 1.15 0 0.1016 1.1 0 
0.1016 1.05 0 0.1016 1 0 0.1016 0.95 0 
0.1016 0.9 0 0.1016 0.85 0 0.1016 0.8 0 
0.1016 0.75 0 0.1016 0.7 0 0.1016 0.65 0 
0.1016 0.6 0 0.1016 0.55 0 0.1016 0.5 0 
0.1016 0.45 0 0.1016 0.4 0 0.1016 0.35 0 
0.1016 0.3 0 0.1016 0.25 0 0.1016 0.2 0 
0.1016 0.15 0 0.1016 0.1 0 0.1016 0.05 0 
0.1016 0 0 5.08 1.5 0 5.08 1.45 0 
5.08 1.4 0 5.08 1.35 0 5.08 1.3 0 
5.08 1.25 0 5.08 1.2 0 5.08 1.15 0 
5.08 1.1 0 5.08 1.05 0 5.08 1 0 
5.08 0.95 0 5.08 0.9 0 5.08 0.85 0 
5.08 0.8 0 5.08 0.75 0 5.08 0.7 0 
5.08 0.65 0 5.08 0.6 0 5.08 0.55 0 
5.08 0.5 0 5.08 0.45 0 5.08 0.4 0 
5.08 0.35 0 5.08 0.3 0 5.08 0.25 0 
5.08 0.2 0 5.08 0.15 0 5.08 0.1 0 
5.08 0.05 0 5.08 0 0 0.12737462728 1.5 0 
0.12737462728 1.45 0 0.12737462728 1.4 0 0.12737462728 1.35 0 
0.12737462728 1.3 0 0.12737462728 1.25 0 0.12737462728 1.2 0 
0.12737462728 1.15 0 0.12737462728 1.1 0 0.12737462728 1.05 0 
0.12737462728 1 0 0.12737462728 0.95 0 0.12737462728 0.9 0 
0.12737462728 0.85 0 0.12737462728 0.8 0 0.12737462728 0.75 0 
0.12737462728 0.7 0 0.12737462728 0.65 0 0.12737462728 0.6 0 
0.12737462728 0.55 0 0.12737462728 0.5 0 0.12737462728 0.45 0 
0.12737462728 0.4 0 0.12737462728 0.35 0 0.12737462728 0.3 0 
0.12737462728 0.25 0 0.12737462728 0.2 0 0.12737462728 0.15 0 
0.12737462728 0.1 0 0.12737462728 0.05 0 0.12737462728 0 0 
0.15441581276 1.5 0 0.15441581276 1.45 0 0.15441581276 1.4 0 
0.15441581276 1.35 0 0.15441581276 1.3 0 0.15441581276 1.25 0 
0.15441581276 1.2 0 0.15441581276 1.15 0 0.15441581276 1.1 0 
0.15441581276 1.05 0 0.15441581276 1 0 0.15441581276 0.95 0 
0.15441581276 0.9 0 0.15441581276 0.85 0 0.15441581276 0.8 0 
0.15441581276 0.75 0 0.15441581276 0.7 0 0.15441581276 0.65 0 
0.15441581276 0.6 0 0.15441581276 0.55 0 0.15441581276 0.5 0 
0.15441581276 0.45 0 0.15441581276 0.4 0 0.15441581276 0.35 0 
0.15441581276 0.3 0 0.15441581276 0.25 0 0.15441581276 0.2 0 
0.15441581276 0.15 0 0.15441581276 0.1 0 0.15441581276 0.05 0 
0.15441581276 0 0 0.18278579477 1.5 0 0.18278579477 1.45 0 
0.18278579477 1.4 0 0.18278579477 1.35 0 0.18278579477 1.3 0 
0.18278579477 1.25 0 0.18278579477 1.2 0 0.18278579477 1.15 0 
0.18278579477 1.1 0 0.18278579477 1.05 0 0.18278579477 1 0 
0.18278579477 0.95 0 0.18278579477 0.9 0 0.18278579477 0.85 0 
0.18278579477 0.8 0 0.18278579477 0.75 0 0.18278579477 0.7 0 
0.18278579477 0.65 0 0.18278579477 0.6 0 0.18278579477 0.55 0 
0.18278579477 0.5 0 0.18278579477 0.45 0 0.18278579477 0.4 0 
0.18278579477 0.35 0 0.18278579477 0.3 0 0.18278579477 0.25 0 
0.18278579477 0.2 0 0.18278579477 0.15 0 0.18278579477 0.1 0 
0.18278579477 0.05 0 0.18278579477 0 0 0.21254987001 1.5 0 
0.21254987001 1.45 0 0.21254987001 1.4 0 0.21254987001 1.35 0 
0.21254987001 1.3 0 0.21254987001 1.25 0 0.21254987001 1.2 0 
0.21254987001 1.15 0 0.21254987001 1.1 0 0.21254987001 1.05 0 
0.21254987001 1 0 0.21254987001 0.95 0 0.21254987001 0.9 0 
0.21254987001 0.85 0 0.21254987001 0.8 0 0.21254987001 0.75 0 
0.21254987001 0.7 0 0.21254987001 0.65 0 0.21254987001 0.6 0 
0.21254987001 0.55 0 0.21254987001 0.5 0 0.21254987001 0.45 0 
0.21254987001 0.4 0 0.21254987001 0.35 0 0.21254987001 0.3 0 
0.21254987001 0.25 0 0.21254987001 0.2 0 0.21254987001 0.15 0 
0.21254987001 0.1 0 0.21254987001 0.05 0 0.21254987001 0 0 
0.24377654385 1.5 0 0.24377654385 1.45 0 0.24377654385 1.4 0 
0.24377654385 1.35 0 0.24377654385 1.3 0 0.24377654385 1.25 0 
0.24377654385 1.2 0 0.24377654385 1.15 0 0.24377654385 1.1 0 
0.24377654385 1.05 0 0.24377654385 1 0 0.24377654385 0.95 0 
0.24377654385 0.9 0 0.24377654385 0.85 0 0.24377654385 0.8 0 
0.24377654385 0.75 0 0.24377654385 0.7 0 0.24377654385 0.65 0 
0.24377654385 0.6 0 0.24377654385 0.55 0 0.24377654385 0.5 0 
0.24377654385 0.45 0 0.24377654385 0.4 0 0.24377654385 0.35 0 
0.24377654385 0.3 0 0.24377654385 0.25 0 0.24377654385 0.2 0 
0.24377654385 0.15 0 0.24377654385 0.1 0 0.24377654385 0.05 0 
0.24377654385 0 0 0.27653768798 1.5 0 0.27653768798 1.45 0 
0.27653768798 1.4 0 0.27653768798 1.35 0 0.27653768798 1.3 0 
0.27653768798 1.25 0 0.27653768798 1.2 0 0.27653768798 1.15 0 
0.27653768798 1.1 0 0.27653768798 1.05 0 0.27653768798 1 0 
0.27653768798 0.95 0 0.27653768798 0.9 0 0.27653768798 0.85 0 
0.27653768798 0.8 0 0.27653768798 0.75 0 0.27653768798 0.7 0 
0.27653768798 0.65 0 0.27653768798 0.6 0 0.27653768798 0.55 0 
0.27653768798 0.5 0 0.27653768798 0.45 0 0.27653768798 0.4 0 
0.27653768798 0.35 0 0.27653768798 0.3 0 0.27653768798 0.25 0 
0.27653768798 0.2 0 0.27653768798 0.15 0 0.27653768798 0.1 0 
0.27653768798 0.05 0 0.27653768798 0 0 0.31090870586 1.5 0 
0.31090870586 1.45 0 0.31090870586 1.4 0 0.31090870586 1.35 0 
0.31090870586 1.3 0 0.31090870586 1.25 0 0.31090870586 1.2 0 
0.31090870586 1.15 0 0.31090870586 1.1 0 0.31090870586 1.05 0 
0.31090870586 1 0 0.31090870586 0.95 0 0.31090870586 0.9 0 
0.31090870586 0.85 0 0.31090870586 0.8 0 0.31090870586 0.75 0 
0.31090870586 0.7 0 0.31090870586 0.65 0 0.31090870586 0.6 0 
0.31090870586 0.55 0 0.31090870586 0.5 0 0.31090870586 0.45 0 
0.31090870586 0.4 0 0.31090870586 0.35 0 0.31090870586 0.3 0 
0.31090870586 0.25 0 0.31090870586 0.2 0 0.31090870586 0.15 0 
0.31090870586 0.1 0 0.31090870586 0.05 0 0.31090870586 0 0 
0.34696870625 1.5 0 0.34696870625 1.45 0 0.34696870625 1.4 0 
0.34696870625 1.35 0 0.34696870625 1.3 0 0.34696870625 1.25 0 
0.34696870625 1.2 0 0.34696870625 1.15 0 0.34696870625 1.1 0 
0.34696870625 1.05 0 0.34696870625 1 0 0.34696870625 0.95 0 
0.34696870625 0.9 0 0.34696870625 0.85 0 0.34696870625 0.8 0 
0.34696870625 0.75 0 0.34696870625 0.7 0 0.34696870625 0.65 0 
0.34696870625 0.6 0 0.34696870625 0.55 0 0.34696870625 0.5 0 
0.34696870625 0.45 0 0.34696870625 0.4 0 0.34696870625 0.35 0 
0.34696870625 0.3 0 0.34696870625 0.25 0 0.34696870625 0.2 0 
0.34696870625 0.15 0 0.34696870625 0.1 0 0.34696870625 0.05 0 
0.34696870625 0 0 0.3848006853 1.5 0 0.3848006853 1.45 0 
0.3848006853 1.4 0 0.3848006853 1.35 0 0.3848006853 1.3 0 
0.3848006853 1.25 0 0.3848006853 1.2 0 0.3848006853 1.15 0 
0.3848006853 1.1 0 0.3848006853 1.05 0 0.3848006853 1 0 
0.3848006853 0.95 0 0.3848006853 0.9 0 0.3848006853 0.85 0 
0.3848006853 0.8 0 0.3848006853 0.75 0 0.3848006853 0.7 0 
0.3848006853 0.65 0 0.3848006853 0.6 0 0.3848006853 0.55 0 
0.3848006853 0.5 0 0.3848006853 0.45 0 0.3848006853 0.4 0 
0.3848006853 0.35 0 0.3848006853 0.3 0 0.3848006853 0.25 0 
0.3848006853 0.2 0 0.3848006853 0.15 0 0.3848006853 0.1 0 
0.3848006853 0.05 0 0.3848006853 0 0 0.42449171754 1.5 0 
0.42449171754 1.45 0 0.42449171754 1.4 0 0.42449171754 1.35 0 
0.42449171754 1.3 0 0.42449171754 1.25 0 0.42449171754 1.2 0 
0.42449171754 1.15 0 0.42449171754 1.1 0 0.42449171754 1.05 0 
0.42449171754 1 0 0.42449171754 0.95 0 0.42449171754 0.9 0 
0.42449171754 0.85 0 0.42449171754 0.8 0 0.42449171754 0.75 0 
0.42449171754 0.7 0 0.42449171754 0.65 0 0.42449171754 0.6 0 
0.42449171754 0.55 0 0.42449171754 0.5 0 0.42449171754 0.45 0 
0.42449171754 0.4 0 0.42449171754 0.35 0 0.42449171754 0.3 0 
0.42449171754 0.25 0 0.42449171754 0.2 0 0.42449171754 0.15 0 
0.42449171754 0.1 0 0.42449171754 0.05 0 0.42449171754 0 0 
0.46613315636 1.5 0 0.46613315636 1.45 0 0.46613315636 1.4 0 
0.46613315636 1.35 0 0.46613315636 1.3 0 0.46613315636 1.25 0 
0.46613315636 1.2 0 0.46613315636 1.15 0 0.46613315636 1.1 0 
0.46613315636 1.05 0 0.46613315636 1 0 0.46613315636 0.95 0 
0.46613315636 0.9 0 0.46613315636 0.85 0 0.46613315636 0.8 0 
0.46613315636 0.75 0 0.46613315636 0.7 0 0.46613315636 0.65 0 
0.46613315636 0.6 0 0.46613315636 0.55 0 0.46613315636 0.5 0 
0.46613315636 0.45 0 0.46613315636 0.4 0 0.46613315636 0.35 0 
0.46613315636 0.3 0 0.46613315636 0.25 0 0.46613315636 0.2 0 
0.46613315636 0.15 0 0.46613315636 0.1 0 0.46613315636 0.05 0 
0.46613315636 0 0 0.5098208442 1.5 0 0.5098208442 1.45 0 
0.5098208442 1.4 0 0.5098208442 1.35 0 0.5098208442 1.3 0 
0.5098208442 1.25 0 0.5098208442 1.2 0 0.5098208442 1.15 0 
0.5098208442 1.1 0 0.5098208442 1.05 0 0.5098208442 1 0 
0.5098208442 0.95 0 0.5098208442 0.9 0 0.5098208442 0.85 0 
0.5098208442 0.8 0 0.5098208442 0.75 0 0.5098208442 0.7 0 
0.5098208442 0.65 0 0.5098208442 0.6 0 0.5098208442 0.55 0 
0.5098208442 0.5 0 0.5098208442 0.45 0 0.5098208442 0.4 0 
0.5098208442 0.35 0 0.5098208442 0.3 0 0.5098208442 0.25 0 
0.5098208442 0.2 0 0.5098208442 0.15 0 0.5098208442 0.1 0 
0.5098208442 0.05 0 0.5098208442 0 0 0.55565533319 1.5 0 
0.55565533319 1.45 0 0.55565533319 1.4 0 0.55565533319 1.35 0 
0.55565533319 1.3 0 0.55565533319 1.25 0 0.55565533319 1.2 0 
0.55565533319 1.15 0 0.55565533319 1.1 0 0.55565533319 1.05 0 
0.55565533319 1 0 0.55565533319 0.95 0 0.55565533319 0.9 0 
0.55565533319 0.85 0 0.55565533319 0.8 0 0.55565533319 0.75 0 
0.55565533319 0.7 0 0.55565533319 0.65 0 0.55565533319 0.6 0 
0.55565533319 0.55 0 0.55565533319 0.5 0 0.55565533319 0.45 0 
0.55565533319 0.4 0 0.55565533319 0.35 0 0.55565533319 0.3 0 
0.55565533319 0.25 0 0.55565533319 0.2 0 0.55565533319 0.15 0 
0.55565533319 0.1 0 0.55565533319 0.05 0 0.55565533319 0 0 
0.60374211656 1.5 0 0.60374211656 1.45 0 0.60374211656 1.4 0 
0.60374211656 1.35 0 0.60374211656 1.3 0 0.60374211656 1.25 0 
0.60374211656 1.2 0 0.60374211656 1.15 0 0.60374211656 1.1 0 
0.60374211656 1.05 0 0.60374211656 1 0 0.60374211656 0.95 0 
0.60374211656 0.9 0 0.60374211656 0.85 0 0.60374211656 0.8 0 
0.60374211656 0.75 0 0.60374211656 0.7 0 0.60374211656 0.65 0 
0.60374211656 0.6 0 0.60374211656 0.55 0 0.60374211656 0.5 0 
0.60374211656 0.45 0 0.60374211656 0.4 0 0.60374211656 0.35 0 
0.60374211656 0.3 0 0.60374211656 0.25 0 0.60374211656 0.2 0 
0.60374211656 0.15 0 0.60374211656 0.1 0 0.60374211656 0.05 0 
0.60374211656 0 0 0.65419187143 1.5 0 0.65419187143 1.45 0 
0.65419187143 1.4 0 0.65419187143 1.35 0 0.65419187143 1.3 0 
0.65419187143 1.25 0 0.65419187143 1.2 0 0.65419187143 1.15 0 
[...]
CELL_DATA 4740
FIELD FieldData 7
B_Stress_n_p_m2 1 4740 float
0.147869 0.147594 0.147507 0.147532 0.14757 0.147605 0.147635 0.147659 0.147678 
0.147693 0.147705 0.147715 0.147723 0.147729 0.147732 0.147732 0.147729 0.147723 
0.147715 0.147705 0.147693 0.147678 0.147659 0.147635 0.147605 0.14757 0.147532 
0.147507 0.147594 0.147869 0.108368 0.108528 0.108601 0.10871 0.108802 0.108874 
0.10893 0.108973 0.109006 0.10903 0.109049 0.109063 0.109074 0.109081 0.109085 
0.109085 0.109081 0.109074 0.109063 0.109049 0.10903 0.109006 0.108973 0.10893 
0.108874 0.108802 0.10871 0.108601 0.108528 0.108368 0.0999445 0.100947 0.101314 
0.101555 0.101727 0.101855 0.10195 0.102022 0.102076 0.102116 0.102146 0.102167 
0.102181 0.102189 0.102193 0.102193 0.102189 0.102181 0.102167 0.102146 0.102116 
0.102076 0.102022 0.10195 0.101855 0.101727 0.101555 0.101314 0.100947 0.0999445 
0.101635 0.102716 0.103251 0.103609 0.103863 0.10405 0.10419 0.104297 0.104377 
0.104437 0.104481 0.104512 0.104534 0.104547 0.104553 0.104553 0.104547 0.104534 
0.104512 0.104481 0.104437 0.104377 0.104297 0.10419 0.10405 0.103863 0.103609 
0.103251 0.102716 0.101635 0.101952 0.102968 0.103599 0.10405 0.104379 0.104626 
0.104814 0.104957 0.105065 0.105147 0.105208 0.105252 0.105282 0.105301 0.10531 
0.10531 0.105301 0.105282 0.105252 0.105208 0.105147 0.105065 0.104957 0.104814 
0.104626 0.104379 0.10405 0.103599 0.102968 0.101952 0.101524 0.102554 0.103264 
0.103795 0.104194 0.104498 0.104732 0.104912 0.10505 0.105155 0.105233 0.10529 
0.105329 0.105354 0.105366 0.105366 0.105354 0.105329 0.10529 0.105233 0.105155 
0.10505 0.104912 0.104732 0.104498 0.104194 0.103795 0.103264 0.102554 0.101524 
0.101184 0.102241 0.103016 0.103613 0.104074 0.104432 0.104711 0.104928 0.105095 
0.105224 0.10532 0.10539 0.105439 0.10547 0.105485 0.105485 0.10547 0.105439 
0.10539 0.10532 0.105224 0.105095 0.104928 0.104711 0.104432 0.104074 0.103613 
0.103016 0.102241 0.101184 0.10094 0.10201 0.102833 0.103485 0.103999 0.104406 
0.104727 0.104979 0.105176 0.105327 0.105442 0.105526 0.105585 0.105622 0.10564 
0.10564 0.105622 0.105585 0.105526 0.105442 0.105327 0.105176 0.104979 0.104727 
0.104406 0.103999 0.103485 0.102833 0.10201 0.10094 0.100733 0.101808 0.102667 
0.103363 0.103923 0.104373 0.104733 0.105018 0.105242 0.105417 0.105549 0.105647 
0.105716 0.10576 0.105782 0.105782 0.10576 0.105716 0.105647 0.105549 0.105417 
0.105242 0.105018 0.104733 0.104373 0.103923 0.103363 0.102667 0.101808 0.100733 
0.100554 0.101633 0.102519 0.10325 0.103849 0.104336 0.10473 0.105046 0.105297 
0.105493 0.105643 0.105754 0.105833 0.105884 0.105908 0.105908 0.105884 0.105833 
0.105754 0.105643 0.105493 0.105297 0.105046 0.10473 0.104336 0.103849 0.10325 
0.102519 0.101633 0.100554 0.100402 0.101483 0.102389 0.103149 0.10378 0.1043 
0.104724 0.105068 0.105342 0.105558 0.105725 0.10585 0.105938 0.105995 0.106022 
0.106022 0.105995 0.105938 0.10585 0.105725 0.105558 0.105342 0.105068 0.104724 
0.1043 0.10378 0.103149 0.102389 0.101483 0.100402 0.100274 0.101357 0.102278 
0.10306 0.103717 0.104265 0.104716 0.105084 0.10538 0.105615 0.105797 0.105933 
0.106031 0.106093 0.106124 0.106124 0.106093 0.106031 0.105933 0.105797 0.105615 
0.10538 0.105084 0.104716 0.104265 0.103717 0.10306 0.102278 0.101357 0.100274 
0.100167 0.10125 0.102184 0.102983 0.103662 0.104232 0.104706 0.105095 0.10541 
0.105662 0.105858 0.106006 0.106112 0.10618 0.106213 0.106213 0.10618 0.106112 
0.106006 0.105858 0.105662 0.10541 0.105095 0.104706 0.104232 0.103662 0.102983 
0.102184 0.10125 0.100167 0.100079 0.101162 0.102104 0.102918 0.103614 0.104203 
0.104696 0.105103 0.105435 0.105701 0.10591 0.106068 0.106181 0.106254 0.10629 
0.10629 0.106254 0.106181 0.106068 0.10591 0.105701 0.105435 0.105103 0.104696 
0.104203 0.103614 0.102918 0.102104 0.101162 0.100079 0.100006 0.10109 0.102038 
0.102863 0.103573 0.104177 0.104686 0.105108 0.105455 0.105733 0.105953 0.10612 
0.106239 0.106317 0.106355 0.106355 0.106317 0.106239 0.10612 0.105953 0.105733 
0.105455 0.105108 0.104686 0.104177 0.103573 0.102863 0.102038 0.10109 0.100006 
0.0999476 0.101031 0.101985 0.102818 0.103539 0.104155 0.104676 0.105112 0.10547 
0.105759 0.105988 0.106162 0.106287 0.106369 0.106409 0.106409 0.106369 0.106287 
0.106162 0.105988 0.105759 0.10547 0.105112 0.104676 0.104155 0.103539 0.102818 
0.101985 0.101031 0.0999476 0.0999018 0.100985 0.101943 0.102782 0.103511 0.104137 
0.104668 0.105113 0.105481 0.105779 0.106015 0.106195 0.106326 0.10641 0.106451 
0.106451 0.10641 0.106326 0.106195 0.106015 0.105779 0.105481 0.105113 0.104668 
0.104137 0.103511 0.102782 0.101943 0.100985 0.0999018 0.0998671 0.10095 0.101911 
0.102755 0.10349 0.104123 0.104661 0.105114 0.105489 0.105794 0.106036 0.106221 
0.106355 0.106442 0.106485 0.106485 0.106442 0.106355 0.106221 0.106036 0.105794 
0.105489 0.105114 0.104661 0.104123 0.10349 0.102755 0.101911 0.10095 0.0998671 
0.0998421 0.100925 0.101887 0.102734 0.103474 0.104112 0.104656 0.105114 0.105494 
0.105804 0.10605 0.106239 0.106376 0.106465 0.106509 0.106509 0.106465 0.106376 
0.106239 0.10605 0.105804 0.105494 0.105114 0.104656 0.104112 0.103474 0.102734 
0.101887 0.100925 0.0998421 0.0998256 0.100908 0.101871 0.10272 0.103463 0.104104 
0.104652 0.105114 0.105498 0.105811 0.10606 0.106251 0.10639 0.10648 0.106524 
0.106524 0.10648 0.10639 0.106251 0.10606 0.105811 0.105498 0.105114 0.104652 
0.104104 0.103463 0.10272 0.101871 0.100908 0.0998256 0.0998166 0.100898 0.101862 
0.102712 0.103456 0.104099 0.104649 0.105113 0.105499 0.105814 0.106064 0.106257 
0.106397 0.106488 0.106532 0.106532 0.106488 0.106397 0.106257 0.106064 0.105814 
0.105499 0.105113 0.104649 0.104099 0.103456 0.102712 0.101862 0.100898 0.0998166 
0.0998142 0.100895 0.101859 0.102709 0.103453 0.104097 0.104647 0.105112 0.105498 
0.105814 0.106065 0.106258 0.106398 0.106489 0.106534 0.106534 0.106489 0.106398 
0.106258 0.106065 0.105814 0.105498 0.105112 0.104647 0.104097 0.103453 0.102709 
0.101859 0.100895 0.0998142 0.0998177 0.100898 0.101861 0.102711 0.103454 0.104097 
0.104647 0.105111 0.105496 0.105811 0.106062 0.106254 0.106394 0.106485 0.106529 
0.106529 0.106485 0.106394 0.106254 0.106062 0.105811 0.105496 0.105111 0.104647 
0.104097 0.103454 0.102711 0.101861 0.100898 0.0998177 0.0998264 0.100906 0.101868 
0.102716 0.103458 0.104099 0.104647 0.105109 0.105493 0.105806 0.106055 0.106246 
0.106385 0.106475 0.106519 0.106519 0.106475 0.106385 0.106246 0.106055 0.105806 
0.105493 0.105109 0.104647 0.104099 0.103458 0.102716 0.101868 0.100906 0.0998264 
0.0998398 0.100918 0.101879 0.102726 0.103465 0.104104 0.104649 0.105108 0.105489 
0.105799 0.106045 0.106235 0.106371 0.10646 0.106504 0.106504 0.10646 0.106371 
0.106235 0.106045 0.105799 0.105489 0.105108 0.104649 0.104104 0.103465 0.102726 
0.101879 0.100918 0.0998398 0.0998575 0.100935 0.101894 0.102738 0.103475 0.10411 
0.104651 0.105106 0.105483 0.10579 0.106033 0.106219 0.106354 0.106442 0.106485 
0.106485 0.106442 0.106354 0.106219 0.106033 0.10579 0.105483 0.105106 0.104651 
0.10411 0.103475 0.102738 0.101894 0.100935 0.0998575 0.0998793 0.100956 0.101912 
0.102754 0.103487 0.104118 0.104654 0.105105 0.105477 0.105779 0.106018 0.106201 
0.106333 0.106419 0.106461 0.106461 0.106419 0.106333 0.106201 0.106018 0.105779 
0.105477 0.105105 0.104654 0.104118 0.103487 0.102754 0.101912 0.100956 0.0998793 
0.0999051 0.10098 0.101935 0.102773 0.103501 0.104127 0.104658 0.105103 0.105469 
0.105766 0.106001 0.106179 0.106308 0.106392 0.106433 0.106433 0.106392 0.106308 
0.106179 0.106001 0.105766 0.105469 0.105103 0.104658 0.104127 0.103501 0.102773 
0.101935 0.10098 0.0999051 0.0999347 0.101009 0.10196 0.102795 0.103518 0.104138 
0.104662 0.105101 0.105461 0.105752 0.105981 0.106155 0.10628 0.106361 0.106401 
0.106401 0.106361 0.10628 0.106155 0.105981 0.105752 0.105461 0.105101 0.104662 
0.104138 0.103518 0.102795 0.10196 0.101009 0.0999347 0.0999684 0.101041 0.10199 
0.102819 0.103537 0.10415 0.104668 0.105098 0.105451 0.105735 0.105958 0.106127 
0.106248 0.106327 0.106365 0.106365 0.106327 0.106248 0.106127 0.105958 0.105735 
0.105451 0.105098 0.104668 0.10415 0.103537 0.102819 0.10199 0.101041 0.0999684 
0.100006 0.101077 0.102022 0.102847 0.103558 0.104164 0.104673 0.105096 0.105441 
0.105717 0.105933 0.106096 0.106213 0.106288 0.106325 0.106325 0.106288 0.106213 
0.106096 0.105933 0.105717 0.105441 0.105096 0.104673 0.104164 0.103558 0.102847 
0.102022 0.101077 0.100006 0.100049 0.101118 0.102059 0.102878 0.103582 0.10418 
0.10468 0.105093 0.105429 0.105696 0.105905 0.106062 0.106174 0.106245 0.10628 
0.10628 0.106245 0.106174 0.106062 0.105905 0.105696 0.105429 0.105093 0.10468 
0.10418 0.103582 0.102878 0.102059 0.101118 0.100049 0.100096 0.101164 0.102101 
0.102913 0.103609 0.104197 0.104687 0.10509 0.105415 0.105673 0.105874 0.106023 
0.10613 0.106198 0.106231 0.106231 0.106198 0.10613 0.106023 0.105874 0.105673 
0.105415 0.10509 0.104687 0.104197 0.103609 0.102913 0.102101 0.101164 0.100096 
0.10015 0.101215 0.102147 0.102952 0.103638 0.104216 0.104695 0.105086 0.1054 
0.105648 0.105839 0.105981 0.106082 0.106146 0.106177 0.106177 0.106146 0.106082 
0.105981 0.105839 0.105648 0.1054 0.105086 0.104695 0.104216 0.103638 0.102952 
0.102147 0.101215 0.10015 0.100209 0.101272 0.102198 0.102995 0.103671 0.104237 
0.104703 0.105082 0.105383 0.10562 0.1058 0.105934 0.106028 0.106088 0.106117 
0.106117 0.106088 0.106028 0.105934 0.1058 0.10562 0.105383 0.105082 0.104703 
0.104237 0.103671 0.102995 0.102198 0.101272 0.100209 0.100276 0.101336 0.102256 
0.103044 0.103708 0.10426 0.104712 0.105076 0.105364 0.105588 0.105758 0.105882 
0.105969 0.106024 0.10605 0.10605 0.106024 0.105969 0.105882 0.105758 0.105588 
0.105364 0.105076 0.104712 0.10426 0.103708 0.103044 0.102256 0.101336 0.100276 
0.100352 0.101408 0.102321 0.103098 0.103749 0.104286 0.104722 0.10507 0.105343 
0.105552 0.10571 0.105824 0.105903 0.105953 0.105977 0.105977 0.105953 0.105903 
0.105824 0.10571 0.105552 0.105343 0.10507 0.104722 0.104286 0.103749 0.103098 
0.102321 0.101408 0.100352 0.100438 0.10149 0.102394 0.103159 0.103794 0.104314 
0.104732 0.105062 0.105318 0.105512 0.105656 0.10576 0.105831 0.105875 0.105896 
0.105896 0.105875 0.105831 0.10576 0.105656 0.105512 0.105318 0.105062 0.104732 
0.104314 0.103794 0.103159 0.102394 0.10149 0.100438 0.100535 0.101583 0.102477 
0.103227 0.103845 0.104345 0.104743 0.105052 0.105289 0.105466 0.105596 0.105688 
0.10575 0.105788 0.105806 0.105806 0.105788 0.10575 0.105688 0.105596 0.105466 
0.105289 0.105052 0.104743 0.104345 0.103845 0.103227 0.102477 0.101583 0.100535 
0.100646 0.101689 0.102571 0.103305 0.103902 0.104379 0.104753 0.10504 0.105256 
0.105414 0.105528 0.105607 0.10566 0.105691 0.105706 0.105706 0.105691 0.10566 
0.105607 0.105528 0.105414 0.105256 0.10504 0.104753 0.104379 0.103902 0.103305 
0.102571 0.101689 0.100646 0.100775 0.101811 0.102679 0.103392 0.103965 0.104416 
0.104763 0.105024 0.105216 0.105354 0.105451 0.105517 0.105559 0.105585 0.105596 
0.105596 0.105585 0.105559 0.105517 0.105451 0.105354 0.105216 0.105024 0.104763 
0.104416 0.103965 0.103392 0.102679 0.101811 0.100775 0.100924 0.101952 0.102803 
0.103492 0.104036 0.104455 0.104771 0.105003 0.105169 0.105285 0.105364 0.105415 
0.105447 0.105466 0.105474 0.105474 0.105466 0.105447 0.105415 0.105364 0.105285 
0.105169 0.105003 0.104771 0.104455 0.104036 0.103492 0.102803 0.101952 0.100924 
0.1011 0.102117 0.102946 0.103605 0.104114 0.104496 0.104776 0.104975 0.105112 
0.105204 0.105264 0.105301 0.105323 0.105335 0.10534 0.10534 0.105335 0.105323 
0.105301 0.105264 0.105204 0.105112 0.104975 0.104776 0.104496 0.104114 0.103605 
0.102946 0.102117 0.1011 0.101308 0.102311 0.103113 0.103733 0.104198 0.104537 
0.104775 0.104937 0.105043 0.10511 0.10515 0.105173 0.105185 0.10519 0.105192 
0.105192 0.10519 0.105185 0.105173 0.10515 0.10511 0.105043 0.104937 0.104775 
0.104537 0.104198 0.103733 0.103113 0.102311 0.101308 0.101559 0.102543 0.103307 
0.103878 0.104289 0.104574 0.104764 0.104885 0.104958 0.104999 0.10502 0.105029 
0.105032 0.105032 0.105031 0.105031 0.105032 0.105032 0.105029 0.10502 0.104999 
0.104958 0.104885 0.104764 0.104574 0.104289 0.103878 0.103307 0.102543 0.101559 
0.101867 0.102824 0.103534 0.104038 0.10438 0.104601 0.104736 0.104813 0.104853 
0.10487 0.104873 0.10487 0.104865 0.104861 0.104858 0.104858 0.104861 0.104865 
0.10487 0.104873 0.10487 0.104853 0.104813 0.104736 0.104601 0.10438 0.104038 
0.103534 0.102824 0.101867 0.102258 0.103169 0.103799 0.104209 0.104462 0.104607 
0.104682 0.104715 0.104723 0.104719 0.104709 0.104698 0.104688 0.104681 0.104677 
0.104677 0.104681 0.104688 0.104698 0.104709 0.104719 0.104723 0.104715 0.104682 
0.104607 0.104462 0.104209 0.103799 0.103169 0.102258 0.102788 0.103608 0.104098 
0.104369 0.104506 0.104564 0.10458 0.104575 0.10456 0.104542 0.104525 0.104511 
0.1045 0.104493 0.104489 0.104489 0.104493 0.1045 0.104511 0.104525 0.104542 
0.10456 0.104575 0.10458 0.104564 0.104506 0.104369 0.104098 0.103608 0.102788 
0.103443 0.104042 0.104317 0.104429 0.104463 0.104462 0.104447 0.104429 0.104411 
0.104396 0.104384 0.104374 0.104368 0.104363 0.104361 0.104361 0.104363 0.104368 
0.104374 0.104384 0.104396 0.104411 0.104429 0.104447 0.104462 0.104463 0.104429 
0.104317 0.104042 0.103443 0.109067 0.109021 0.10907 0.109099 0.10912 0.109136 
0.109149 0.10916 0.109169 0.109176 0.109182 0.109187 0.10919 0.109192 0.109193 
0.109193 0.109192 0.10919 0.109187 0.109182 0.109176 0.109169 0.10916 0.109149 
0.109136 0.10912 0.109099 0.10907 0.109021 0.109067 0.131443 0.131552 0.131594 
0.131623 0.131644 0.131662 0.131677 0.131689 0.131699 0.131708 0.131714 0.13172 
0.131724 0.131726 0.131727 0.131727 0.131726 0.131724 0.13172 0.131714 0.131708 
0.131699 0.131689 0.131677 0.131662 0.131644 0.131623 0.131594 0.131552 0.131443 
0.130306 0.130301 0.130306 0.130323 0.13034 0.130355 0.130369 0.13038 0.130389 
0.130397 0.130404 0.130408 0.130412 0.130415 0.130416 0.130416 0.130415 0.130412 
0.130408 0.130404 0.130397 0.130389 0.13038 0.130369 0.130355 0.13034 0.130323 
0.130306 0.130301 0.130306 0.123811 0.123827 0.123818 0.123828 0.123842 0.123854 
0.123866 0.123875 0.123884 0.123891 0.123896 0.123901 0.123904 0.123906 0.123907 
0.123907 0.123906 0.123904 0.123901 0.123896 0.123891 0.123884 0.123875 0.123866 
0.123854 0.123842 0.123828 0.123818 0.123827 0.123811 0.117954 0.118015 0.118013 
0.118024 0.118036 0.118046 0.118056 0.118065 0.118072 0.118078 0.118083 0.118087 
0.11809 0.118092 0.118093 0.118093 0.118092 0.11809 0.118087 0.118083 0.118078 
0.118072 0.118065 0.118056 0.118046 0.118036 0.118024 0.118013 0.118015 0.117954 
0.112273 0.112434 0.112452 0.112466 0.112477 0.112487 0.112496 0.112503 0.11251 
0.112515 0.11252 0.112523 0.112526 0.112527 0.112528 0.112528 0.112527 0.112526 
0.112523 0.11252 0.112515 0.11251 0.112503 0.112496 0.112487 0.112477 0.112466 
0.112452 0.112434 0.112273 0.10187 0.102232 0.102267 0.10228 0.10229 0.102298 
0.102306 0.102313 0.102319 0.102323 0.102327 0.10233 0.102332 0.102334 0.102334 
0.102334 0.102334 0.102332 0.10233 0.102327 0.102323 0.102319 0.102313 0.102306 
0.102298 0.10229 0.10228 0.102267 0.102232 0.10187 0.084932 0.0851873 0.0851916 
0.0851977 0.0852073 0.0852168 0.0852252 0.0852323 0.0852383 0.0852432 0.0852471 0.0852501 
0.0852524 0.0852539 0.0852546 0.0852546 0.0852539 0.0852524 0.0852501 0.0852471 0.0852432 
0.0852383 0.0852323 0.0852252 0.0852168 0.0852073 0.0851977 0.0851916 0.0851873 0.084932 
0.146148 0.147933 0.149567 0.151055 0.1524 0.153608 0.154682 0.155626 0.156444 
0.157139 0.157713 0.15817 0.158511 0.158737 0.15885 0.15885 0.158737 0.158511 
0.15817 0.157713 0.157139 0.156444 0.155626 0.154682 0.153608 0.1524 0.151055 
0.149567 0.147933 0.146148 0.146141 0.147926 0.149559 0.151045 0.152388 0.153594 
0.154665 0.155607 0.156422 0.157115 0.157687 0.158142 0.158482 0.158707 0.158819 
0.158819 0.158707 0.158482 0.158142 0.157687 0.157115 0.156422 0.155607 0.154665 
0.153594 0.152388 0.151045 0.149559 0.147926 0.146141 0.146145 0.147929 0.149561 
0.151046 0.152388 0.153591 0.154661 0.1556 0.156414 0.157104 0.157675 0.158128 
0.158466 0.15869 0.158802 0.158802 0.15869 0.158466 0.158128 0.157675 0.157104 
0.156414 0.1556 0.154661 0.153591 0.152388 0.151046 0.149561 0.147929 0.146145 
0.146147 0.147931 0.149562 0.151045 0.152385 0.153586 0.154653 0.15559 0.156401 
0.157089 0.157657 0.158108 0.158445 0.158668 0.158779 0.158779 0.158668 0.158445 
0.158108 0.157657 0.157089 0.156401 0.15559 0.154653 0.153586 0.152385 0.151045 
0.149562 0.147931 0.146147 0.146152 0.147935 0.149565 0.151046 0.152384 0.153583 
0.154647 0.155581 0.156389 0.157074 0.15764 0.158089 0.158424 0.158646 0.158757 
0.158757 0.158646 0.158424 0.158089 0.15764 0.157074 0.156389 0.155581 0.154647 
0.153583 0.152384 0.151046 0.149565 0.147935 0.146152 0.146157 0.14794 0.149568 
0.151048 0.152384 0.15358 0.154641 0.155572 0.156377 0.15706 0.157623 0.15807 
0.158403 0.158624 0.158734 0.158734 0.158624 0.158403 0.15807 0.157623 0.15706 
0.156377 0.155572 0.154641 0.15358 0.152384 0.151048 0.149568 0.14794 0.146157 
0.146164 0.147946 0.149573 0.151051 0.152384 0.153578 0.154636 0.155564 0.156365 
0.157045 0.157605 0.158049 0.15838 0.1586 0.158709 0.158709 0.1586 0.15838 
0.158049 0.157605 0.157045 0.156365 0.155564 0.154636 0.153578 0.152384 0.151051 
0.149573 0.147946 0.146164 0.146172 0.147953 0.149579 0.151055 0.152385 0.153576 
0.154631 0.155555 0.156353 0.157029 0.157586 0.158028 0.158357 0.158575 0.158684 
0.158684 0.158575 0.158357 0.158028 0.157586 0.157029 0.156353 0.155555 0.154631 
0.153576 0.152385 0.151055 0.149579 0.147953 0.146172 0.146181 0.147962 0.149586 
0.15106 0.152388 0.153575 0.154626 0.155547 0.156341 0.157014 0.157568 0.158007 
0.158333 0.15855 0.158658 0.158658 0.15855 0.158333 0.158007 0.157568 0.157014 
0.156341 0.155547 0.154626 0.153575 0.152388 0.15106 0.149586 0.147962 0.146181 
0.146191 0.147971 0.149594 0.151066 0.152391 0.153574 0.154622 0.155539 0.156329 
0.156998 0.157548 0.157984 0.158309 0.158524 0.158631 0.158631 0.158524 0.158309 
0.157984 0.157548 0.156998 0.156329 0.155539 0.154622 0.153574 0.152391 0.151066 
0.149594 0.147971 0.146191 0.146203 0.147982 0.149604 0.151073 0.152395 0.153575 
0.154618 0.155531 0.156317 0.156982 0.157528 0.157961 0.158283 0.158497 0.158603 
0.158603 0.158497 0.158283 0.157961 0.157528 0.156982 0.156317 0.155531 0.154618 
0.153575 0.152395 0.151073 0.149604 0.147982 0.146203 0.146217 0.147995 0.149614 
0.151081 0.152399 0.153576 0.154615 0.155523 0.156305 0.156965 0.157508 0.157938 
0.158257 0.158468 0.158574 0.158574 0.158468 0.158257 0.157938 0.157508 0.156965 
0.156305 0.155523 0.154615 0.153576 0.152399 0.151081 0.149614 0.147995 0.146217 
0.146231 0.148009 0.149626 0.15109 0.152405 0.153577 0.154612 0.155516 0.156293 
0.156948 0.157487 0.157913 0.15823 0.158439 0.158543 0.158543 0.158439 0.15823 
0.157913 0.157487 0.156948 0.156293 0.155516 0.154612 0.153577 0.152405 0.15109 
0.149626 0.148009 0.146231 0.146247 0.148024 0.14964 0.1511 0.152412 0.15358 
0.15461 0.155508 0.15628 0.156931 0.157465 0.157888 0.158201 0.158409 0.158512 
0.158512 0.158409 0.158201 0.157888 0.157465 0.156931 0.15628 0.155508 0.15461 
0.15358 0.152412 0.1511 0.14964 0.148024 0.146247 0.146265 0.14804 0.149654 
0.151112 0.152419 0.153583 0.154608 0.155501 0.156268 0.156913 0.157443 0.157862 
0.158172 0.158377 0.158479 0.158479 0.158377 0.158172 0.157862 0.157443 0.156913 
0.156268 0.155501 0.154608 0.153583 0.152419 0.151112 0.149654 0.14804 0.146265 
0.146284 0.148058 0.14967 0.151124 0.152428 0.153587 0.154606 0.155494 0.156255 
0.156895 0.15742 0.157834 0.158142 0.158344 0.158445 0.158445 0.158344 0.158142 
0.157834 0.15742 0.156895 0.156255 0.155494 0.154606 0.153587 0.152428 0.151124 
0.14967 0.148058 0.146284 0.146304 0.148078 0.149687 0.151138 0.152438 0.153591 
0.154605 0.155487 0.156242 0.156877 0.157397 0.157807 0.15811 0.158311 0.15841 