# vtk DataFile Version 5.1
vtk output
ASCII
DATASET UNSTRUCTURED_GRID
POINTS 4929 double
0.1016 1.5 0 0.1016 1.45 0 0.1016 1.4 0 
0.1016 1.35 0 0.1016 1.3 0 0.1016 1.25 0 
0.1016 1.2 0 0.1016 1.15 0 0.1016 1.1 0 
0.1016 1.05 0 0.1016 1 0 0.1016 0.95 0 
0.1016 0.9 0 0.1016 0.85 0 0.1016 0.8 0 
0.1016 0.75 0 0.1016 0.7 0 0.1016 0.65 0 
0.1016 0.6 0 0.1016 0.55 0 0.1016 0.5 0 
0.1016 0.45 0 0.1016 0.4 0 0.1016 0.35 0 
0.1016 0.3 0 0.1016 0.25 0 0.1016 0.2 0 
0.1016 0.15 0 0.1016 0.1 0 0.1016 0.05 0 
0.1016 0 0 5.08 1.5 0 5.08 1.45 0 
5.08 1.4 0 5.08 1.35 0 5.08 1.3 0 
5.08 1.25 0 5.08 1.2 0 5.08 1.15 0 
5.08 1.1 0 5.08 1.05 0 5.08 1 0 
5.08 0.95 0 5.08 0.9 0 5.08 0.85 0 
5.08 0.8 0 5.08 0.75 0 5.08 0.7 0 
5.08 0.65 0 5.08 0.6 0 5.08 0.55 0 
5.08 0.5 0 5.08 0.45 0 5.08 0.4 0 
5.08 0.35 0 5.08 0.3 0 5.08 0.25 0 
5.08 0.2 0 5.08 0.15 0 5.08 0.1 0 
5.08 0.05 0 5.08 0 0 0.12737462728 1.5 0 
0.12737462728 1.45 0 0.12737462728 1.4 0 0.12737462728 1.35 0 
0.12737462728 1.3 0 0.12737462728 1.25 0 0.12737462728 1.2 0 
0.12737462728 1.15 0 0.12737462728 1.1 0 0.12737462728 1.05 0 
0.12737462728 1 0 0.12737462728 0.95 0 0.12737462728 0.9 0 
0.12737462728 0.85 0 0.12737462728 0.8 0 0.12737462728 0.75 0 
0.12737462728 0.7 0 0.12737462728 0.65 0 0.12737462728 0.6 0 
0.12737462728 0.55 0 0.12737462728 0.5 0 0.12737462728 0.45 0 
0.12737462728 0.4 0 0.12737462728 0.35 0 0.12737462728 0.3 0 
0.12737462728 0.25 0 0.12737462728 0.2 0 0.12737462728 0.15 0 
0.12737462728 0.1 0 0.12737462728 0.05 0 0.12737462728 0 0 
0.15441581276 1.5 0 0.15441581276 1.45 0 0.15441581276 1.4 0 
0.15441581276 1.35 0 0.15441581276 1.3 0 0.15441581276 1.25 0 
0.15441581276 1.2 0 0.15441581276 1.15 0 0.15441581276 1.1 0 
0.15441581276 1.05 0 0.15441581276 1 0 0.15441581276 0.95 0 
0.15441581276 0.9 0 0.15441581276 0.85 0 0.15441581276 0.8 0 
0.15441581276 0.75 0 0.15441581276 0.7 0 0.15441581276 0.65 0 
0.15441581276 0.6 0 0.15441581276 0.55 0 0.15441581276 0.5 0 
0.15441581276 0.45 0 0.15441581276 0.4 0 0.15441581276 0.35 0 
0.15441581276 0.3 0 0.15441581276 0.25 0 0.15441581276 0.2 0 
0.15441581276 0.15 0 0.15441581276 0.1 0 0.15441581276 0.05 0 
0.15441581276 0 0 0.18278579477 1.5 0 0.18278579477 1.45 0 
0.18278579477 1.4 0 0.18278579477 1.35 0 0.18278579477 1.3 0 
0.18278579477 1.25 0 0.18278579477 1.2 0 0.18278579477 1.15 0 
0.18278579477 1.1 0 0.18278579477 1.05 0 0.18278579477 1 0 
0.18278579477 0.95 0 0.18278579477 0.9 0 0.18278579477 0.85 0 
0.18278579477 0.8 0 0.18278579477 0.75 0 0.18278579477 0.7 0 
0.18278579477 0.65 0 0.18278579477 0.6 0 0.18278579477 0.55 0 
0.18278579477 0.5 0 0.18278579477 0.45 0 0.18278579477 0.4 0 
0.18278579477 0.35 0 0.18278579477 0.3 0 0.18278579477 0.25 0 
0.18278579477 0.2 0 0.18278579477 0.15 0 0.18278579477 0.1 0 
0.18278579477 0.05 0 0.18278579477 0 0 0.21254987001 1.5 0 
0.21254987001 1.45 0 0.21254987001 1.4 0 0.21254987001 1.35 0 
0.21254987001 1.3 0 0.21254987001 1.25 0 0.21254987001 1.2 0 
0.21254987001 1.15 0 0.21254987001 1.1 0 0.21254987001 1.05 0 
0.21254987001 1 0 0.21254987001 0.95 0 0.21254987001 0.9 0 
0.21254987001 0.85 0 0.21254987001 0.8 0 0.21254987001 0.75 0 
0.21254987001 0.7 0 0.21254987001 0.65 0 0.21254987001 0.6 0 
0.21254987001 0.55 0 0.21254987001 0.5 0 0.21254987001 0.45 0 
0.21254987001 0.4 0 0.21254987001 0.35 0 0.21254987001 0.3 0 
0.21254987001 0.25 0 0.21254987001 0.2 0 0.21254987001 0.15 0 
0.21254987001 0.1 0 0.21254987001 0.05 0 0.21254987001 0 0 
0.24377654385 1.5 0 0.24377654385 1.45 0 0.24377654385 1.4 0 
0.24377654385 1.35 0 0.24377654385 1.3 0 0.24377654385 1.25 0 
0.24377654385 1.2 0 0.24377654385 1.15 0 0.24377654385 1.1 0 
0.24377654385 1.05 0 0.24377654385 1 0 0.24377654385 0.95 0 
0.24377654385 0.9 0 0.24377654385 0.85 0 0.24377654385 0.8 0 
0.24377654385 0.75 0 0.24377654385 0.7 0 0.24377654385 0.65 0 
0.24377654385 0.6 0 0.24377654385 0.55 0 0.24377654385 0.5 0 
0.24377654385 0.45 0 0.24377654385 0.4 0 0.24377654385 0.35 0 
0.24377654385 0.3 0 0.24377654385 0.25 0 0.24377654385 0.2 0 
0.24377654385 0.15 0 0.24377654385 0.1 0 0.24377654385 0.05 0 
0.24377654385 0 0 0.27653768798 1.5 0 0.27653768798 1.45 0 
0.27653768798 1.4 0 0.27653768798 1.35 0 0.27653768798 1.3 0 
0.27653768798 1.25 0 0.27653768798 1.2 0 0.27653768798 1.15 0 
0.27653768798 1.1 0 0.27653768798 1.05 0 0.27653768798 1 0 
0.27653768798 0.95 0 0.27653768798 0.9 0 0.27653768798 0.85 0 
0.27653768798 0.8 0 0.27653768798 0.75 0 0.27653768798 0.7 0 
0.27653768798 0.65 0 0.27653768798 0.6 0 0.27653768798 0.55 0 
0.27653768798 0.5 0 0.27653768798 0.45 0 0.27653768798 0.4 0 
0.27653768798 0.35 0 0.27653768798 0.3 0 0.27653768798 0.25 0 
0.27653768798 0.2 0 0.27653768798 0.15 0 0.27653768798 0.1 0 
0.27653768798 0.05 0 0.27653768798 0 0 0.31090870586 1.5 0 
0.31090870586 1.45 0 0.31090870586 1.4 0 0.31090870586 1.35 0 
0.31090870586 1.3 0 0.31090870586 1.25 0 0.31090870586 1.2 0 
0.31090870586 1.15 0 0.31090870586 1.1 0 0.31090870586 1.05 0 
0.31090870586 1 0 0.31090870586 0.95 0 0.31090870586 0.9 0 
0.31090870586 0.85 0 0.31090870586 0.8 0 0.31090870586 0.75 0 
0.31090870586 0.7 0 0.31090870586 0.65 0 0.31090870586 0.6 0 
0.31090870586 0.55 0 0.31090870586 0.5 0 0.31090870586 0.45 0 
0.31090870586 0.4 0 0.31090870586 0.35 0 0.31090870586 0.3 0 
0.31090870586 0.25 0 0.31090870586 0.2 0 0.31090870586 0.15 0 
0.31090870586 0.1 0 0.31090870586 0.05 0 0.31090870586 0 0 
0.34696870625 1.5 0 0.34696870625 1.45 0 0.34696870625 1.4 0 
0.34696870625 1.35 0 0.34696870625 1.3 0 0.34696870625 1.25 0 
0.34696870625 1.2 0 0.34696870625 1.15 0 0.34696870625 1.1 0 
0.34696870625 1.05 0 0.34696870625 1 0 0.34696870625 0.95 0 
0.34696870625 0.9 0 0.34696870625 0.85 0 0.34696870625 0.8 0 
0.34696870625 0.75 0 0.34696870625 0.7 0 0.34696870625 0.65 0 
0.34696870625 0.6 0 0.34696870625 0.55 0 0.34696870625 0.5 0 
0.34696870625 0.45 0 0.34696870625 0.4 0 0.34696870625 0.35 0 
0.34696870625 0.3 0 0.34696870625 0.25 0 0.34696870625 0.2 0 
0.34696870625 0.15 0 0.34696870625 0.1 0 0.34696870625 0.05 0 
0.34696870625 0 0 0.3848006853 1.5 0 0.3848006853 1.45 0 
0.3848006853 1.4 0 0.3848006853 1.35 0 0.3848006853 1.3 0 
0.3848006853 1.25 0 0.3848006853 1.2 0 0.3848006853 1.15 0 
0.3848006853 1.1 0 0.3848006853 1.05 0 0.3848006853 1 0 
0.3848006853 0.95 0 0.3848006853 0.9 0 0.3848006853 0.85 0 
0.3848006853 0.8 0 0.3848006853 0.75 0 0.3848006853 0.7 0 
0.3848006853 0.65 0 0.3848006853 0.6 0 0.3848006853 0.55 0 
0.3848006853 0.5 0 0.3848006853 0.45 0 0.3848006853 0.4 0 
0.3848006853 0.35 0 0.3848006853 0.3 0 0.3848006853 0.25 0 
0.3848006853 0.2 0 0.3848006853 0.15 0 0.3848006853 0.1 0 
0.3848006853 0.05 0 0.3848006853 0 0 0.42449171754 1.5 0 
0.42449171754 1.45 0 0.42449171754 1.4 0 0.42449171754 1.35 0 
0.42449171754 1.3 0 0.42449171754 1.25 0 0.42449171754 1.2 0 
0.42449171754 1.15 0 0.42449171754 1.1 0 0.42449171754 1.05 0 
0.42449171754 1 0 0.42449171754 0.95 0 0.42449171754 0.9 0 
0.42449171754 0.85 0 0.42449171754 0.8 0 0.42449171754 0.75 0 
0.42449171754 0.7 0 0.42449171754 0.65 0 0.42449171754 0.6 0 
0.42449171754 0.55 0 0.42449171754 0.5 0 0.42449171754 0.45 0 
0.42449171754 0.4 0 0.42449171754 0.35 0 0.42449171754 0.3 0 
0.42449171754 0.25 0 0.42449171754 0.2 0 0.42449171754 0.15 0 
0.42449171754 0.1 0 0.42449171754 0.05 0 0.42449171754 0 0 
0.46613315636 1.5 0 0.46613315636 1.45 0 0.46613315636 1.4 0 
0.46613315636 1.35 0 0.46613315636 1.3 0 0.46613315636 1.25 0 
0.46613315636 1.2 0 0.46613315636 1.15 0 0.46613315636 1.1 0 
0.46613315636 1.05 0 0.46613315636 1 0 0.46613315636 0.95 0 
0.46613315636 0.9 0 0.46613315636 0.85 0 0.46613315636 0.8 0 
0.46613315636 0.75 0 0.46613315636 0.7 0 0.46613315636 0.65 0 
0.46613315636 0.6 0 0.46613315636 0.55 0 0.46613315636 0.5 0 
0.46613315636 0.45 0 0.46613315636 0.4 0 0.46613315636 0.35 0 
0.46613315636 0.3 0 0.46613315636 0.25 0 0.46613315636 0.2 0 
0.46613315636 0.15 0 0.46613315636 0.1 0 0.46613315636 0.05 0 
0.46613315636 0 0 0.5098208442 1.5 0 0.5098208442 1.45 0 
0.5098208442 1.4 0 0.5098208442 1.35 0 0.5098208442 1.3 0 
0.5098208442 1.25 0 0.5098208442 1.2 0 0.5098208442 1.15 0 
0.5098208442 1.1 0 0.5098208442 1.05 0 0.5098208442 1 0 
0.5098208442 0.95 0 0.5098208442 0.9 0 0.5098208442 0.85 0 
0.5098208442 0.8 0 0.5098208442 0.75 0 0.5098208442 0.7 0 
0.5098208442 0.65 0 0.5098208442 0.6 0 0.5098208442 0.55 0 
0.5098208442 0.5 0 0.5098208442 0.45 0 0.5098208442 0.4 0 
0.5098208442 0.35 0 0.5098208442 0.3 0 0.5098208442 0.25 0 
0.5098208442 0.2 0 0.5098208442 0.15 0 0.5098208442 0.1 0 
0.5098208442 0.05 0 0.5098208442 0 0 0.55565533319 1.5 0 
0.55565533319 1.45 0 0.55565533319 1.4 0 0.55565533319 1.35 0 
0.55565533319 1.3 0 0.55565533319 1.25 0 0.55565533319 1.2 0 
0.55565533319 1.15 0 0.55565533319 1.1 0 0.55565533319 1.05 0 
0.55565533319 1 0 0.55565533319 0.95 0 0.55565533319 0.9 0 
0.55565533319 0.85 0 0.55565533319 0.8 0 0.55565533319 0.75 0 
0.55565533319 0.7 0 0.55565533319 0.65 0 0.55565533319 0.6 0 
0.55565533319 0.55 0 0.55565533319 0.5 0 0.55565533319 0.45 0 
0.55565533319 0.4 0 0.55565533319 0.35 0 0.55565533319 0.3 0 
0.55565533319 0.25 0 0.55565533319 0.2 0 0.55565533319 0.15 0 
0.55565533319 0.1 0 0.55565533319 0.05 0 0.55565533319 0 0 
0.60374211656 1.5 0 0.60374211656 1.45 0 0.60374211656 1.4 0 
0.60374211656 1.35 0 0.60374211656 1.3 0 0.60374211656 1.25 0 
0.60374211656 1.2 0 0.60374211656 1.15 0 0.60374211656 1.1 0 
0.60374211656 1.05 0 0.60374211656 1 0 0.60374211656 0.95 0 
0.60374211656 0.9 0 0.60374211656 0.85 0 0.60374211656 0.8 0 
0.60374211656 0.75 0 0.60374211656 0.7 0 0.60374211656 0.65 0 
0.60374211656 0.6 0 0.60374211656 0.55 0 0.60374211656 0.5 0 
0.60374211656 0.45 0 0.60374211656 0.4 0 0.60374211656 0.35 0 
0.60374211656 0.3 0 0.60374211656 0.25 0 0.60374211656 0.2 0 
0.60374211656 0.15 0 0.60374211656 0.1 0 0.60374211656 0.05 0 
0.60374211656 0 0 0.65419187143 1.5 0 0.65419187143 1.45 0 
0.65419187143 1.4 0 0.65419187143 1.35 0 0.65419187143 1.3 0 
0.65419187143 1.25 0 0.65419187143 1.2 0 0.65419187143 1.15 0 
[...]
CELL_DATA 4740
FIELD FieldData 7
B_Stress_n_p_m2 1 4740 float
0.298356 0.298939 0.298751 0.298786 0.298853 0.298917 0.298971 0.299015 0.299049 
0.299077 0.299098 0.299115 0.299128 0.299138 0.299145 0.299145 0.299138 0.299128 
0.299115 0.299098 0.299077 0.299049 0.299015 0.298971 0.298917 0.298853 0.298786 
0.298751 0.298939 0.298356 0.224172 0.225332 0.225554 0.225809 0.226014 0.226171 
0.22629 0.226379 0.226445 0.226494 0.226529 0.226555 0.226573 0.226585 0.226592 
0.226592 0.226585 0.226573 0.226555 0.226529 0.226494 0.226445 0.226379 0.22629 
0.226171 0.226014 0.225809 0.225554 0.225332 0.224172 0.209141 0.211586 0.212443 
0.213001 0.213389 0.213671 0.213877 0.214029 0.21414 0.214219 0.214274 0.214312 
0.214337 0.214351 0.214358 0.214358 0.214351 0.214337 0.214312 0.214274 0.214219 
0.21414 0.214029 0.213877 0.213671 0.213389 0.213001 0.212443 0.211586 0.209141 
0.212163 0.214626 0.215849 0.216664 0.217232 0.217644 0.217948 0.218172 0.218337 
0.218456 0.21854 0.218598 0.218636 0.218659 0.218669 0.218669 0.218659 0.218636 
0.218598 0.21854 0.218456 0.218337 0.218172 0.217948 0.217644 0.217232 0.216664 
0.215849 0.214626 0.212163 0.212616 0.21491 0.216341 0.217358 0.218091 0.218632 
0.219035 0.219336 0.219559 0.219722 0.219839 0.219921 0.219975 0.220009 0.220025 
0.220025 0.220009 0.219975 0.219921 0.219839 0.219722 0.219559 0.219336 0.219035 
0.218632 0.218091 0.217358 0.216341 0.21491 0.212616 0.211787 0.214082 0.215675 
0.216859 0.21774 0.218403 0.218905 0.219283 0.219566 0.219775 0.219927 0.220034 
0.220106 0.220151 0.220172 0.220172 0.220151 0.220106 0.220034 0.219927 0.219775 
0.219566 0.219283 0.218905 0.218403 0.21774 0.216859 0.215675 0.214082 0.211787 
0.211122 0.213455 0.215176 0.216497 0.217508 0.218283 0.218878 0.219332 0.219675 
0.219932 0.22012 0.220254 0.220345 0.220401 0.220428 0.220428 0.220401 0.220345 
0.220254 0.22012 0.219932 0.219675 0.219332 0.218878 0.218283 0.217508 0.216497 
0.215176 0.213455 0.211122 0.210627 0.21298 0.214796 0.216228 0.21735 0.218226 
0.218908 0.219435 0.219837 0.220141 0.220365 0.220526 0.220637 0.220706 0.220739 
0.220739 0.220706 0.220637 0.220526 0.220365 0.220141 0.219837 0.219435 0.218908 
0.218226 0.21735 0.216228 0.214796 0.21298 0.210627 0.210204 0.212567 0.214454 
0.215975 0.217192 0.218157 0.218918 0.219513 0.219972 0.220321 0.220582 0.22077 
0.220901 0.220982 0.221021 0.221021 0.220982 0.220901 0.22077 0.220582 0.220321 
0.219972 0.219513 0.218918 0.218157 0.217192 0.215975 0.214454 0.212567 0.210204 
0.20984 0.21221 0.21415 0.215743 0.217038 0.218081 0.218913 0.219569 0.220081 
0.220474 0.22077 0.220985 0.221135 0.221229 0.221275 0.221275 0.221229 0.221135 
0.220985 0.22077 0.220474 0.220081 0.219569 0.218913 0.218081 0.217038 0.215743 
0.21415 0.21221 0.20984 0.209531 0.211905 0.213886 0.215536 0.216896 0.218005 
0.218899 0.219612 0.220172 0.220606 0.220935 0.221176 0.221345 0.221451 0.221503 
0.221503 0.221451 0.221345 0.221176 0.220935 0.220606 0.220172 0.219612 0.218899 
0.218005 0.216896 0.215536 0.213886 0.211905 0.209531 0.20927 0.211647 0.21366 
0.215355 0.216768 0.217932 0.21888 0.219643 0.220247 0.220718 0.221077 0.221343 
0.221529 0.221648 0.221705 0.221705 0.221648 0.221529 0.221343 0.221077 0.220718 
0.220247 0.219643 0.21888 0.217932 0.216768 0.215355 0.21366 0.211647 0.20927 
0.209052 0.211431 0.213467 0.215198 0.216655 0.217865 0.218859 0.219664 0.220307 
0.220811 0.221199 0.221486 0.221689 0.221819 0.221881 0.221881 0.221819 0.221689 
0.221486 0.221199 0.220811 0.220307 0.219664 0.218859 0.217865 0.216655 0.215198 
0.213467 0.211431 0.209052 0.208872 0.211251 0.213305 0.215065 0.216556 0.217805 
0.218836 0.219678 0.220354 0.220888 0.2213 0.221608 0.221826 0.221964 0.222032 
0.222032 0.221964 0.221826 0.221608 0.2213 0.220888 0.220354 0.219678 0.218836 
0.217805 0.216556 0.215065 0.213305 0.211251 0.208872 0.208725 0.211104 0.213172 
0.214954 0.216473 0.217751 0.218814 0.219687 0.220391 0.22095 0.221383 0.221708 
0.221939 0.222086 0.222158 0.222158 0.222086 0.221939 0.221708 0.221383 0.22095 
0.220391 0.219687 0.218814 0.217751 0.216473 0.214954 0.213172 0.211104 0.208725 
0.208607 0.210986 0.213064 0.214863 0.216403 0.217706 0.218794 0.219691 0.220418 
0.220998 0.221449 0.221789 0.22203 0.222186 0.222261 0.222261 0.222186 0.22203 
0.221789 0.221449 0.220998 0.220418 0.219691 0.218794 0.217706 0.216403 0.214863 
0.213064 0.210986 0.208607 0.208515 0.210894 0.212979 0.21479 0.216346 0.217668 
0.218776 0.219692 0.220438 0.221034 0.2215 0.221851 0.222102 0.222263 0.222342 
0.222342 0.222263 0.222102 0.221851 0.2215 0.221034 0.220438 0.219692 0.218776 
0.217668 0.216346 0.21479 0.212979 0.210894 0.208515 0.208445 0.210823 0.212914 
0.214734 0.216302 0.217637 0.21876 0.21969 0.22045 0.22106 0.221536 0.221897 
0.222155 0.222321 0.222402 0.222402 0.222321 0.222155 0.221897 0.221536 0.22106 
0.22045 0.21969 0.21876 0.217637 0.216302 0.214734 0.212914 0.210823 0.208445 
0.208396 0.210773 0.212867 0.214693 0.216269 0.217614 0.218746 0.219687 0.220457 
0.221076 0.221561 0.221928 0.222191 0.222361 0.222444 0.222444 0.222361 0.222191 
0.221928 0.221561 0.221076 0.220457 0.219687 0.218746 0.217614 0.216269 0.214693 
0.212867 0.210773 0.208396 0.208364 0.21074 0.212835 0.214665 0.216246 0.217597 
0.218736 0.219683 0.220459 0.221084 0.221574 0.221945 0.222212 0.222383 0.222468 
0.222468 0.222383 0.222212 0.221945 0.221574 0.221084 0.220459 0.219683 0.218736 
0.217597 0.216246 0.214665 0.212835 0.21074 0.208364 0.208348 0.210723 0.212818 
0.214649 0.216233 0.217586 0.218727 0.219678 0.220457 0.221084 0.221576 0.22195 
0.222218 0.222391 0.222476 0.222476 0.222391 0.222218 0.22195 0.221576 0.221084 
0.220457 0.219678 0.218727 0.217586 0.216233 0.214649 0.212818 0.210723 0.208348 
0.208346 0.210718 0.212813 0.214644 0.216227 0.21758 0.218722 0.219672 0.220451 
0.221078 0.221571 0.221944 0.222212 0.222385 0.22247 0.22247 0.222385 0.222212 
0.221944 0.221571 0.221078 0.220451 0.219672 0.218722 0.21758 0.216227 0.214644 
0.212813 0.210718 0.208346 0.208355 0.210726 0.212819 0.214648 0.216229 0.217579 
0.218718 0.219666 0.220442 0.221066 0.221557 0.221929 0.222195 0.222367 0.222451 
0.222451 0.222367 0.222195 0.221929 0.221557 0.221066 0.220442 0.219666 0.218718 
0.217579 0.216229 0.214648 0.212819 0.210726 0.208355 0.208376 0.210745 0.212835 
0.21466 0.216237 0.217582 0.218716 0.219659 0.22043 0.22105 0.221536 0.221904 
0.222168 0.222338 0.222421 0.222421 0.222338 0.222168 0.221904 0.221536 0.22105 
0.22043 0.219659 0.218716 0.217582 0.216237 0.21466 0.212835 0.210745 0.208376 
0.208406 0.210773 0.21286 0.21468 0.216251 0.217589 0.218716 0.219651 0.220415 
0.221028 0.221508 0.221871 0.222131 0.222299 0.22238 0.22238 0.222299 0.222131 
0.221871 0.221508 0.221028 0.220415 0.219651 0.218716 0.217589 0.216251 0.21468 
0.21286 0.210773 0.208406 0.208445 0.21081 0.212892 0.214707 0.21627 0.2176 
0.218717 0.219643 0.220398 0.221002 0.221474 0.221831 0.222086 0.22225 0.22233 
0.22233 0.22225 0.222086 0.221831 0.221474 0.221002 0.220398 0.219643 0.218717 
0.2176 0.21627 0.214707 0.212892 0.21081 0.208445 0.208493 0.210855 0.212933 
0.21474 0.216294 0.217614 0.21872 0.219634 0.220378 0.220972 0.221435 0.221784 
0.222033 0.222192 0.22227 0.22227 0.222192 0.222033 0.221784 0.221435 0.220972 
0.220378 0.219634 0.21872 0.217614 0.216294 0.21474 0.212933 0.210855 0.208493 
0.208549 0.210908 0.21298 0.214779 0.216323 0.217631 0.218724 0.219625 0.220356 
0.220937 0.22139 0.22173 0.221971 0.222126 0.222202 0.222202 0.222126 0.221971 
0.22173 0.22139 0.220937 0.220356 0.219625 0.218724 0.217631 0.216323 0.214779 
0.21298 0.210908 0.208549 0.208614 0.21097 0.213035 0.214825 0.216356 0.21765 
0.218729 0.219615 0.220331 0.220899 0.221339 0.221669 0.221903 0.222052 0.222125 
0.222125 0.222052 0.221903 0.221669 0.221339 0.220899 0.220331 0.219615 0.218729 
0.21765 0.216356 0.214825 0.213035 0.21097 0.208614 0.208686 0.211039 0.213097 
0.214876 0.216395 0.217673 0.218735 0.219604 0.220304 0.220856 0.221283 0.221601 
0.221826 0.22197 0.222039 0.222039 0.22197 0.221826 0.221601 0.221283 0.220856 
0.220304 0.219604 0.218735 0.217673 0.216395 0.214876 0.213097 0.211039 0.208686 
0.208768 0.211117 0.213167 0.214934 0.216437 0.217699 0.218742 0.219592 0.220273 
0.220809 0.22122 0.221526 0.221742 0.221879 0.221945 0.221945 0.221879 0.221742 
0.221526 0.22122 0.220809 0.220273 0.219592 0.218742 0.217699 0.216437 0.214934 
0.213167 0.211117 0.208768 0.20886 0.211204 0.213245 0.214999 0.216485 0.217727 
0.21875 0.219579 0.22024 0.220757 0.221152 0.221444 0.221649 0.221778 0.221841 
0.221841 0.221778 0.221649 0.221444 0.221152 0.220757 0.22024 0.219579 0.21875 
0.217727 0.216485 0.214999 0.213245 0.211204 0.20886 0.208962 0.211302 0.213333 
0.215071 0.216539 0.217759 0.218759 0.219565 0.220203 0.2207 0.221076 0.221353 
0.221547 0.221668 0.221727 0.221727 0.221668 0.221547 0.221353 0.221076 0.2207 
0.220203 0.219565 0.218759 0.217759 0.216539 0.215071 0.213333 0.211302 0.208962 
0.209076 0.21141 0.21343 0.215151 0.216598 0.217794 0.218768 0.219548 0.220162 
0.220636 0.220993 0.221254 0.221435 0.221548 0.221603 0.221603 0.221548 0.221435 
0.221254 0.220993 0.220636 0.220162 0.219548 0.218768 0.217794 0.216598 0.215151 
0.21343 0.21141 0.209076 0.209203 0.211532 0.213538 0.215241 0.216663 0.217833 
0.218779 0.21953 0.220117 0.220566 0.220902 0.221145 0.221312 0.221416 0.221466 
0.221466 0.221416 0.221312 0.221145 0.220902 0.220566 0.220117 0.21953 0.218779 
0.217833 0.216663 0.215241 0.213538 0.211532 0.209203 0.209346 0.211668 0.213659 
0.21534 0.216736 0.217875 0.218789 0.21951 0.220067 0.220489 0.220801 0.221025 
0.221178 0.221272 0.221317 0.221317 0.221272 0.221178 0.221025 0.220801 0.220489 
0.220067 0.21951 0.218789 0.217875 0.216736 0.21534 0.213659 0.211668 0.209346 
0.209507 0.211821 0.213795 0.215452 0.216817 0.217922 0.2188 0.219486 0.22001 
0.220402 0.220689 0.220893 0.22103 0.221114 0.221154 0.221154 0.221114 0.22103 
0.220893 0.220689 0.220402 0.22001 0.219486 0.2188 0.217922 0.216817 0.215452 
0.213795 0.211821 0.209507 0.209689 0.211993 0.213948 0.215576 0.216906 0.217973 
0.218811 0.219458 0.219945 0.220306 0.220565 0.220747 0.220868 0.220941 0.220976 
0.220976 0.220941 0.220868 0.220747 0.220565 0.220306 0.219945 0.219458 0.218811 
0.217973 0.216906 0.215576 0.213948 0.211993 0.209689 0.209895 0.212189 0.214121 
0.215715 0.217006 0.218028 0.218822 0.219424 0.219872 0.220197 0.220428 0.220586 
0.220689 0.220751 0.22078 0.22078 0.220751 0.220689 0.220586 0.220428 0.220197 
0.219872 0.219424 0.218822 0.218028 0.217006 0.215715 0.214121 0.212189 0.209895 
0.210131 0.212411 0.214316 0.215872 0.217116 0.218088 0.21883 0.219384 0.219788 
0.220075 0.220274 0.220407 0.220493 0.220543 0.220566 0.220566 0.220543 0.220493 
0.220407 0.220274 0.220075 0.219788 0.219384 0.21883 0.218088 0.217116 0.215872 
0.214316 0.212411 0.210131 0.210401 0.212667 0.214538 0.216048 0.217237 0.218151 
0.218835 0.219335 0.21969 0.219936 0.220102 0.22021 0.220276 0.220314 0.220332 
0.220332 0.220314 0.220276 0.22021 0.220102 0.219936 0.21969 0.219335 0.218835 
0.218151 0.217237 0.216048 0.214538 0.212667 0.210401 0.210715 0.212961 0.214793 
0.216247 0.217371 0.218216 0.218834 0.219273 0.219576 0.219778 0.219909 0.21999 
0.220038 0.220064 0.220075 0.220075 0.220064 0.220038 0.21999 0.219909 0.219778 
0.219576 0.219273 0.218834 0.218216 0.217371 0.216247 0.214793 0.212961 0.210715 
0.211083 0.213304 0.215086 0.216472 0.217517 0.218282 0.218824 0.219195 0.219441 
0.219597 0.219691 0.219746 0.219776 0.21979 0.219796 0.219796 0.21979 0.219776 
0.219746 0.219691 0.219597 0.219441 0.219195 0.218824 0.218282 0.217517 0.216472 
0.215086 0.213304 0.211083 0.211518 0.213707 0.215424 0.216724 0.217674 0.218344 
0.218798 0.219095 0.219279 0.219387 0.219447 0.219476 0.219488 0.219491 0.219492 
0.219492 0.219491 0.219488 0.219476 0.219447 0.219387 0.219279 0.219095 0.218798 
0.218344 0.217674 0.216724 0.215424 0.213707 0.211518 0.212041 0.214186 0.215817 
0.217006 0.217837 0.218393 0.218749 0.218964 0.219085 0.219146 0.219171 0.219176 
0.219173 0.219168 0.219164 0.219164 0.219168 0.219173 0.219176 0.219171 0.219146 
0.219085 0.218964 0.218749 0.218393 0.217837 0.217006 0.215817 0.214186 0.212041 
0.212681 0.214761 0.216271 0.217312 0.217994 0.218417 0.218663 0.218793 0.218851 
0.218868 0.218864 0.21885 0.218835 0.218823 0.218816 0.218816 0.218823 0.218835 
0.21885 0.218864 0.218868 0.218851 0.218793 0.218663 0.218417 0.217994 0.217312 
0.216271 0.214761 0.212681 0.213493 0.215468 0.216795 0.217631 0.218125 0.218393 
0.218521 0.218568 0.21857 0.218551 0.218524 0.218497 0.218475 0.218459 0.218451 
0.218451 0.218459 0.218475 0.218497 0.218524 0.218551 0.21857 0.218568 0.218521 
0.218393 0.218125 0.217631 0.216795 0.215468 0.213493 0.214586 0.216351 0.217371 
0.217912 0.218169 0.218268 0.218285 0.218263 0.218226 0.218187 0.218151 0.218122 
0.2181 0.218085 0.218078 0.218078 0.218085 0.2181 0.218122 0.218151 0.218187 
0.218226 0.218263 0.218285 0.218268 0.218169 0.217912 0.217371 0.216351 0.214586 
0.215935 0.21721 0.217772 0.217987 0.218044 0.218035 0.218 0.21796 0.217924 
0.217893 0.217869 0.217851 0.217838 0.21783 0.217826 0.217826 0.21783 0.217838 
0.217851 0.217869 0.217893 0.217924 0.21796 0.218 0.218035 0.218044 0.217987 
0.217772 0.21721 0.215935 0.368936 0.368266 0.368562 0.368759 0.368864 0.368939 
0.368995 0.369039 0.369075 0.369103 0.369125 0.369143 0.369155 0.369163 0.369167 
0.369167 0.369163 0.369155 0.369143 0.369125 0.369103 0.369075 0.369039 0.368995 
0.368939 0.368864 0.368759 0.368562 0.368266 0.368936 0.41532 0.415559 0.415573 
0.415698 0.415781 0.415848 0.415901 0.415943 0.415978 0.416006 0.416028 0.416045 
0.416058 0.416066 0.41607 0.41607 0.416066 0.416058 0.416045 0.416028 0.416006 
0.415978 0.415943 0.415901 0.415848 0.415781 0.415698 0.415573 0.415559 0.41532 
0.366882 0.367198 0.367025 0.36705 0.367092 0.367134 0.367171 0.367202 0.367227 
0.367248 0.367265 0.367278 0.367288 0.367294 0.367297 0.367297 0.367294 0.367288 
0.367278 0.367265 0.367248 0.367227 0.367202 0.367171 0.367134 0.367092 0.36705 
0.367025 0.367198 0.366882 0.316342 0.316894 0.316716 0.316703 0.316719 0.316743 
0.316767 0.316788 0.316806 0.316821 0.316834 0.316844 0.316851 0.316856 0.316858 
0.316858 0.316856 0.316851 0.316844 0.316834 0.316821 0.316806 0.316788 0.316767 
0.316743 0.316719 0.316703 0.316716 0.316894 0.316342 0.280245 0.280916 0.280816 
0.280806 0.280814 0.280828 0.280843 0.280859 0.280872 0.280884 0.280893 0.280901 
0.280907 0.28091 0.280912 0.280912 0.28091 0.280907 0.280901 0.280893 0.280884 
0.280872 0.280859 0.280843 0.280828 0.280814 0.280806 0.280816 0.280916 0.280245 
0.252502 0.253362 0.253343 0.253345 0.253351 0.25336 0.253371 0.253382 0.253393 
0.253402 0.253409 0.253415 0.25342 0.253423 0.253424 0.253424 0.253423 0.25342 
0.253415 0.253409 0.253402 0.253393 0.253382 0.253371 0.25336 0.253351 0.253345 
0.253343 0.253362 0.252502 0.220528 0.221769 0.221794 0.221793 0.221797 0.221804 
0.221813 0.221823 0.221831 0.221838 0.221844 0.221849 0.221852 0.221854 0.221855 
0.221855 0.221854 0.221852 0.221849 0.221844 0.221838 0.221831 0.221823 0.221813 
0.221804 0.221797 0.221793 0.221794 0.221769 0.220528 0.18236 0.1834 0.183361 
0.183354 0.183362 0.183374 0.183387 0.183399 0.183409 0.183418 0.183425 0.18343 
0.183434 0.183436 0.183438 0.183438 0.183436 0.183434 0.18343 0.183425 0.183418 
0.183409 0.183399 0.183387 0.183374 0.183362 0.183354 0.183361 0.1834 0.18236 
0.700217 0.711213 0.720993 0.729647 0.737263 0.743918 0.749689 0.75464 0.758834 
0.762325 0.765159 0.767378 0.769013 0.770089 0.770623 0.770623 0.770089 0.769013 
0.767378 0.765159 0.762325 0.758834 0.75464 0.749689 0.743918 0.737263 0.729647 
0.720993 0.711213 0.700217 0.699296 0.710278 0.720038 0.728668 0.736255 0.74288 
0.748618 0.753537 0.757699 0.761159 0.763966 0.766161 0.767778 0.768841 0.769369 
0.769369 0.768841 0.767778 0.766161 0.763966 0.761159 0.757699 0.753537 0.748618 
0.74288 0.736255 0.728668 0.720038 0.710278 0.699296 0.699004 0.709977 0.719722 
0.728333 0.735898 0.742499 0.74821 0.753102 0.757238 0.760673 0.763457 0.765633 
0.767235 0.768288 0.76881 0.76881 0.768288 0.767235 0.765633 0.763457 0.760673 
0.757238 0.753102 0.74821 0.742499 0.735898 0.728333 0.719722 0.709977 0.699004 
0.69859 0.709548 0.719274 0.727862 0.735401 0.741972 0.747652 0.752512 0.756617 
0.760022 0.76278 0.764934 0.766517 0.767558 0.768074 0.768074 0.767558 0.766517 
0.764934 0.76278 0.760022 0.756617 0.752512 0.747652 0.741972 0.735401 0.727862 
0.719274 0.709548 0.69859 0.698233 0.709177 0.718885 0.727449 0.734961 0.741502 
0.74715 0.751977 0.756049 0.759424 0.762155 0.764284 0.765849 0.766877 0.767387 
0.767387 0.766877 0.765849 0.764284 0.762155 0.759424 0.756049 0.751977 0.74715 
0.741502 0.734961 0.727449 0.718885 0.709177 0.698233 0.697887 0.708818 0.718505 
0.727046 0.734529 0.741038 0.746653 0.751446 0.755483 0.758826 0.761528 0.763633 
0.765178 0.766193 0.766695 0.766695 0.766193 0.765178 0.763633 0.761528 0.758826 
0.755483 0.751446 0.746653 0.741038 0.734529 0.727046 0.718505 0.708818 0.697887 
0.697563 0.708479 0.718147 0.726663 0.734116 0.740593 0.746173 0.750929 0.754932 
0.758241 0.760912 0.762991 0.764516 0.765517 0.766012 0.766012 0.765517 0.764516 
0.762991 0.760912 0.758241 0.754932 0.750929 0.746173 0.740593 0.734116 0.726663 
0.718147 0.708479 0.697563 0.697256 0.708158 0.717806 0.726296 0.73372 0.740162 
0.745706 0.750425 0.754391 0.757665 0.760305 0.762357 0.763861 0.764847 0.765334 
0.765334 0.764847 0.763861 0.762357 0.760305 0.757665 0.754391 0.750425 0.745706 
0.740162 0.73372 0.726296 0.717806 0.708158 0.697256 0.696968 0.707856 0.717483 
0.725947 0.733339 0.739747 0.745253 0.749934 0.753861 0.757099 0.759706 0.76173 
0.763212 0.764182 0.764662 0.764662 0.764182 0.763212 0.76173 0.759706 0.757099 
0.753861 0.749934 0.745253 0.739747 0.733339 0.725947 0.717483 0.707856 0.696968 
0.696697 0.707571 0.717178 0.725615 0.732975 0.739346 0.744813 0.749454 0.753341 
0.756542 0.759114 0.761109 0.762569 0.763523 0.763995 0.763995 0.763523 0.762569 
0.761109 0.759114 0.756542 0.753341 0.749454 0.744813 0.739346 0.732975 0.725615 
0.717178 0.707571 0.696697 0.696445 0.707305 0.71689 0.7253 0.732626 0.73896 
0.744386 0.748985 0.752832 0.755993 0.758531 0.760496 0.761931 0.76287 0.763333 
0.763333 0.76287 0.761931 0.760496 0.758531 0.755993 0.752832 0.748985 0.744386 
0.73896 0.732626 0.7253 0.71689 0.707305 0.696445 0.69621 0.707055 0.71662 
0.725 0.732293 0.738588 0.743973 0.748529 0.752332 0.755454 0.757955 0.759888 
0.761299 0.762221 0.762676 0.762676 0.762221 0.761299 0.759888 0.757955 0.755454 
0.752332 0.748529 0.743973 0.738588 0.732293 0.725 0.71662 0.707055 0.69621 
0.695992 0.706823 0.716366 0.724717 0.731974 0.73823 0.743571 0.748083 0.751842 
0.754922 0.757385 0.759287 0.760672 0.761576 0.762022 0.762022 0.761576 0.760672 
0.759287 0.757385 0.754922 0.751842 0.748083 0.743571 0.73823 0.731974 0.724717 
0.716366 0.706823 0.695992 0.695791 0.706609 0.716128 0.72445 0.731671 0.737885 
0.743182 0.747647 0.751362 0.754398 0.756822 0.758691 0.76005 0.760936 0.761373 
0.761373 0.760936 0.76005 0.758691 0.756822 0.754398 0.751362 0.747647 0.743182 
0.737885 0.731671 0.72445 0.716128 0.706609 0.695791 0.695607 0.70641 0.715907 
0.724198 0.731382 0.737553 0.742804 0.747222 0.75089 0.753882 0.756266 0.7581 
0.759433 0.7603 0.760728 0.760728 0.7603 0.759433 0.7581 0.756266 0.753882 
0.75089 0.747222 0.742804 0.737553 0.731382 0.724198 0.715907 0.70641 0.695607 
0.69544 0.706229 0.715702 0.723962 0.731107 0.737234 0.742438 0.746807 0.750427 
0.753373 0.755716 0.757515 0.75882 0.759668 0.760086 0.760086 0.759668 0.75882 
0.757515 0.755716 0.753373 0.750427 0.746807 0.742438 0.737234 0.731107 0.723962 
0.715702 0.706229 0.69544 0.695289 0.706063 0.715513 0.72374 0.730845 0.736928 
0.742083 0.746402 0.749972 0.752871 0.755171 0.756934 0.75821 0.759039 0.759447 
0.759447 0.759039 0.75821 0.756934 0.755171 0.752871 0.749972 0.746402 0.742083 