# vtk DataFile Version 5.1
vtk output
ASCII
DATASET UNSTRUCTURED_GRID
POINTS 693 double
0.1016 1.5 0.1439999938 0.1016 1.3125 0.11299386621 0.1016 1.125 0.044603906572 
0.1016 0.9375 4.3171767174e-05 0.1016 0.75 -2.7692611041e-19 0.1016 0.5625 0.028883494437 
0.1016 0.375 0.09996420145 0.1016 0.1875 0.19062872231 0.1016 0 0.2658187151 
5.08 1.5 0.28700000048 5.08 1.3125 0.28700006008 5.08 1.125 0.28700017929 
5.08 0.9375 0.28700008988 5.08 0.75 0.28700000048 5.08 0.5625 0.28700008988 
5.08 0.375 0.28700017929 5.08 0.1875 0.28700011969 5.08 0 0.28700000048 
0.300736 1.5 0.19399508834 0.300736 1.3125 0.15319642425 0.300736 1.125 0.068133160472 
0.300736 0.9375 0.046390365809 0.300736 0.75 0.013365014456 0.300736 0.5625 0.026417372748 
0.300736 0.375 0.095226302743 0.300736 0.1875 0.19705471396 0.300736 0 0.28301364183 
0.499872 1.5 0.28093001246 0.499872 1.3125 0.20878048241 0.499872 1.125 0.12747275829 
0.499872 0.9375 0.076707467437 0.499872 0.75 0.067907102406 0.499872 0.5625 0.11992693692 
0.499872 0.375 0.18823242188 0.499872 0.1875 0.2669030726 0.499872 0 0.28098458052 
0.699008 1.5 0.28123101592 0.699008 1.3125 0.27719938755 0.699008 1.125 0.23602952063 
0.699008 0.9375 0.19533678889 0.699008 0.75 0.20024216175 0.699008 0.5625 0.20777213573 
0.699008 0.375 0.24031040072 0.699008 0.1875 0.28071248531 0.699008 0 0.2808482945 
0.898144 1.5 0.28474295139 0.898144 1.3125 0.28480017185 0.898144 1.125 0.28481325507 
0.898144 0.9375 0.28535923362 0.898144 0.75 0.28542524576 0.898144 0.5625 0.28530728817 
0.898144 0.375 0.28527057171 0.898144 0.1875 0.28495153785 0.898144 0 0.28482493758 
1.09728 1.5 0.28700000048 1.09728 1.3125 0.28699988127 1.09728 1.125 0.28700000048 
1.09728 0.9375 0.28700000048 1.09728 0.75 0.28700000048 1.09728 0.5625 0.28700000048 
1.09728 0.375 0.28700000048 1.09728 0.1875 0.28700003028 1.09728 0 0.28700000048 
1.296416 1.5 0.28700000048 1.296416 1.3125 0.28699988127 1.296416 1.125 0.28700000048 
1.296416 0.9375 0.28700000048 1.296416 0.75 0.28700000048 1.296416 0.5625 0.28700000048 
1.296416 0.375 0.28700000048 1.296416 0.1875 0.28700003028 1.296416 0 0.28700000048 
1.495552 1.5 0.28700000048 1.495552 1.3125 0.28699991107 1.495552 1.125 0.28700000048 
1.495552 0.9375 0.28700000048 1.495552 0.75 0.28700000048 1.495552 0.5625 0.28700000048 
1.495552 0.375 0.28700000048 1.495552 0.1875 0.28700000048 1.495552 0 0.28700000048 
1.694688 1.5 0.28700000048 1.694688 1.3125 0.28699994087 1.694688 1.125 0.28700000048 
1.694688 0.9375 0.28700000048 1.694688 0.75 0.28700000048 1.694688 0.5625 0.28700000048 
1.694688 0.375 0.28700000048 1.694688 0.1875 0.28700000048 1.694688 0 0.28700000048 
1.893824 1.5 0.28700000048 1.893824 1.3125 0.28699994087 1.893824 1.125 0.28700000048 
1.893824 0.9375 0.28700000048 1.893824 0.75 0.28700000048 1.893824 0.5625 0.28700000048 
1.893824 0.375 0.28700000048 1.893824 0.1875 0.28700000048 1.893824 0 0.28700000048 
2.09296 1.5 0.28700000048 2.09296 1.3125 0.28699994087 2.09296 1.125 0.28700000048 
2.09296 0.9375 0.28700000048 2.09296 0.75 0.28700000048 2.09296 0.5625 0.28700000048 
2.09296 0.375 0.28700000048 2.09296 0.1875 0.28700000048 2.09296 0 0.28700000048 
2.292096 1.5 0.28700000048 2.292096 1.3125 0.28699994087 2.292096 1.125 0.28700000048 
2.292096 0.9375 0.28700000048 2.292096 0.75 0.28700000048 2.292096 0.5625 0.28700000048 
2.292096 0.375 0.28700000048 2.292096 0.1875 0.28700000048 2.292096 0 0.28700000048 
2.491232 1.5 0.28700000048 2.491232 1.3125 0.28699994087 2.491232 1.125 0.28700000048 
2.491232 0.9375 0.28700000048 2.491232 0.75 0.28700000048 2.491232 0.5625 0.28700000048 
2.491232 0.375 0.28700000048 2.491232 0.1875 0.28700000048 2.491232 0 0.28700000048 
2.690368 1.5 0.28700000048 2.690368 1.3125 0.28699994087 2.690368 1.125 0.28700000048 
2.690368 0.9375 0.28700000048 2.690368 0.75 0.28700000048 2.690368 0.5625 0.28700000048 
2.690368 0.375 0.28700000048 2.690368 0.1875 0.28700000048 2.690368 0 0.28700000048 
2.889504 1.5 0.28700000048 2.889504 1.3125 0.28699994087 2.889504 1.125 0.28700000048 
2.889504 0.9375 0.28700000048 2.889504 0.75 0.28700000048 2.889504 0.5625 0.28700000048 
2.889504 0.375 0.28700000048 2.889504 0.1875 0.28700000048 2.889504 0 0.28700000048 
3.08864 1.5 0.28700000048 3.08864 1.3125 0.28699997067 3.08864 1.125 0.28700000048 
3.08864 0.9375 0.28700000048 3.08864 0.75 0.28700000048 3.08864 0.5625 0.28700000048 
3.08864 0.375 0.28700000048 3.08864 0.1875 0.28700000048 3.08864 0 0.28700000048 
3.287776 1.5 0.28700000048 3.287776 1.3125 0.28699997067 3.287776 1.125 0.28700000048 
3.287776 0.9375 0.28700000048 3.287776 0.75 0.28700000048 3.287776 0.5625 0.28700000048 
3.287776 0.375 0.28700000048 3.287776 0.1875 0.28700000048 3.287776 0 0.28700000048 
3.486912 1.5 0.28700000048 3.486912 1.3125 0.28699997067 3.486912 1.125 0.28700000048 
3.486912 0.9375 0.28700000048 3.486912 0.75 0.28700000048 3.486912 0.5625 0.28700000048 
3.486912 0.375 0.28700000048 3.486912 0.1875 0.28700000048 3.486912 0 0.28700000048 
3.686048 1.5 0.28700000048 3.686048 1.3125 0.28699997067 3.686048 1.125 0.28700000048 
3.686048 0.9375 0.28700000048 3.686048 0.75 0.28700000048 3.686048 0.5625 0.28700000048 
3.686048 0.375 0.28700000048 3.686048 0.1875 0.28700000048 3.686048 0 0.28700000048 
3.885184 1.5 0.28700000048 3.885184 1.3125 0.28699997067 3.885184 1.125 0.28700000048 
3.885184 0.9375 0.28700000048 3.885184 0.75 0.28700000048 3.885184 0.5625 0.28700000048 
3.885184 0.375 0.28700000048 3.885184 0.1875 0.28700000048 3.885184 0 0.28700000048 
4.08432 1.5 0.28700000048 4.08432 1.3125 0.28699997067 4.08432 1.125 0.28700000048 
4.08432 0.9375 0.28700000048 4.08432 0.75 0.28700000048 4.08432 0.5625 0.28700000048 
4.08432 0.375 0.28700000048 4.08432 0.1875 0.28700000048 4.08432 0 0.28700000048 
4.283456 1.5 0.28700000048 4.283456 1.3125 0.28700000048 4.283456 1.125 0.28700000048 
4.283456 0.9375 0.28700000048 4.283456 0.75 0.28700000048 4.283456 0.5625 0.28700000048 
4.283456 0.375 0.28700000048 4.283456 0.1875 0.28700000048 4.283456 0 0.28700000048 
4.482592 1.5 0.28700000048 4.482592 1.3125 0.28700000048 4.482592 1.125 0.28700000048 
4.482592 0.9375 0.28700000048 4.482592 0.75 0.28700000048 4.482592 0.5625 0.28700000048 
4.482592 0.375 0.28700000048 4.482592 0.1875 0.28700000048 4.482592 0 0.28700000048 
4.681728 1.5 0.28700000048 4.681728 1.3125 0.28700000048 4.681728 1.125 0.28700000048 
4.681728 0.9375 0.28700000048 4.681728 0.75 0.28700000048 4.681728 0.5625 0.28700000048 
4.681728 0.375 0.28700000048 4.681728 0.1875 0.28700000048 4.681728 0 0.28700000048 
4.880864 1.5 0.28700000048 4.880864 1.3125 0.28700000048 4.880864 1.125 0.28700000048 
4.880864 0.9375 0.28700000048 4.880864 0.75 0.28700000048 4.880864 0.5625 0.28700000048 
4.880864 0.375 0.28700000048 4.880864 0.1875 0.28700000048 4.880864 0 0.28700000048 
-0.1 1.5 0.12513391674 -0.1 1.3125 0.097646377981 -0.1 1.125 0.0069025200792 
-0.1 0.9375 -6.4758249209e-05 -0.1 0.75 -0.00020060798852 -0.1 0.5625 0.15258419514 
-0.1 0.375 0.25206366181 -0.1 0.1875 0.28200760484 -0.1 0 0.27514004707 
-10.16 1.5 3.4180752324e-22 -10.16 1.3125 -6.3734766798e-08 -10.16 1.125 -7.2232289483e-08 
-10.16 0.9375 -3.0702832277e-08 -10.16 0.75 -6.267088501e-24 -10.16 0.5625 -2.754597439e-08 
-10.16 0.375 -5.6747229138e-08 -10.16 0.1875 -3.8738217967e-08 -10.16 0 0 
-9.9588 1.5 -3.0990227743e-22 -9.9588 1.3125 -1.2778509806e-08 -9.9588 1.125 -1.5967345501e-10 
-9.9588 0.9375 3.1973826364e-11 -9.9588 0.75 1.1976343282e-25 -9.9588 0.5625 1.7098544802e-12 
-9.9588 0.375 -5.5833511425e-11 -9.9588 0.1875 -4.875580828e-09 -9.9588 0 0 
-9.7576 1.5 2.6216733218e-22 -9.7576 1.3125 -1.0496587599e-08 -9.7576 1.125 -1.0783942489e-10 
-9.7576 0.9375 -1.6308166623e-11 -9.7576 0.75 -5.6787877896e-27 -9.7576 0.5625 2.3537727323e-11 
-9.7576 0.375 -3.250175129e-11 -9.7576 0.1875 -4.2115280152e-09 -9.7576 0 0 
-9.5564 1.5 1.2111004087e-22 -9.5564 1.3125 -9.7926386999e-09 -9.5564 1.125 -1.4961888672e-10 
-9.5564 0.9375 -1.1166298788e-11 -9.5564 0.75 -1.499264663e-26 -9.5564 0.5625 2.6266211428e-11 
-9.5564 0.375 -3.3719183695e-11 -9.5564 0.1875 -4.1252694594e-09 -9.5564 0 0 
-9.3552 1.5 2.3459410657e-22 -9.3552 1.3125 -9.484319996e-09 -9.3552 1.125 -8.4908698128e-11 
-9.3552 0.9375 1.0948028942e-11 -9.3552 0.75 6.2361673229e-27 -9.3552 0.5625 -2.1937007766e-11 
-9.3552 0.375 -7.2720038324e-11 -9.3552 0.1875 -4.274061105e-09 -9.3552 0 0 
-9.154 1.5 1.1643735898e-22 -9.154 1.3125 -9.4488497027e-09 -9.154 1.125 -5.2009337809e-11 
-9.154 0.9375 -1.5069247933e-11 -9.154 0.75 3.9905021929e-27 -9.154 0.5625 -1.1932566046e-11 
-9.154 0.375 -6.0961055648e-11 -9.154 0.1875 -4.5202117605e-09 -9.154 0 0 
-8.9528 1.5 2.3455815975e-22 -8.9528 1.3125 -9.5352516993e-09 -8.9528 1.125 -1.0514674548e-10 
-8.9528 0.9375 -4.1365820491e-11 -8.9528 0.75 6.2361673229e-27 -8.9528 0.5625 9.8953067962e-12 
-8.9528 0.375 -7.1075133626e-12 -8.9528 0.1875 -4.8315458301e-09 -8.9528 0 0 
-8.7516 1.5 2.3878534349e-22 -8.7516 1.3125 -9.756015551e-09 -8.7516 1.125 -1.0096450065e-10 
-8.7516 0.9375 7.1668226909e-12 -8.7516 0.75 -1.2601559923e-27 -8.7516 0.5625 9.2651060435e-12 
-8.7516 0.375 -5.8583478346e-11 -8.7516 0.1875 -5.2060569189e-09 -8.7516 0 -3.2389177264e-23 
-8.5504 1.5 1.225150968e-22 -8.5504 1.3125 -9.9733270531e-09 -8.5504 1.125 -8.6068839555e-11 
-8.5504 0.9375 1.2551071293e-12 -8.5504 0.75 -1.2601559923e-27 -8.5504 0.5625 5.171804391e-12 
-8.5504 0.375 -5.0691645326e-11 -8.5504 0.1875 -5.6198770082e-09 -8.5504 0 -3.5103161701e-23 
-8.3492 1.5 -2.5300331806e-22 -8.3492 1.3125 -1.0290611918e-08 -8.3492 1.125 -8.74223402e-11 
-8.3492 0.9375 8.0035977845e-13 -8.3492 0.75 -9.8470055532e-27 -8.3492 0.5625 2.4868637965e-12 
-8.3492 0.375 -4.0343457741e-11 -8.3492 0.1875 -6.184698087e-09 -8.3492 0 0 
-8.148 1.5 1.3131095901e-22 -8.148 1.3125 -1.0700744291e-08 -8.148 1.125 -1.0285510638e-10 
-8.148 0.9375 3.4451663744e-11 -8.148 0.75 3.7885538011e-27 -8.148 0.5625 1.4054960537e-12 
[...]
CELL_DATA 608
FIELD FieldData 7
B_Stress_n_p_m2 1 608 float
0.612728 0.573957 0.549148 0.517342 0.494486 0.456508 0.472071 0.546591 0.225461 
0.190044 0.15696 0.15141 0.147625 0.151997 0.169381 0.183924 0.503476 0.466646 
0.419017 0.385269 0.375036 0.3846 0.398031 0.415444 0.498586 0.524044 0.534403 
0.52022 0.513138 0.489052 0.460379 0.450936 0.524839 0.540676 0.564315 0.575825 
0.569556 0.553917 0.523239 0.49932 0.527119 0.540895 0.551631 0.553985 0.549573 
0.539834 0.523138 0.508009 0.527945 0.540968 0.548974 0.551087 0.548371 0.541882 
0.530091 0.516061 0.527649 0.540126 0.546238 0.547642 0.545807 0.541295 0.532606 
0.519585 0.527321 0.539439 0.544751 0.546006 0.544804 0.541484 0.53447 0.522007 
0.527027 0.538829 0.543659 0.54483 0.54403 0.541474 0.53551 0.523485 0.526872 
0.538369 0.542862 0.543975 0.543445 0.541409 0.536164 0.52452 0.52685 0.538026 
0.542216 0.543258 0.542907 0.54125 0.536561 0.525287 0.52695 0.537776 0.54166 
0.54261 0.542377 0.541019 0.536804 0.525913 0.527155 0.537591 0.54115 0.54199 
0.541836 0.540726 0.536947 0.526468 0.52745 0.537451 0.540662 0.541376 0.541275 
0.540383 0.537025 0.526996 0.527828 0.537337 0.540179 0.540759 0.540692 0.539995 
0.537057 0.527529 0.528283 0.537235 0.539689 0.540131 0.540087 0.539569 0.537052 
0.528087 0.528814 0.537134 0.539184 0.53949 0.539462 0.539106 0.537015 0.528688 
0.529424 0.53702 0.538658 0.538836 0.538818 0.538609 0.536944 0.529343 0.530116 
0.536882 0.538109 0.53817 0.538158 0.538078 0.536834 0.530066 0.530894 0.536705 
0.537534 0.537497 0.53749 0.537516 0.536677 0.530864 0.53176 0.536476 0.536937 
0.536828 0.536824 0.536927 0.53646 0.531743 0.532711 0.536167 0.536313 0.536167 
0.536165 0.536308 0.536159 0.532702 0.533705 0.535757 0.535679 0.535549 0.535549 
0.535678 0.535753 0.533702 0.534514 0.535361 0.535238 0.535166 0.535166 0.535237 
0.53536 0.534513 0.0020721 0.00222837 0.00239174 0.00241105 0.00229444 0.00197034 0.00169868 
0.00156218 0.0999779 0.107255 0.118263 0.131579 0.145534 0.157884 0.166397 0.168751 
0.0988411 0.106283 0.117539 0.13127 0.145734 0.158661 0.167644 0.17033 0.09814 
0.10566 0.117061 0.131042 0.145842 0.159167 0.168501 0.171415 0.0972592 0.104868 
0.116458 0.13075 0.145973 0.159791 0.169568 0.172748 0.096399 0.104086 0.115852 
0.130441 0.146089 0.160414 0.17066 0.17412 0.0955044 0.103268 0.115211 0.130104 
0.146195 0.161063 0.171819 0.175583 0.0945977 0.102434 0.114548 0.129741 0.146288 
0.161726 0.173029 0.177122 0.0936765 0.101582 0.113861 0.12935 0.146362 0.162401 
0.174293 0.178742 0.0927448 0.100717 0.113154 0.12893 0.146415 0.163085 0.175609 
0.180446 0.0918042 0.0998414 0.112426 0.128479 0.146442 0.163775 0.17698 0.182239 
0.0908563 0.0989571 0.111679 0.127995 0.146437 0.164467 0.178406 0.184126 0.0899026 
0.0980671 0.110917 0.127476 0.146396 0.165157 0.179888 0.186115 0.0889437 0.0971746 
0.11014 0.126919 0.146312 0.16584 0.181429 0.188211 0.0879803 0.096283 0.109353 
0.126322 0.146178 0.166509 0.183031 0.190425 0.0870124 0.0953966 0.108559 0.125684 
0.145984 0.167158 0.184695 0.192767 0.0860394 0.0945201 0.107764 0.125002 0.145721 
0.167777 0.186424 0.195246 0.0850598 0.0936596 0.106977 0.124277 0.145379 0.168355 
0.18822 0.197875 0.0840714 0.0928221 0.106205 0.123507 0.144942 0.168879 0.190084 
0.200669 0.0830703 0.0920168 0.10546 0.122693 0.144397 0.16933 0.192017 0.203641 
0.0820515 0.0912549 0.104758 0.121838 0.143726 0.169688 0.194022 0.206808 0.0810082 
0.090551 0.104116 0.120947 0.142909 0.169924 0.196097 0.210187 0.0799313 0.0899243 
0.103557 0.120028 0.141922 0.170004 0.198243 0.213796 0.0788102 0.0894007 0.103107 
0.119091 0.140738 0.169881 0.200457 0.217652 0.077633 0.0890159 0.102799 0.118151 
0.139327 0.169496 0.202736 0.221775 0.0763876 0.0888189 0.102669 0.117227 0.137649 
0.168769 0.205069 0.226182 0.0750683 0.0888809 0.102763 0.116343 0.135665 0.167599 
0.207443 0.230896 0.0736908 0.0893061 0.103131 0.115526 0.13332 0.165848 0.209826 
0.235944 0.0722584 0.0901742 0.103769 0.114724 0.130497 0.163284 0.21211 0.241333 
0.0709551 0.0917475 0.104821 0.114078 0.127224 0.159794 0.214272 0.247237 0.0705877 
0.0947149 0.106839 0.113956 0.123779 0.155366 0.216407 0.254418 0.0688317 0.095406 
0.10567 0.110206 0.116615 0.146713 0.215677 0.262248 0.072442 0.100066 0.107595 
0.108712 0.110701 0.137011 0.210481 0.267089 0.121915 0.158723 0.171893 0.163302 
0.148585 0.161412 0.232469 0.2947 0.355792 0.440728 0.516049 0.492599 0.394253 
0.318182 0.34909 0.407754 0.986143 1.0504 1.12418 1.11773 0.992365 0.74526 
0.617383 0.643856 1.5177 1.42371 1.35164 1.35739 1.40815 1.31415 1.02397 
0.951289 1.40962 1.3048 1.23525 1.24376 1.37064 1.57616 1.40297 1.2506 
1.16519 1.11175 1.10014 1.12503 1.22576 1.46936 1.55401 1.43554 0.968653 
0.975041 0.998445 1.05092 1.14349 1.29209 1.46368 1.37961 0.782808 0.828971 
0.858744 0.91692 1.01417 1.17911 1.29332 1.21246 0.698219 0.700915 0.717858 
0.757622 0.835417 1.00451 1.16739 1.09194 0.61246 0.599301 0.600275 0.614635 
0.684534 0.814503 0.991859 0.962691 0.491842 0.489016 0.483627 0.497485 0.53769 
0.634715 0.77343 0.784487 0.396276 0.393869 0.381747 0.390981 0.42048 0.493001 
0.554199 0.602736 0.327485 0.325392 0.312791 0.316869 0.342144 0.406648 0.444288 
0.472604 0.277196 0.274993 0.265648 0.276062 0.299181 0.355064 0.413454 0.41846 
0.236648 0.234269 0.228146 0.23719 0.264251 0.326039 0.371483 0.388918 0.193408 
0.19215 0.18805 0.196927 0.216254 0.277955 0.331941 0.366548 0.19039 0.185891 
0.182176 0.203027 0.234698 0.305296 0.364665 0.395035 0.498704 0.485432 0.451529 
0.468785 0.486704 0.563864 0.637219 0.658325 
Froude 1 608 float
0.162572 0.151308 0.143987 0.136732 0.134161 0.132584 0.142659 0.164593 0.103176 
0.0903917 0.0785178 0.0763885 0.0758573 0.0789947 0.0879069 0.0961444 0.165202 0.150954 
0.13627 0.128493 0.126714 0.132349 0.140771 0.149204 0.165145 0.168967 0.167313 
0.162031 0.161263 0.157953 0.155526 0.156975 0.169923 0.172474 0.176215 0.17805 
0.177075 0.174602 0.169672 0.165719 0.170486 0.1727 0.174413 0.174786 0.174083 
0.172525 0.169822 0.167345 0.170612 0.172704 0.173979 0.174312 0.173878 0.172841 
0.170943 0.168665 0.170556 0.172561 0.173535 0.173757 0.173463 0.172742 0.171346 
0.169238 0.170495 0.172443 0.17329 0.173489 0.173296 0.172766 0.171641 0.169627 
0.17044 0.172338 0.173108 0.173294 0.173166 0.172757 0.171802 0.169862 0.170408 
0.172257 0.172974 0.17315 0.173065 0.17274 0.171901 0.170024 0.170397 0.172194 
0.172863 0.173029 0.172973 0.172708 0.171958 0.170142 0.170405 0.172147 0.172767 
0.172919 0.172881 0.172664 0.17199 0.170236 0.170431 0.17211 0.172679 0.172813 
0.172788 0.172611 0.172006 0.170319 0.170472 0.17208 0.172594 0.172708 0.172691 
0.172549 0.172012 0.170398 0.170526 0.172055 0.17251 0.172602 0.172591 0.17248 
0.17201 0.170477 0.170592 0.172032 0.172424 0.172495 0.172488 0.172405 0.172002 
0.170561 0.170671 0.172008 0.172336 0.172385 0.172381 0.172324 0.171989 0.170651 
0.170763 0.171983 0.172245 0.172274 0.172271 0.172237 0.171971 0.170749 0.170867 
0.171954 0.17215 0.17216 0.172158 0.172145 0.171946 0.170859 0.170986 0.171919 
0.172051 0.172046 0.172044 0.172048 0.171914 0.170981 0.171118 0.171875 0.171949 
0.171931 0.171931 0.171947 0.171872 0.171115 0.171264 0.171818 0.171842 0.171819 
0.171818 0.171841 0.171817 0.171262 0.171416 0.171745 0.171734 0.171713 0.171713 
0.171733 0.171745 0.171416 0.171538 0.171675 0.171657 0.171645 0.171645 0.171656 
0.171675 0.171538 0.00935629 0.00940037 0.00935967 0.00937537 0.009217 0.00915411 0.00914714 
0.00922443 0.0609882 0.0631688 0.0663314 0.0699663 0.0735833 0.0766419 0.0786811 0.0792357 
0.0606406 0.062882 0.066128 0.0698841 0.0736334 0.07683 0.0789748 0.079605 0.0604249 
0.0626971 0.0659933 0.0698229 0.0736606 0.0769521 0.0791762 0.0798579 0.060153 0.0624616 
0.0658229 0.0697449 0.0736934 0.0771025 0.0794264 0.0801677 0.0598862 0.0622281 0.0656512 
0.0696624 0.0737224 0.0772525 0.0796815 0.0804852 0.0596076 0.0619829 0.0654692 0.0695721 
0.0737491 0.0774084 0.0799513 0.0808224 0.0593238 0.061732 0.0652803 0.0694748 0.0737721 
0.0775673 0.0802322 0.0811756 0.0590341 0.0614747 0.0650842 0.0693699 0.0737907 0.0777288 
0.0805244 0.0815458 0.0587396 0.0612123 0.0648815 0.0692571 0.0738039 0.0778922 0.0808278 
0.0819334 0.0584409 0.0609454 0.0646723 0.0691357 0.0738104 0.0780566 0.0811423 0.0823393 
0.0581383 0.0606748 0.0644572 0.0690051 0.0738092 0.0782212 0.0814683 0.0827643 0.0578322 
0.0604012 0.0642365 0.0688648 0.0737987 0.0783849 0.0818059 0.0832098 0.0575228 0.0601256 
0.0640111 0.068714 0.0737773 0.0785466 0.0821554 0.083677 0.0572104 0.059849 0.0637818 
0.0685522 0.0737433 0.0787048 0.0825171 0.0841676 0.0568947 0.0595728 0.0635497 0.0683787 
0.0736943 0.0788578 0.0828913 0.0846832 0.0565756 0.0592984 0.0633167 0.068193 0.0736278 
0.0790036 0.0832782 0.0852259 0.0562525 0.0590277 0.0630847 0.0679946 0.073541 0.0791394 
0.0836781 0.0857978 0.0559246 0.0587631 0.0628566 0.0677835 0.0734304 0.0792623 0.0840912 
0.0864011 0.0555906 0.0585076 0.0626358 0.0675598 0.0732922 0.079368 0.0845177 0.0870385 
0.0552486 0.0582648 0.0624268 0.067324 0.0731216 0.0794517 0.0849575 0.0877125 0.0548961 
0.0580396 0.0622352 0.0670773 0.0729133 0.0795069 0.0854105 0.088426 0.05453 0.0578383 
0.0620678 0.0668218 0.0726609 0.0795254 0.0858764 0.0891817 0.0541462 0.0576697 0.0619328 
0.0665603 0.0723572 0.0794965 0.0863546 0.0899823 0.0537403 0.0575455 0.0618401 0.0662971 
0.0719933 0.0794061 0.0868437 0.0908304 0.0533075 0.0574818 0.0618011 0.0660374 0.0715585 
0.0792355 0.0873418 0.0917282 0.0528452 0.0575019 0.0618293 0.065788 0.0710407 0.0789604 
0.0878457 0.0926789 0.0523583 0.0576394 0.0619401 0.0655563 0.070424 0.0785465 0.0883483 
0.0936862 0.0518472 0.0579191 0.0621313 0.0653283 0.0696739 0.0779367 0.0888271 0.0947497 
0.051378 0.0584225 0.0624459 0.065144 0.0687944 0.0770991 0.0892778 0.0959013 0.051246 
0.0593606 0.0630446 0.0651093 0.0678565 0.076023 0.0897206 0.0972842 0.0506041 0.0595745 
0.0626957 0.0640255 0.0658597 0.0738724 0.0895646 0.0987688 0.0519192 0.0610159 0.0632677 
0.0635925 0.0641695 0.0713889 0.0884735 0.0996694 0.0695852 0.079743 0.0830745 0.0808965 
0.0766246 0.0790347 0.093693 0.104556 0.130546 0.148108 0.161933 0.157518 0.137915 
0.11986 0.120549 0.125501 0.247538 0.258225 0.271899 0.272927 0.252279 0.206734 
0.174853 0.166462 0.344445 0.324989 0.310778 0.314581 0.32652 0.307525 0.247435 
0.216145 0.339038 0.310894 0.292542 0.295532 0.323513 0.35926 0.313935 0.262644 
0.297263 0.277345 0.268139 0.272282 0.297726 0.351527 0.345543 0.296539 0.262079 
0.251912 0.250272 0.2592 0.28177 0.321915 0.344819 0.299161 0.224657 0.227022 
0.226927 0.236791 0.261706 0.304638 0.322809 0.28171 0.206405 0.20199 0.201065 
0.208993 0.229022 0.276949 0.307673 0.267449 0.191175 0.182222 0.178577 0.180884 
0.200677 0.241511 0.280587 0.252924 0.166479 0.160229 0.155558 0.157323 0.171279 
0.205569 0.242371 0.226999 0.14504 0.139655 0.133259 0.134817 0.145839 0.173207 
0.195258 0.196292 0.128189 0.12323 0.11678 0.116808 0.127351 0.153148 0.165473 
0.169627 0.115126 0.110597 0.104812 0.106504 0.115842 0.138467 0.158383 0.155978 
0.103867 0.0993022 0.0948318 0.0966824 0.107375 0.13074 0.147558 0.150318 0.0919 
0.0882016 0.0845667 0.0860288 0.0948497 0.118583 0.137917 0.145357 0.0902783 0.0856168 
0.0824933 0.0872939 0.0977674 0.122079 0.143627 0.154452 0.145962 0.138762 0.129682 
0.132196 0.14202 0.165913 0.18969 0.1947 
Vel_Mag_m_p_s 1 608 float
0.348215 0.343676 0.34082 0.334439 0.326379 0.309215 0.305686 0.317659 0.206507 
0.194087 0.180417 0.178041 0.175304 0.175589 0.180533 0.183627 0.298124 0.294603 
0.286018 0.276569 0.272937 0.272155 0.27077 0.27159 0.296 0.30377 0.309782 
0.308504 0.306076 0.298313 0.287313 0.281573 0.303259 0.307794 0.314441 0.31759 
0.31586 0.311515 0.302789 0.295813 0.303744 0.307686 0.310719 0.31138 0.310142 
0.307389 0.302612 0.298207 0.303988 0.307715 0.309982 0.310579 0.309816 0.307981 
0.304619 0.300562 0.30391 0.307482 0.309216 0.309614 0.309097 0.30782 0.305343 
0.301588 0.303823 0.307294 0.308803 0.309159 0.30882 0.30788 0.305881 0.302294 
0.303745 0.307127 0.308501 0.308833 0.308607 0.307883 0.306183 0.302726 0.303707 
0.307003 0.308281 0.308598 0.308448 0.30787 0.306376 0.303031 0.303707 0.306911 
0.308104 0.308401 0.308301 0.307831 0.306495 0.303258 0.303742 0.306847 0.307953 
0.308223 0.308157 0.307771 0.30657 0.303445 0.303808 0.3068 0.307814 0.308053 
0.30801 0.307694 0.306617 0.30361 0.303899 0.306767 0.307682 0.307885 0.307856 
0.307603 0.306646 0.303769 0.304014 0.306741 0.307551 0.307716 0.307697 0.307499 
0.306661 0.303929 0.304152 0.306718 0.307417 0.307543 0.307531 0.307383 0.306666 
0.304096 0.304311 0.306695 0.30728 0.307367 0.307359 0.307258 0.306661 0.304274 
0.304492 0.306669 0.307136 0.307187 0.307182 0.307122 0.306647 0.304469 0.304698 
0.306636 0.306986 0.307003 0.307 0.306977 0.306622 0.304683 0.304927 0.306592 
0.306828 0.306818 0.306816 0.306823 0.306584 0.304919 0.305182 0.306533 0.306664 
0.306633 0.306632 0.306661 0.306528 0.305177 0.305461 0.306451 0.306492 0.30645 
0.30645 0.30649 0.306448 0.305459 0.305753 0.30634 0.306317 0.30628 0.30628 
0.306317 0.306339 0.305752 0.305992 0.306232 0.306196 0.306176 0.306176 0.306196 
0.306232 0.305991 0.0203552 0.0214456 0.0226633 0.0227814 0.0221377 0.0198161 0.0177362 
0.0165862 0.145957 0.151175 0.158744 0.167442 0.176098 0.183417 0.188297 0.189624 
0.145125 0.150489 0.158257 0.167246 0.176219 0.183869 0.189002 0.19051 0.144609 
0.150047 0.157935 0.1671 0.176285 0.184162 0.189484 0.191116 0.143959 0.149484 
0.157528 0.166914 0.176364 0.184522 0.190084 0.191858 0.143321 0.148926 0.157118 
0.166718 0.176434 0.184882 0.190695 0.192619 0.142655 0.148339 0.156683 0.166502 
0.176499 0.185256 0.191342 0.193426 0.141976 0.147739 0.156232 0.16627 0.176554 
0.185637 0.192015 0.194272 0.141283 0.147124 0.155763 0.166019 0.1766 0.186024 
0.192715 0.195159 0.140579 0.146497 0.155278 0.16575 0.176632 0.186416 0.193442 
0.196087 0.139865 0.145858 0.154778 0.16546 0.176648 0.18681 0.194195 0.197059 
0.139141 0.145211 0.154264 0.165148 0.176646 0.187205 0.194976 0.198077 0.138409 
0.144557 0.153736 0.164813 0.176621 0.187597 0.195785 0.199144 0.137669 0.143898 
0.153197 0.164453 0.176571 0.187985 0.196622 0.200263 0.136921 0.143236 0.152649 
0.164066 0.17649 0.188364 0.197488 0.201438 0.136166 0.142576 0.152094 0.163651 
0.176373 0.188731 0.198384 0.202672 0.135403 0.141919 0.151536 0.163207 0.176214 
0.18908 0.199311 0.203972 0.13463 0.141272 0.150982 0.162733 0.176007 0.189406 
0.200269 0.205341 0.133846 0.140639 0.150436 0.162228 0.175743 0.1897 0.201258 
0.206785 0.133046 0.140028 0.149908 0.161693 0.175412 0.189954 0.202279 0.208311 
0.132228 0.139447 0.149408 0.161129 0.175004 0.190154 0.203332 0.209925 0.131385 
0.138908 0.14895 0.160538 0.174506 0.190287 0.204417 0.211633 0.130509 0.138426 
0.148549 0.159927 0.173903 0.190332 0.205533 0.213442 0.12959 0.138023 0.148226 
0.159302 0.173176 0.190263 0.206678 0.215359 0.128619 0.137726 0.148005 0.158672 
0.172306 0.190047 0.207849 0.217389 0.127583 0.137573 0.147911 0.15805 0.171265 
0.189639 0.209042 0.219539 0.126476 0.137621 0.147979 0.157454 0.170026 0.188981 
0.210249 0.221815 0.12531 0.13795 0.148244 0.156899 0.168551 0.187992 0.211453 
0.224227 0.124086 0.138618 0.148701 0.156354 0.166757 0.186533 0.212602 0.226774 
0.122961 0.139822 0.149453 0.155913 0.164653 0.18453 0.213683 0.229532 0.122641 
0.142064 0.150884 0.15583 0.162409 0.181955 0.214747 0.232841 0.121107 0.142584 
0.15006 0.153249 0.157643 0.176819 0.21439 0.236398 0.124236 0.146021 0.151416 
0.152204 0.153592 0.170872 0.211798 0.238578 0.158564 0.180531 0.187771 0.183104 
0.175274 0.183638 0.221738 0.250772 0.258485 0.284944 0.30674 0.300348 0.27161 
0.248078 0.26518 0.292008 0.403232 0.413939 0.424467 0.421841 0.401313 0.357639 
0.337676 0.357153 0.472336 0.463504 0.455869 0.454551 0.458619 0.448709 0.414865 
0.420031 0.450426 0.443886 0.439179 0.439208 0.45151 0.475791 0.46643 0.467818 
0.417012 0.416789 0.420558 0.424408 0.432829 0.45634 0.48002 0.48825 0.386661 
0.396336 0.404769 0.413314 0.422325 0.433031 0.459419 0.471828 0.355961 0.36965 
0.379643 0.390379 0.400494 0.415618 0.432741 0.441335 0.340843 0.345545 0.352599 
0.360117 0.370177 0.386533 0.410477 0.418746 0.321006 0.323485 0.327167 0.330889 
0.340579 0.353689 0.380386 0.391778 0.291817 0.29617 0.298096 0.302767 0.307586 
0.317962 0.339622 0.354689 0.265874 0.269716 0.269714 0.273001 0.277199 0.286598 
0.29469 0.313015 0.245126 0.24881 0.248128 0.25052 0.254141 0.263802 0.27121 
0.280573 0.228257 0.231494 0.23171 0.236588 0.240955 0.250597 0.262656 0.267072 
0.213432 0.216634 0.217321 0.221599 0.228024 0.241918 0.251127 0.257518 0.195038 
0.198113 0.199079 0.204328 0.208749 0.225367 0.23873 0.250496 0.194474 0.196148 
0.196824 0.207536 0.218627 0.238309 0.251028 0.25704 0.314907 0.316505 0.310095 
0.315894 0.313468 0.323862 0.331982 0.33579 
Water_Depth_m 1 608 float
0.467809 0.526066 0.571306 0.610037 0.603472 0.55463 0.468182 0.379804 0.408485 
0.470109 0.538369 0.553923 0.544568 0.503806 0.430061 0.371956 0.332069 0.388372 
0.449213 0.472405 0.473086 0.431174 0.377259 0.337855 0.327579 0.329573 0.349555 
0.36965 0.367329 0.363708 0.34799 0.328083 0.324777 0.32474 0.324681 0.324424 
0.324444 0.324582 0.324733 0.324903 0.323668 0.323664 0.323626 0.323619 0.323648 
0.323696 0.323778 0.323796 0.323713 0.323712 0.323702 0.323707 0.323727 0.323755 
0.323797 0.323803 0.323756 0.323756 0.323754 0.323758 0.323772 0.323788 0.323811 
0.323815 0.323801 0.323802 0.323803 0.323807 0.323816 0.323826 0.323839 0.323841 
0.323845 0.323846 0.323848 0.323851 0.323857 0.323863 0.323871 0.323872 0.323888 
0.323889 0.323891 0.323893 0.323897 0.323901 0.323905 0.323906 0.323931 0.323931 
0.323932 0.323934 0.323937 0.323939 0.323942 0.323942 0.323972 0.323972 0.323973 
0.323975 0.323976 0.323978 0.32398 0.32398 0.324013 0.324013 0.324014 0.324015 
0.324016 0.324017 0.324018 0.324018 0.324053 0.324054 0.324054 0.324055 0.324056 
0.324056 0.324057 0.324057 0.324094 0.324094 0.324094 0.324095 0.324095 0.324096 
0.324096 0.324096 0.324134 0.324134 0.324134 0.324135 0.324135 0.324135 0.324136 
0.324135 0.324174 0.324174 0.324174 0.324174 0.324175 0.324175 0.324175 0.324175 
0.324213 0.324214 0.324214 0.324214 0.324214 0.324214 0.324215 0.324214 0.324253 
0.324254 0.324254 0.324254 0.324254 0.324254 0.324254 0.324254 0.324293 0.324294 
0.324293 0.324293 0.324293 0.324293 0.324294 0.324293 0.324333 0.324334 0.324333 
0.324333 0.324333 0.324333 0.324334 0.324333 0.324374 0.324374 0.324372 0.324372 
0.324372 0.324372 0.324374 0.324374 0.324415 0.324414 0.324411 0.32441 0.32441 
0.324411 0.324414 0.324415 0.324462 0.324451 0.324447 0.324445 0.324445 0.324447 
0.324451 0.324462 0.482621 0.530699 0.597849 0.602069 0.588232 0.477823 0.383367 
0.329671 0.584011 0.584009 0.584008 0.584004 0.584001 0.583998 0.583995 0.583993 
0.584009 0.584008 0.584008 0.584008 0.584008 0.584007 0.584007 0.584005 0.584015 
0.584014 0.584014 0.584013 0.584012 0.584011 0.584011 0.584009 0.584019 0.584018 
0.584018 0.584018 0.584018 0.584016 0.584017 0.584015 0.584024 0.584022 0.584023 
0.584022 0.584022 0.584021 0.584022 0.58402 0.584028 0.584027 0.584027 0.584027 
0.584027 0.584026 0.584027 0.584025 0.584032 0.584031 0.584032 0.584031 0.584032 
0.584031 0.584032 0.584029 0.584037 0.584035 0.584036 0.584035 0.584036 0.584035 
0.584036 0.584034 0.584041 0.58404 0.58404 0.58404 0.58404 0.584039 0.584041 
0.584038 0.584045 0.584044 0.584044 0.584044 0.584044 0.584043 0.584045 0.584042 
0.584049 0.584047 0.584048 0.584048 0.584048 0.584047 0.584049 0.584046 0.584053 
0.584051 0.584052 0.584052 0.584052 0.584051 0.584053 0.58405 0.584056 0.584055 
0.584056 0.584055 0.584056 0.584055 0.584057 0.584054 0.58406 0.584058 0.584059 
0.584059 0.58406 0.584059 0.584061 0.584057 0.584063 0.584062 0.584063 0.584062 
0.584063 0.584062 0.584064 0.584061 0.584066 0.584065 0.584066 0.584065 0.584066 
0.584065 0.584068 0.584064 0.584069 0.584067 0.584069 0.584068 0.584069 0.584068 