# vtk DataFile Version 5.1
vtk output
ASCII
DATASET UNSTRUCTURED_GRID
POINTS 9486 double
0.1016 1.5 0 0.1016 1.45 5.1584879698e-20 0.1016 1.4 8.2585350466e-20 
0.1016 1.35 0 0.1016 1.3 0 0.1016 1.25 7.633537409e-20 
0.1016 1.2 -1.0472138867e-19 0.1016 1.15 -1.0474616531e-19 0.1016 1.1 0 
0.1016 1.05 0 0.1016 1 7.6430874677e-20 0.1016 0.95 -1.047413444e-19 
0.1016 0.9 7.6430971612e-20 0.1016 0.85 1.9900855048e-18 0.1016 0.8 -1.0474130562e-19 
0.1016 0.75 7.6430325377e-20 0.1016 0.7 2.0948253887e-18 0.1016 0.65 0 
0.1016 0.6 1.9900857116e-18 0.1016 0.55 0 0.1016 0.5 -1.0474154473e-19 
0.1016 0.45 0 0.1016 0.4 -1.0474482114e-19 0.1016 0.35 0 
0.1016 0.3 0 0.1016 0.25 0 0.1016 0.2 7.5297934506e-20 
0.1016 0.15 -9.0429310344e-20 0.1016 0.1 -9.209014038e-20 0.1016 0.05 -7.6045124168e-20 
0.1016 0 0 5.08 1.5 0.28700000048 5.08 1.45 0.28700000048 
5.08 1.4 0.28700000048 5.08 1.35 0.28700000048 5.08 1.3 0.28700000048 
5.08 1.25 0.28700000048 5.08 1.2 0.28700000048 5.08 1.15 0.28700000048 
5.08 1.1 0.28700000048 5.08 1.05 0.28700000048 5.08 1 0.28700000048 
5.08 0.95 0.28700000048 5.08 0.9 0.28700000048 5.08 0.85 0.28700000048 
5.08 0.8 0.28700000048 5.08 0.75 0.28700000048 5.08 0.7 0.28700000048 
5.08 0.65 0.28700000048 5.08 0.6 0.28700000048 5.08 0.55 0.28700000048 
5.08 0.5 0.28700000048 5.08 0.45 0.28700000048 5.08 0.4 0.28700000048 
5.08 0.35 0.28700000048 5.08 0.3 0.28700000048 5.08 0.25 0.28700000048 
5.08 0.2 0.28700000048 5.08 0.15 0.28700000048 5.08 0.1 0.28700000048 
5.08 0.05 0.28700000048 5.08 0 0.28700000048 0.151384 1.5 0.02146493271 
0.151384 1.45 0.021448900923 0.151384 1.4 0.021452795714 0.151384 1.35 0.021451983601 
0.151384 1.3 0.021452168003 0.151384 1.25 0.021452125162 0.151384 1.2 0.021452134475 
0.151384 1.15 0.021452132612 0.151384 1.1 0.021452134475 0.151384 1.05 0.021452132612 
0.151384 1 0.021452134475 0.151384 0.95 0.021452132612 0.151384 0.9 0.021452132612 
0.151384 0.85 0.021452132612 0.151384 0.8 0.021452132612 0.151384 0.75 0.021452134475 
0.151384 0.7 0.021452134475 0.151384 0.65 0.021452134475 0.151384 0.6 0.021452134475 
0.151384 0.55 0.021452134475 0.151384 0.5 0.021452134475 0.151384 0.45 0.021452132612 
0.151384 0.4 0.021452134475 0.151384 0.35 0.021452132612 0.151384 0.3 0.021452134475 
0.151384 0.25 0.021452127025 0.151384 0.2 0.021452162415 0.151384 0.15 0.02145200409 
0.151384 0.1 0.021452706307 0.151384 0.05 0.02144934237 0.151384 0 0.021464604884 
0.201168 1.5 0.04984471947 0.201168 1.45 0.049860715866 0.201168 1.4 0.04986718297 
0.201168 1.35 0.049865700305 0.201168 1.3 0.049866013229 0.201168 1.25 0.049865946174 
0.201168 1.2 0.049865961075 0.201168 1.15 0.04986595735 0.201168 1.1 0.04986595735 
0.201168 1.05 0.04986595735 0.201168 1 0.04986595735 0.201168 0.95 0.04986595735 
0.201168 0.9 0.04986595735 0.201168 0.85 0.04986595735 0.201168 0.8 0.04986595735 
0.201168 0.75 0.04986595735 0.201168 0.7 0.04986595735 0.201168 0.65 0.04986595735 
0.201168 0.6 0.04986595735 0.201168 0.55 0.04986595735 0.201168 0.5 0.04986595735 
0.201168 0.45 0.04986595735 0.201168 0.4 0.04986595735 0.201168 0.35 0.04986595735 
0.201168 0.3 0.049865961075 0.201168 0.25 0.049865946174 0.201168 0.2 0.049866005778 
0.201168 0.15 0.049865730107 0.201168 0.1 0.049867045134 0.201168 0.05 0.049861267209 
0.201168 0 0.049844291061 0.250952 1.5 0.083479054272 0.250952 1.45 0.083398230374 
0.250952 1.4 0.083408355713 0.250952 1.35 0.083406820893 0.250952 1.3 0.083407111466 
0.250952 1.25 0.083407051861 0.250952 1.2 0.083407066762 0.250952 1.15 0.083407066762 
0.250952 1.1 0.083407066762 0.250952 1.05 0.083407066762 0.250952 1 0.083407066762 
0.250952 0.95 0.083407066762 0.250952 0.9 0.083407066762 0.250952 0.85 0.083407066762 
0.250952 0.8 0.083407066762 0.250952 0.75 0.083407066762 0.250952 0.7 0.083407066762 
0.250952 0.65 0.083407066762 0.250952 0.6 0.083407066762 0.250952 0.55 0.083407066762 
0.250952 0.5 0.083407066762 0.250952 0.45 0.083407066762 0.250952 0.4 0.083407066762 
0.250952 0.35 0.083407066762 0.250952 0.3 0.083407066762 0.250952 0.25 0.083407059312 
0.250952 0.2 0.083407104015 0.250952 0.15 0.083406858146 0.250952 0.1 0.083408199251 
0.250952 0.05 0.083398923278 0.250952 0 0.083478525281 0.300736 1.5 0.14716693759 
0.300736 1.45 0.14724357426 0.300736 1.4 0.14723330736 0.300736 1.35 0.14723455906 
0.300736 1.3 0.14723439515 0.300736 1.25 0.14723441005 0.300736 1.2 0.14723441005 
0.300736 1.15 0.14723441005 0.300736 1.1 0.14723441005 0.300736 1.05 0.14723441005 
0.300736 1 0.14723441005 0.300736 0.95 0.14723441005 0.300736 0.9 0.14723441005 
0.300736 0.85 0.14723441005 0.300736 0.8 0.14723441005 0.300736 0.75 0.14723441005 
0.300736 0.7 0.14723441005 0.300736 0.65 0.14723441005 0.300736 0.6 0.14723441005 
0.300736 0.55 0.14723441005 0.300736 0.5 0.14723441005 0.300736 0.45 0.14723441005 
0.300736 0.4 0.14723441005 0.300736 0.35 0.14723441005 0.300736 0.3 0.14723441005 
0.300736 0.25 0.14723441005 0.300736 0.2 0.14723438025 0.300736 0.15 0.14723460376 
0.300736 0.1 0.14723312855 0.300736 0.05 0.14724433422 0.300736 0 0.14716635644 
0.35052 1.5 0.15515324473 0.35052 1.45 0.15522770584 0.35052 1.4 0.15521581471 
0.35052 1.35 0.15521745384 0.35052 1.3 0.15521720052 0.35052 1.25 0.15521724522 
0.35052 1.2 0.15521723032 0.35052 1.15 0.15521723032 0.35052 1.1 0.15521723032 
0.35052 1.05 0.15521723032 0.35052 1 0.15521723032 0.35052 0.95 0.15521723032 
0.35052 0.9 0.15521723032 0.35052 0.85 0.15521723032 0.35052 0.8 0.15521723032 
0.35052 0.75 0.15521723032 0.35052 0.7 0.15521723032 0.35052 0.65 0.15521723032 
0.35052 0.6 0.15521723032 0.35052 0.55 0.15521723032 0.35052 0.5 0.15521723032 
0.35052 0.45 0.15521723032 0.35052 0.4 0.15521723032 0.35052 0.35 0.15521723032 
0.35052 0.3 0.15521723032 0.35052 0.25 0.15521724522 0.35052 0.2 0.15521720052 
0.35052 0.15 0.15521749854 0.35052 0.1 0.1552156359 0.35052 0.05 0.1552284956 
0.35052 0 0.15515261889 0.400304 1.5 0.18852005899 0.400304 1.45 0.18836417794 
0.400304 1.4 0.18838000298 0.400304 1.35 0.18837818503 0.400304 1.3 0.18837840855 
0.400304 1.25 0.18837839365 0.400304 1.2 0.18837839365 0.400304 1.15 0.18837839365 
0.400304 1.1 0.18837839365 0.400304 1.05 0.18837839365 0.400304 1 0.18837839365 
0.400304 0.95 0.18837839365 0.400304 0.9 0.18837839365 0.400304 0.85 0.18837839365 
0.400304 0.8 0.18837839365 0.400304 0.75 0.18837839365 0.400304 0.7 0.18837839365 
0.400304 0.65 0.18837839365 0.400304 0.6 0.18837839365 0.400304 0.55 0.18837839365 
0.400304 0.5 0.18837839365 0.400304 0.45 0.18837839365 0.400304 0.4 0.18837839365 
0.400304 0.35 0.18837839365 0.400304 0.3 0.18837839365 0.400304 0.25 0.18837839365 
0.400304 0.2 0.18837839365 0.400304 0.15 0.18837822974 0.400304 0.1 0.18837982416 
0.400304 0.05 0.18836499751 0.400304 0 0.18851940334 0.450088 1.5 0.22610981762 
0.450088 1.45 0.22619141638 0.450088 1.4 0.22619566321 0.450088 1.35 0.22619527578 
0.450088 1.3 0.22619529068 0.450088 1.25 0.22619530559 0.450088 1.2 0.22619529068 
0.450088 1.15 0.22619529068 0.450088 1.1 0.22619529068 0.450088 1.05 0.22619529068 
0.450088 1 0.22619529068 0.450088 0.95 0.22619529068 0.450088 0.9 0.22619529068 
0.450088 0.85 0.22619529068 0.450088 0.8 0.22619529068 0.450088 0.75 0.22619529068 
0.450088 0.7 0.22619529068 0.450088 0.65 0.22619529068 0.450088 0.6 0.22619529068 
0.450088 0.55 0.22619529068 0.450088 0.5 0.22619529068 0.450088 0.45 0.22619529068 
0.450088 0.4 0.22619529068 0.450088 0.35 0.22619530559 0.450088 0.3 0.22619529068 
0.450088 0.25 0.22619530559 0.450088 0.2 0.22619527578 0.450088 0.15 0.22619532049 
0.450088 0.1 0.2261954695 0.450088 0.05 0.22619225085 0.450088 0 0.22610916197 
0.499872 1.5 0.260286659 0.499872 1.45 0.26024150848 0.499872 1.4 0.26022011042 
0.499872 1.35 0.26022422314 0.499872 1.3 0.26022326946 0.499872 1.25 0.26022350788 
0.499872 1.2 0.26022344828 0.499872 1.15 0.26022347808 0.499872 1.1 0.26022344828 
0.499872 1.05 0.26022344828 0.499872 1 0.26022344828 0.499872 0.95 0.26022344828 
0.499872 0.9 0.26022344828 0.499872 0.85 0.26022344828 0.499872 0.8 0.26022344828 
0.499872 0.75 0.26022344828 0.499872 0.7 0.26022344828 0.499872 0.65 0.26022344828 
0.499872 0.6 0.26022344828 0.499872 0.55 0.26022344828 0.499872 0.5 0.26022344828 
0.499872 0.45 0.26022344828 0.499872 0.4 0.26022344828 0.499872 0.35 0.26022347808 
0.499872 0.3 0.26022344828 0.499872 0.25 0.26022350788 0.499872 0.2 0.26022326946 
0.499872 0.15 0.26022425294 0.499872 0.1 0.2602199018 0.499872 0.05 0.26024246216 
0.499872 0 0.26028591394 0.549656 1.5 0.28591999412 0.549656 1.45 0.28591999412 
0.549656 1.4 0.28591999412 0.549656 1.35 0.28591999412 0.549656 1.3 0.28591999412 
0.549656 1.25 0.28591999412 0.549656 1.2 0.28591999412 0.549656 1.15 0.28591999412 
0.549656 1.1 0.28591999412 0.549656 1.05 0.28591999412 0.549656 1 0.28591999412 
0.549656 0.95 0.28591999412 0.549656 0.9 0.28591999412 0.549656 0.85 0.28591999412 
0.549656 0.8 0.28591999412 0.549656 0.75 0.28591999412 0.549656 0.7 0.28591999412 
0.549656 0.65 0.28591999412 0.549656 0.6 0.28591999412 0.549656 0.55 0.28591999412 
0.549656 0.5 0.28591999412 0.549656 0.45 0.28591999412 0.549656 0.4 0.28591999412 
0.549656 0.35 0.28591999412 0.549656 0.3 0.28591999412 0.549656 0.25 0.28591999412 
0.549656 0.2 0.28591999412 0.549656 0.15 0.28591999412 0.549656 0.1 0.28591999412 
0.549656 0.05 0.28591999412 0.549656 0 0.28591999412 0.59944 1.5 0.28700000048 
0.59944 1.45 0.28700000048 0.59944 1.4 0.28700000048 0.59944 1.35 0.28700000048 
0.59944 1.3 0.28700000048 0.59944 1.25 0.28700000048 0.59944 1.2 0.28700000048 
0.59944 1.15 0.28700000048 0.59944 1.1 0.28700000048 0.59944 1.05 0.28700000048 
0.59944 1 0.28700000048 0.59944 0.95 0.28700000048 0.59944 0.9 0.28700000048 
0.59944 0.85 0.28700000048 0.59944 0.8 0.28700000048 0.59944 0.75 0.28700000048 
0.59944 0.7 0.28700000048 0.59944 0.65 0.28700000048 0.59944 0.6 0.28700000048 
0.59944 0.55 0.28700000048 0.59944 0.5 0.28700000048 0.59944 0.45 0.28700000048 
0.59944 0.4 0.28700000048 0.59944 0.35 0.28700000048 0.59944 0.3 0.28700000048 
[...]
CELL_DATA 9150
FIELD FieldData 7
B_Stress_n_p_m2 1 9150 float
0.200107 0.200182 0.199051 0.198469 0.198295 0.198269 0.198304 0.198359 0.198415 
0.198465 0.19851 0.198551 0.198592 0.198635 0.198677 0.198709 0.198732 0.198749 
0.198761 0.198767 0.198762 0.198743 0.198708 0.198661 0.198624 0.198641 0.198807 
0.199383 0.200511 0.200437 0.118507 0.121119 0.120944 0.120798 0.120862 0.121014 
0.121195 0.121364 0.121504 0.121611 0.12169 0.121748 0.121792 0.121826 0.121852 
0.121868 0.121874 0.121871 0.121855 0.121821 0.121763 0.121672 0.121544 0.12138 
0.121201 0.121047 0.12098 0.121124 0.1213 0.118689 0.132927 0.136928 0.138046 
0.138592 0.13909 0.139556 0.139977 0.140331 0.140609 0.140816 0.140964 0.141066 
0.141135 0.141181 0.14121 0.141227 0.14123 0.141213 0.141171 0.141091 0.140963 
0.140772 0.140506 0.140159 0.139741 0.139275 0.138776 0.138227 0.137107 0.133101 
0.165441 0.168524 0.169863 0.170844 0.171728 0.172525 0.173217 0.173787 0.174232 
0.174566 0.17481 0.174981 0.175099 0.175175 0.175219 0.175236 0.175225 0.17518 
0.175091 0.174944 0.174723 0.174405 0.173973 0.173413 0.172726 0.171932 0.171048 
0.170067 0.168728 0.165622 0.18771 0.190464 0.191617 0.192731 0.193884 0.194963 
0.195898 0.196665 0.197267 0.197724 0.198061 0.198303 0.198469 0.198577 0.198637 
0.198652 0.198624 0.198545 0.198406 0.198189 0.197873 0.197434 0.196846 0.19609 
0.195161 0.194087 0.192936 0.191824 0.190676 0.187944 0.214984 0.217435 0.218346 
0.219613 0.221066 0.222451 0.22365 0.224631 0.225405 0.225998 0.226442 0.226764 
0.226989 0.227134 0.22721 0.227225 0.227178 0.227061 0.226863 0.226565 0.226142 
0.225567 0.224808 0.223838 0.222648 0.221269 0.219819 0.218553 0.217637 0.215207 
0.264678 0.264669 0.265696 0.267581 0.269569 0.271405 0.272972 0.27425 0.275264 
0.276049 0.276643 0.277079 0.277386 0.277584 0.277687 0.277702 0.277629 0.27746 
0.277181 0.27677 0.276199 0.275434 0.274437 0.273172 0.271615 0.269787 0.267804 
0.265923 0.264903 0.264869 0.325129 0.321459 0.323091 0.325919 0.328552 0.33088 
0.332844 0.334444 0.335721 0.33672 0.337483 0.33805 0.33845 0.33871 0.338843 
0.338859 0.338757 0.338529 0.338157 0.337618 0.336879 0.335902 0.334643 0.333058 
0.331107 0.328787 0.326161 0.323337 0.321715 0.325415 0.371219 0.366187 0.368625 
0.372123 0.375173 0.377813 0.380033 0.381853 0.383317 0.384473 0.385364 0.38603 
0.386504 0.38681 0.386968 0.386984 0.386858 0.386582 0.386138 0.385499 0.384633 
0.3835 0.382055 0.380251 0.378043 0.375414 0.37237 0.368876 0.36643 0.37146 
0.384098 0.381435 0.384319 0.387824 0.390877 0.393523 0.395766 0.397621 0.399127 
0.400326 0.401256 0.401956 0.402456 0.40278 0.402945 0.40296 0.402824 0.402528 
0.402055 0.401381 0.400473 0.399296 0.397809 0.395969 0.393739 0.391102 0.388057 
0.384557 0.381677 0.384341 0.379908 0.380996 0.384062 0.387305 0.390196 0.392726 
0.394888 0.396691 0.398166 0.399347 0.400269 0.400966 0.401465 0.401789 0.401953 
0.401966 0.401827 0.401528 0.401053 0.40038 0.399479 0.398317 0.396859 0.395069 
0.39292 0.390399 0.387515 0.384277 0.381214 0.380128 0.377313 0.380784 0.384126 
0.387277 0.390093 0.392555 0.394661 0.396426 0.397874 0.399037 0.399949 0.400639 
0.401134 0.401456 0.401619 0.401631 0.401491 0.401191 0.400717 0.400047 0.399155 
0.398008 0.396575 0.394824 0.392729 0.390276 0.387467 0.38432 0.380981 0.377509 
0.376347 0.380652 0.384274 0.387484 0.390306 0.392749 0.394831 0.396572 0.398002 
0.399152 0.400054 0.400737 0.401228 0.401547 0.401708 0.401718 0.401577 0.401279 
0.400807 0.400142 0.399257 0.398123 0.396707 0.394978 0.392906 0.390471 0.387656 
0.38445 0.38083 0.376524 0.375886 0.380426 0.384239 0.38754 0.390399 0.39285 
0.394925 0.396655 0.398073 0.399212 0.400105 0.400781 0.401267 0.401582 0.401741 
0.40175 0.40161 0.401312 0.400844 0.400184 0.399306 0.398181 0.396776 0.395057 
0.392991 0.390548 0.387695 0.384398 0.380586 0.376045 0.375641 0.380241 0.384161 
0.387534 0.390431 0.392898 0.394976 0.396702 0.398112 0.399243 0.400128 0.400798 
0.401279 0.40159 0.401747 0.401755 0.401615 0.401319 0.400854 0.400199 0.399327 
0.398209 0.39681 0.395095 0.393026 0.390565 0.387673 0.384304 0.380386 0.375785 
0.375507 0.38012 0.384094 0.387515 0.390442 0.392925 0.395008 0.396732 0.398137 
0.399262 0.40014 0.400804 0.40128 0.401588 0.401742 0.401749 0.40161 0.401316 
0.400855 0.400204 0.399338 0.398225 0.39683 0.395115 0.39304 0.390563 0.387641 
0.384223 0.38025 0.375637 0.375431 0.380046 0.384048 0.387496 0.390444 0.392939 
0.395026 0.396749 0.398151 0.399269 0.400142 0.4008 0.401271 0.401575 0.401727 
0.401733 0.401595 0.401303 0.400845 0.400199 0.399338 0.398229 0.396837 0.395123 
0.393043 0.390554 0.38761 0.384164 0.380163 0.375548 0.37539 0.380004 0.384019 
0.387484 0.390444 0.392946 0.395035 0.396757 0.398154 0.399266 0.400133 0.400785 
0.401251 0.401552 0.401701 0.401707 0.401569 0.40128 0.400826 0.400184 0.399328 
0.398224 0.396836 0.395122 0.393039 0.390543 0.387586 0.384124 0.38011 0.375495 
0.375372 0.379985 0.384007 0.387479 0.390445 0.39295 0.395039 0.396757 0.398148 
0.399255 0.400115 0.400762 0.401222 0.401519 0.401667 0.401672 0.401535 0.401249 
0.400798 0.400161 0.39931 0.398212 0.396828 0.395117 0.393034 0.390534 0.387571 
0.384101 0.38008 0.375467 0.375371 0.379982 0.384006 0.387481 0.390449 0.392953 
0.395038 0.396752 0.398137 0.399237 0.40009 0.40073 0.401186 0.401479 0.401624 
0.401629 0.401493 0.401209 0.400763 0.400131 0.399286 0.398194 0.396816 0.395109 
0.393028 0.390529 0.387564 0.384091 0.380068 0.375457 0.375384 0.379992 0.384015 
0.38749 0.390456 0.392956 0.395036 0.396743 0.398121 0.399213 0.400058 0.400692 
0.401142 0.401431 0.401574 0.401578 0.401444 0.401163 0.400721 0.400096 0.399257 
0.398172 0.396801 0.3951 0.393024 0.390528 0.387565 0.384092 0.38007 0.375461 
0.375406 0.380012 0.384033 0.387504 0.390466 0.39296 0.395033 0.396731 0.398101 
0.399184 0.400021 0.400648 0.401092 0.401377 0.401517 0.401521 0.401389 0.401111 
0.400674 0.400055 0.399224 0.398147 0.396783 0.39509 0.393021 0.39053 0.387572 
0.384102 0.380082 0.375475 0.375436 0.380039 0.384057 0.387523 0.390478 0.392965 
0.395029 0.396718 0.398078 0.399151 0.39998 0.400599 0.401037 0.401317 0.401455 
0.401459 0.401328 0.401054 0.400623 0.40001 0.399188 0.398119 0.396765 0.395081 
0.39302 0.390537 0.387584 0.384119 0.380102 0.375498 0.375472 0.380072 0.384086 
0.387546 0.390494 0.392971 0.395026 0.396704 0.398052 0.399116 0.399935 0.400545 
0.400977 0.401253 0.401388 0.401391 0.401262 0.400992 0.400567 0.399962 0.399148 
0.39809 0.396746 0.395072 0.393021 0.390546 0.387601 0.384142 0.380129 0.375528 
0.375513 0.380111 0.384119 0.387573 0.390512 0.392979 0.395022 0.396688 0.398025 
0.399077 0.399886 0.400488 0.400913 0.401184 0.401317 0.40132 0.401192 0.400927 
0.400507 0.399911 0.399106 0.398059 0.396726 0.395063 0.393024 0.390559 0.387622 
0.38417 0.380162 0.375564 0.375559 0.380154 0.384157 0.387603 0.390532 0.392988 
0.395018 0.396672 0.397996 0.399036 0.399835 0.400428 0.400845 0.401111 0.401242 
0.401244 0.401119 0.400858 0.400445 0.399857 0.399063 0.398026 0.396706 0.395056 
0.393028 0.390574 0.387647 0.384202 0.380199 0.375604 0.375608 0.3802 0.384197 
0.387635 0.390553 0.392997 0.395015 0.396655 0.397966 0.398994 0.399781 0.400364 
0.400775 0.401035 0.401163 0.401165 0.401042 0.400786 0.40038 0.399801 0.399017 
0.397993 0.396686 0.395049 0.393034 0.390592 0.387675 0.384238 0.380241 0.375649 
0.375661 0.380249 0.384241 0.38767 0.390577 0.393008 0.395012 0.396637 0.397934 
0.398949 0.399725 0.400298 0.400701 0.400956 0.401081 0.401083 0.400963 0.400711 
0.400312 0.399743 0.398971 0.397959 0.396665 0.395042 0.393041 0.390611 0.387706 
0.384278 0.380287 0.375698 0.375716 0.380302 0.384287 0.387706 0.390602 0.39302 
0.395009 0.396619 0.397902 0.398903 0.399667 0.40023 0.400625 0.400875 0.400997 
0.400998 0.40088 0.400634 0.400243 0.399683 0.398922 0.397924 0.396644 0.395036 
0.393049 0.390633 0.387739 0.38432 0.380336 0.37575 0.375774 0.380357 0.384335 
0.387745 0.390628 0.393032 0.395006 0.396601 0.397869 0.398856 0.399607 0.40016 
0.400546 0.400791 0.40091 0.400911 0.400796 0.400554 0.400171 0.399621 0.398873 
0.397889 0.396624 0.39503 0.393058 0.390656 0.387774 0.384365 0.380387 0.375804 
0.375835 0.380414 0.384386 0.387785 0.390656 0.393045 0.395003 0.396583 0.397834 
0.398807 0.399545 0.400087 0.400466 0.400704 0.40082 0.400822 0.400709 0.400473 
0.400098 0.399558 0.398823 0.397852 0.396603 0.395025 0.393069 0.390681 0.387812 
0.384413 0.380442 0.375862 0.375898 0.380474 0.384438 0.387827 0.390685 0.393059 
0.395001 0.396564 0.397799 0.398757 0.399482 0.400013 0.400383 0.400616 0.400729 
0.40073 0.40062 0.40039 0.400023 0.399494 0.398771 0.397815 0.396582 0.395021 
0.39308 0.390708 0.387851 0.384463 0.380499 0.375923 0.375963 0.380536 0.384493 
0.387871 0.390715 0.393073 0.394998 0.396544 0.397764 0.398706 0.399418 0.399938 
0.400299 0.400525 0.400635 0.400636 0.400529 0.400305 0.399946 0.399428 0.398719 
0.397778 0.396561 0.395016 0.393092 0.390735 0.387892 0.384514 0.380558 0.375985 
0.376031 0.3806 0.384549 0.387916 0.390746 0.393088 0.394996 0.396525 0.397727 
0.398654 0.399352 0.39986 0.400212 0.400433 0.40054 0.400541 0.400437 0.400218 
0.399868 0.399361 0.398666 0.39774 0.396539 0.395012 0.393105 0.390764 0.387935 
0.384568 0.380619 0.376051 0.3761 0.380665 0.384607 0.387962 0.390778 0.393104 
0.394994 0.396505 0.39769 0.398601 0.399285 0.399781 0.400125 0.400339 0.400443 
0.400444 0.400342 0.400129 0.399788 0.399293 0.398611 0.397702 0.396518 0.395009 
0.393119 0.390794 0.38798 0.384625 0.380683 0.376118 0.376172 0.380733 0.384666 
0.38801 0.390811 0.39312 0.394992 0.396484 0.397652 0.398547 0.399216 0.399701 
0.400035 0.400244 0.400344 0.400345 0.400246 0.400039 0.399707 0.399224 0.398556 
0.397662 0.396496 0.395005 0.393134 0.390826 0.388026 0.384682 0.380749 0.376188 
0.376246 0.380803 0.384728 0.38806 0.390845 0.393136 0.39499 0.396464 0.397613 
0.398492 0.399147 0.399619 0.399944 0.400146 0.400243 0.400244 0.400149 0.399948 
0.399625 0.399153 0.3985 0.397623 0.396474 0.395002 0.393149 0.390858 0.388074 
0.384742 0.380818 0.37626 0.376321 0.380875 0.384791 0.38811 0.39088 0.393153 
0.394988 0.396443 0.397574 0.398435 0.399076 0.399536 0.399852 0.400047 0.400141 
0.400142 0.40005 0.399855 0.399541 0.399082 0.398443 0.397582 0.396452 0.394999 
0.393165 0.390892 0.388123 0.384804 0.380888 0.376334 0.376399 0.380948 0.384856 
0.388162 0.390916 0.393171 0.394986 0.396421 0.397534 0.398378 0.399003 0.399452 
0.399757 0.399947 0.400038 0.400038 0.399949 0.399761 0.399456 0.399009 0.398385 
0.397541 0.39643 0.394996 0.393181 0.390927 0.388174 0.384868 0.38096 0.376411 
0.376479 0.381024 0.384923 0.388216 0.390952 0.393189 0.394984 0.396399 0.397493 
0.39832 0.39893 0.399366 0.399662 0.399845 0.399932 0.399933 0.399847 0.399665 
0.39937 0.398935 0.398326 0.3975 0.396407 0.394993 0.393198 0.390962 0.388226 
0.384933 0.381035 0.37649 0.376561 0.381102 0.384991 0.38827 0.39099 0.393207 
0.394983 0.396377 0.397451 0.39826 0.398855 0.399278 0.399565 0.399741 0.399825 
0.399826 0.399743 0.399567 0.399282 0.39886 0.398266 0.397457 0.396384 0.39499 
0.393216 0.390999 0.388279 0.385 0.381111 0.376571 0.376645 0.381181 0.385061 
0.388326 0.391029 0.393226 0.394981 0.396355 0.397409 0.3982 0.398779 0.39919 
0.399466 0.399636 0.399717 0.399718 0.399638 0.399469 0.399193 0.398783 0.398205 
0.397414 0.396361 0.394988 0.393234 0.391037 0.388335 0.38507 0.38119 0.376654 
0.376732 0.381263 0.385133 0.388384 0.391069 0.393246 0.394979 0.396331 0.397365 
0.398138 0.398702 0.399099 0.399366 0.39953 0.399607 0.399608 0.399531 0.399369 
0.399102 0.398706 0.398143 0.397371 0.396337 0.394985 0.393253 0.391076 0.388391 
0.385141 0.381271 0.376739 0.37682 0.381347 0.385207 0.388443 0.391109 0.393266 
0.394977 0.396308 0.397321 0.398076 0.398623 0.399008 0.399265 0.399422 0.399496 
0.399496 0.399423 0.399267 0.39901 0.398627 0.39808 0.397326 0.396313 0.394983 
0.393272 0.391116 0.38845 0.385214 0.381354 0.376827 0.376911 0.381433 0.385282 
0.388503 0.391151 0.393286 0.394975 0.396284 0.397277 0.398012 0.398544 0.398915 
0.399162 0.399312 0.399383 0.399383 0.399313 0.399164 0.398917 0.398546 0.398016 
0.397281 0.396288 0.39498 0.393292 0.391157 0.388509 0.385289 0.38144 0.376918 
0.377005 0.381522 0.38536 0.388565 0.391193 0.393307 0.394973 0.396259 0.397231 
0.397947 0.398462 0.39882 0.399058 0.399201 0.399269 0.399269 0.399202 0.399059 
0.398823 0.398465 0.397951 0.397234 0.396263 0.394978 0.393312 0.391198 0.388571 
0.385366 0.381528 0.377011 0.377101 0.381613 0.38544 0.388629 0.391237 0.393328 
0.394971 0.396234 0.397184 0.397881 0.39838 0.398725 0.398952 0.399089 0.399153 
0.399153 0.39909 0.398953 0.398727 0.398382 0.397884 0.397187 0.396238 0.394975 
0.393332 0.391241 0.388634 0.385445 0.381618 0.377106 0.377199 0.381706 0.385521 
0.388694 0.391281 0.39335 0.394969 0.396208 0.397136 0.397814 0.398296 0.398627 
0.398845 0.398975 0.399036 0.399036 0.398976 0.398846 0.398629 0.398298 0.397817 
0.397139 0.396212 0.394972 0.393354 0.391285 0.388698 0.385526 0.38171 0.377204 
0.3773 0.381801 0.385605 0.38876 0.391327 0.393371 0.394966 0.396182 0.397088 
0.397746 0.398211 0.398529 0.398736 0.398859 0.398917 0.398917 0.39886 0.398737 
0.39853 0.398213 0.397748 0.39709 0.396185 0.394969 0.393375 0.39133 0.388764 
0.385609 0.381805 0.377305 0.377404 0.381899 0.385691 0.388828 0.391373 0.393394 
0.394963 0.396155 0.397038 0.397676 0.398124 0.398428 0.398626 0.398742 0.398797 
0.398797 0.398743 0.398627 0.39843 0.398126 0.397678 0.39704 0.396158 0.394966 
0.393397 0.391377 0.388832 0.385695 0.381903 0.377408 0.377511 0.382 0.385779 
0.388898 0.391421 0.393416 0.39496 0.396127 0.396987 0.397605 0.398036 0.398327 
0.398514 0.398624 0.398675 0.398675 0.398625 0.398515 0.398328 0.398037 0.397607 
0.396989 0.396129 0.394963 0.393419 0.391424 0.388901 0.385782 0.382003 0.377514 
0.37762 0.382103 0.385869 0.38897 0.391469 0.393439 0.394957 0.396098 0.396935 
0.397532 0.397946 0.398224 0.398401 0.398504 0.398552 0.398552 0.398505 0.398401 
0.398225 0.397948 0.397534 0.396937 0.396101 0.39496 0.393442 0.391472 0.388972 
0.385872 0.382106 0.377623 0.377733 0.382209 0.385962 0.389043 0.391518 0.393463 
0.394954 0.396069 0.396882 0.397459 0.397855 0.398119 0.398286 0.398383 0.398427 
0.398427 0.398383 0.398286 0.39812 0.397856 0.39746 0.396884 0.396071 0.394956 
0.393465 0.391521 0.389045 0.385964 0.382212 0.377735 0.377848 0.382318 0.386057 
0.389118 0.391569 0.393486 0.39495 0.396039 0.396828 0.397383 0.397763 0.398012 
0.398169 0.39826 0.398301 0.398301 0.39826 0.39817 0.398013 0.397764 0.397385 
0.396829 0.396041 0.394952 0.393488 0.391571 0.38912 0.386059 0.382321 0.377851 
0.377967 0.38243 0.386154 0.389194 0.39162 0.39351 0.394945 0.396008 0.396772 
0.397306 0.397668 0.397905 0.398052 0.398136 0.398173 0.398174 0.398136 0.398052 
0.397905 0.397669 0.397308 0.396773 0.396009 0.394947 0.393512 0.391622 0.389196 
0.386156 0.382432 0.377969 0.378089 0.382545 0.386254 0.389273 0.391672 0.393534 
0.394941 0.395975 0.396715 0.397228 0.397572 0.397795 0.397932 0.39801 0.398044 
0.398045 0.39801 0.397933 0.397796 0.397573 0.397229 0.396716 0.395977 0.394942 
0.393536 0.391674 0.389274 0.386256 0.382547 0.378091 0.378214 0.382663 0.386356 
0.389353 0.391726 0.393558 0.394935 0.395942 0.396657 0.397148 0.397475 0.397684 
0.397811 0.397882 0.397914 0.397914 0.397883 0.397812 0.397685 0.397476 0.397149 
0.396658 0.395943 0.394937 0.39356 0.391727 0.389354 0.386358 0.382665 0.378216 
0.378343 0.382784 0.386461 0.389435 0.39178 0.393582 0.394929 0.395908 0.396597 
0.397067 0.397376 0.397571 0.397689 0.397754 0.397782 0.397782 0.397754 0.397689 
0.397572 0.397377 0.397067 0.396598 0.395909 0.394931 0.393584 0.391782 0.389436 
0.386463 0.382786 0.378345 0.378476 0.382909 0.386569 0.389519 0.391835 0.393607 
0.394923 0.395872 0.396535 0.396983 0.397275 0.397457 0.397565 0.397624 0.397649 
0.397649 0.397624 0.397565 0.397457 0.397276 0.396984 0.396536 0.395873 0.394924 
0.393608 0.391837 0.38952 0.386571 0.38291 0.378477 0.378613 0.383037 0.38668 
0.389605 0.391892 0.393631 0.394916 0.395835 0.396472 0.396898 0.397172 0.397341 
0.397439 0.397492 0.397515 0.397515 0.397492 0.39744 0.397341 0.397173 0.396899 
0.396473 0.395836 0.394917 0.393632 0.391893 0.389606 0.386681 0.383038 0.378614 
0.378753 0.383169 0.386793 0.389692 0.391949 0.393655 0.394907 0.395797 0.396408 
0.396811 0.397068 0.397223 0.397312 0.397359 0.397379 0.397379 0.397359 0.397312 
0.397224 0.397068 0.396812 0.396408 0.395798 0.394908 0.393656 0.39195 0.389693 
0.386794 0.38317 0.378754 0.378898 0.383304 0.38691 0.389782 0.392007 0.39368 
0.394898 0.395757 0.396341 0.396723 0.396962 0.397104 0.397184 0.397225 0.397242 
0.397242 0.397225 0.397184 0.397104 0.396962 0.396723 0.396342 0.395758 0.394899 
0.393681 0.392008 0.389783 0.386911 0.383305 0.378899 0.379047 0.383444 0.387029 
0.389874 0.392066 0.393704 0.394888 0.395716 0.396273 0.396632 0.396853 0.396983 
0.397053 0.397089 0.397103 0.397103 0.397089 0.397054 0.396983 0.396854 0.396633 
0.396273 0.395717 0.394889 0.393705 0.392067 0.389875 0.38703 0.383445 0.379048 
0.3792 0.383587 0.387152 0.389968 0.392126 0.393728 0.394877 0.395673 0.396202 
0.396539 0.396743 0.39686 0.396922 0.396952 0.396963 0.396963 0.396952 0.396922 
0.39686 0.396744 0.39654 0.396203 0.395674 0.394878 0.393728 0.392126 0.389968 
0.387153 0.383588 0.379201 0.379358 0.383735 0.387278 0.390064 0.392186 0.393751 
0.394865 0.395628 0.39613 0.396445 0.396632 0.396735 0.396789 0.396813 0.396822 
0.396822 0.396813 0.396789 0.396736 0.396632 0.396445 0.396131 0.395629 0.394866 
0.393752 0.392187 0.390064 0.387279 0.383736 0.379359 0.379521 0.383887 0.387407 
0.390161 0.392247 0.393774 0.394851 0.395582 0.396056 0.396348 0.396518 0.396609 
0.396654 0.396674 0.39668 0.39668 0.396674 0.396654 0.39661 0.396518 0.396348 
0.396056 0.395582 0.394852 0.393775 0.392248 0.390162 0.387408 0.383888 0.379522 
0.379689 0.384044 0.38754 0.390262 0.392309 0.393797 0.394836 0.395533 0.395979 
0.396249 0.396402 0.396481 0.396518 0.396533 0.396537 0.396537 0.396533 0.396518 
0.396482 0.396402 0.396249 0.395979 0.395533 0.394837 0.393797 0.39231 0.390262 
0.387541 0.384044 0.37969 0.379863 0.384205 0.387677 0.390364 0.392372 0.393818 
0.394819 0.395482 0.3959 0.396148 0.396284 0.396352 0.396381 0.39639 0.396393 
0.396393 0.396391 0.396381 0.396352 0.396284 0.396148 0.3959 0.395483 0.39482 
0.393819 0.392372 0.390364 0.387677 0.384205 0.379863 0.380042 0.384371 0.387817 
0.390468 0.392435 0.393839 0.394801 0.395429 0.395818 0.396044 0.396164 0.396221 
0.396242 0.396247 0.396247 0.396247 0.396247 0.396242 0.396221 0.396165 0.396045 
0.395819 0.39543 0.394801 0.39384 0.392435 0.390468 0.387817 0.384372 0.380042 
0.380227 0.384543 0.387961 0.390574 0.392499 0.393859 0.39478 0.395374 0.395735 
0.395938 0.396042 0.396088 0.396102 0.396103 0.396101 0.396101 0.396103 0.396102 
0.396088 0.396043 0.395939 0.395735 0.395374 0.394781 0.39386 0.392499 0.390575 
0.387961 0.384543 0.380227 0.380418 0.38472 0.388109 0.390683 0.392562 0.393878 
0.394758 0.395316 0.395648 0.39583 0.395919 0.395953 0.39596 0.395957 0.395953 
0.395953 0.395957 0.39596 0.395953 0.395919 0.39583 0.395648 0.395316 0.394758 
0.393879 0.392563 0.390683 0.388109 0.38472 0.380418 0.380616 0.384902 0.388261 
0.390793 0.392626 0.393896 0.394733 0.395255 0.395559 0.395719 0.395793 0.395817 
0.395818 0.395811 0.395805 0.395805 0.395811 0.395818 0.395817 0.395793 0.39572 
0.395559 0.395255 0.394733 0.393896 0.392627 0.390793 0.388261 0.384902 0.380616 
0.38082 0.385091 0.388417 0.390906 0.39269 0.393912 0.394705 0.395191 0.395466 
0.395606 0.395665 0.395679 0.395674 0.395663 0.395656 0.395656 0.395663 0.395674 
0.395679 0.395665 0.395606 0.395467 0.395191 0.394706 0.393912 0.392691 0.390906 
0.388417 0.385091 0.380821 0.381032 0.385285 0.388577 0.39102 0.392754 0.393926 
0.394675 0.395124 0.395371 0.39549 0.395535 0.39554 0.395529 0.395515 0.395507 