# vtk DataFile Version 5.1
vtk output
ASCII
DATASET UNSTRUCTURED_GRID
POINTS 9424 double
0.1016 1.5 0 0.1016 1.45 5.1584879698e-20 0.1016 1.4 8.2585350466e-20 
0.1016 1.35 0 0.1016 1.3 0 0.1016 1.25 7.633537409e-20 
0.1016 1.2 -1.0472138867e-19 0.1016 1.15 -1.0474616531e-19 0.1016 1.1 0 
0.1016 1.05 0 0.1016 1 7.6430874677e-20 0.1016 0.95 -1.047413444e-19 
0.1016 0.9 7.6430971612e-20 0.1016 0.85 1.9900855048e-18 0.1016 0.8 -1.0474130562e-19 
0.1016 0.75 7.6430325377e-20 0.1016 0.7 2.0948253887e-18 0.1016 0.65 0 
0.1016 0.6 1.9900857116e-18 0.1016 0.55 0 0.1016 0.5 -1.0474154473e-19 
0.1016 0.45 0 0.1016 0.4 -1.0474482114e-19 0.1016 0.35 0 
0.1016 0.3 0 0.1016 0.25 0 0.1016 0.2 7.5297934506e-20 
0.1016 0.15 -9.0429310344e-20 0.1016 0.1 -9.209014038e-20 0.1016 0.05 -7.6045124168e-20 
0.1016 0 0 5.08 1.5 0.28700000048 5.08 1.45 0.28700000048 
5.08 1.4 0.28700000048 5.08 1.35 0.28700000048 5.08 1.3 0.28700000048 
5.08 1.25 0.28700000048 5.08 1.2 0.28700000048 5.08 1.15 0.28700000048 
5.08 1.1 0.28700000048 5.08 1.05 0.28700000048 5.08 1 0.28700000048 
5.08 0.95 0.28700000048 5.08 0.9 0.28700000048 5.08 0.85 0.28700000048 
5.08 0.8 0.28700000048 5.08 0.75 0.28700000048 5.08 0.7 0.28700000048 
5.08 0.65 0.28700000048 5.08 0.6 0.28700000048 5.08 0.55 0.28700000048 
5.08 0.5 0.28700000048 5.08 0.45 0.28700000048 5.08 0.4 0.28700000048 
5.08 0.35 0.28700000048 5.08 0.3 0.28700000048 5.08 0.25 0.28700000048 
5.08 0.2 0.28700000048 5.08 0.15 0.28700000048 5.08 0.1 0.28700000048 
5.08 0.05 0.28700000048 5.08 0 0.28700000048 0.151384 1.5 0.02146493271 
0.151384 1.45 0.021448900923 0.151384 1.4 0.021452795714 0.151384 1.35 0.021451983601 
0.151384 1.3 0.021452168003 0.151384 1.25 0.021452125162 0.151384 1.2 0.021452134475 
0.151384 1.15 0.021452132612 0.151384 1.1 0.021452134475 0.151384 1.05 0.021452132612 
0.151384 1 0.021452134475 0.151384 0.95 0.021452132612 0.151384 0.9 0.021452132612 
0.151384 0.85 0.021452132612 0.151384 0.8 0.021452132612 0.151384 0.75 0.021452134475 
0.151384 0.7 0.021452134475 0.151384 0.65 0.021452134475 0.151384 0.6 0.021452134475 
0.151384 0.55 0.021452134475 0.151384 0.5 0.021452134475 0.151384 0.45 0.021452132612 
0.151384 0.4 0.021452134475 0.151384 0.35 0.021452132612 0.151384 0.3 0.021452134475 
0.151384 0.25 0.021452127025 0.151384 0.2 0.021452162415 0.151384 0.15 0.02145200409 
0.151384 0.1 0.021452706307 0.151384 0.05 0.02144934237 0.151384 0 0.021464604884 
0.201168 1.5 0.04984471947 0.201168 1.45 0.049860715866 0.201168 1.4 0.04986718297 
0.201168 1.35 0.049865700305 0.201168 1.3 0.049866013229 0.201168 1.25 0.049865946174 
0.201168 1.2 0.049865961075 0.201168 1.15 0.04986595735 0.201168 1.1 0.04986595735 
0.201168 1.05 0.04986595735 0.201168 1 0.04986595735 0.201168 0.95 0.04986595735 
0.201168 0.9 0.04986595735 0.201168 0.85 0.04986595735 0.201168 0.8 0.04986595735 
0.201168 0.75 0.04986595735 0.201168 0.7 0.04986595735 0.201168 0.65 0.04986595735 
0.201168 0.6 0.04986595735 0.201168 0.55 0.04986595735 0.201168 0.5 0.04986595735 
0.201168 0.45 0.04986595735 0.201168 0.4 0.04986595735 0.201168 0.35 0.04986595735 
0.201168 0.3 0.049865961075 0.201168 0.25 0.049865946174 0.201168 0.2 0.049866005778 
0.201168 0.15 0.049865730107 0.201168 0.1 0.049867045134 0.201168 0.05 0.049861267209 
0.201168 0 0.049844291061 0.250952 1.5 0.083479054272 0.250952 1.45 0.083398230374 
0.250952 1.4 0.083408355713 0.250952 1.35 0.083406820893 0.250952 1.3 0.083407111466 
0.250952 1.25 0.083407051861 0.250952 1.2 0.083407066762 0.250952 1.15 0.083407066762 
0.250952 1.1 0.083407066762 0.250952 1.05 0.083407066762 0.250952 1 0.083407066762 
0.250952 0.95 0.083407066762 0.250952 0.9 0.083407066762 0.250952 0.85 0.083407066762 
0.250952 0.8 0.083407066762 0.250952 0.75 0.083407066762 0.250952 0.7 0.083407066762 
0.250952 0.65 0.083407066762 0.250952 0.6 0.083407066762 0.250952 0.55 0.083407066762 
0.250952 0.5 0.083407066762 0.250952 0.45 0.083407066762 0.250952 0.4 0.083407066762 
0.250952 0.35 0.083407066762 0.250952 0.3 0.083407066762 0.250952 0.25 0.083407059312 
0.250952 0.2 0.083407104015 0.250952 0.15 0.083406858146 0.250952 0.1 0.083408199251 
0.250952 0.05 0.083398923278 0.250952 0 0.083478525281 0.300736 1.5 0.14716693759 
0.300736 1.45 0.14724357426 0.300736 1.4 0.14723330736 0.300736 1.35 0.14723455906 
0.300736 1.3 0.14723439515 0.300736 1.25 0.14723441005 0.300736 1.2 0.14723441005 
0.300736 1.15 0.14723441005 0.300736 1.1 0.14723441005 0.300736 1.05 0.14723441005 
0.300736 1 0.14723441005 0.300736 0.95 0.14723441005 0.300736 0.9 0.14723441005 
0.300736 0.85 0.14723441005 0.300736 0.8 0.14723441005 0.300736 0.75 0.14723441005 
0.300736 0.7 0.14723441005 0.300736 0.65 0.14723441005 0.300736 0.6 0.14723441005 
0.300736 0.55 0.14723441005 0.300736 0.5 0.14723441005 0.300736 0.45 0.14723441005 
0.300736 0.4 0.14723441005 0.300736 0.35 0.14723441005 0.300736 0.3 0.14723441005 
0.300736 0.25 0.14723441005 0.300736 0.2 0.14723438025 0.300736 0.15 0.14723460376 
0.300736 0.1 0.14723312855 0.300736 0.05 0.14724433422 0.300736 0 0.14716635644 
0.35052 1.5 0.15515324473 0.35052 1.45 0.15522770584 0.35052 1.4 0.15521581471 
0.35052 1.35 0.15521745384 0.35052 1.3 0.15521720052 0.35052 1.25 0.15521724522 
0.35052 1.2 0.15521723032 0.35052 1.15 0.15521723032 0.35052 1.1 0.15521723032 
0.35052 1.05 0.15521723032 0.35052 1 0.15521723032 0.35052 0.95 0.15521723032 
0.35052 0.9 0.15521723032 0.35052 0.85 0.15521723032 0.35052 0.8 0.15521723032 
0.35052 0.75 0.15521723032 0.35052 0.7 0.15521723032 0.35052 0.65 0.15521723032 
0.35052 0.6 0.15521723032 0.35052 0.55 0.15521723032 0.35052 0.5 0.15521723032 
0.35052 0.45 0.15521723032 0.35052 0.4 0.15521723032 0.35052 0.35 0.15521723032 
0.35052 0.3 0.15521723032 0.35052 0.25 0.15521724522 0.35052 0.2 0.15521720052 
0.35052 0.15 0.15521749854 0.35052 0.1 0.1552156359 0.35052 0.05 0.1552284956 
0.35052 0 0.15515261889 0.400304 1.5 0.18852005899 0.400304 1.45 0.18836417794 
0.400304 1.4 0.18838000298 0.400304 1.35 0.18837818503 0.400304 1.3 0.18837840855 
0.400304 1.25 0.18837839365 0.400304 1.2 0.18837839365 0.400304 1.15 0.18837839365 
0.400304 1.1 0.18837839365 0.400304 1.05 0.18837839365 0.400304 1 0.18837839365 
0.400304 0.95 0.18837839365 0.400304 0.9 0.18837839365 0.400304 0.85 0.18837839365 
0.400304 0.8 0.18837839365 0.400304 0.75 0.18837839365 0.400304 0.7 0.18837839365 
0.400304 0.65 0.18837839365 0.400304 0.6 0.18837839365 0.400304 0.55 0.18837839365 
0.400304 0.5 0.18837839365 0.400304 0.45 0.18837839365 0.400304 0.4 0.18837839365 
0.400304 0.35 0.18837839365 0.400304 0.3 0.18837839365 0.400304 0.25 0.18837839365 
0.400304 0.2 0.18837839365 0.400304 0.15 0.18837822974 0.400304 0.1 0.18837982416 
0.400304 0.05 0.18836499751 0.400304 0 0.18851940334 0.450088 1.5 0.22610981762 
0.450088 1.45 0.22619141638 0.450088 1.4 0.22619566321 0.450088 1.35 0.22619527578 
0.450088 1.3 0.22619529068 0.450088 1.25 0.22619530559 0.450088 1.2 0.22619529068 
0.450088 1.15 0.22619529068 0.450088 1.1 0.22619529068 0.450088 1.05 0.22619529068 
0.450088 1 0.22619529068 0.450088 0.95 0.22619529068 0.450088 0.9 0.22619529068 
0.450088 0.85 0.22619529068 0.450088 0.8 0.22619529068 0.450088 0.75 0.22619529068 
0.450088 0.7 0.22619529068 0.450088 0.65 0.22619529068 0.450088 0.6 0.22619529068 
0.450088 0.55 0.22619529068 0.450088 0.5 0.22619529068 0.450088 0.45 0.22619529068 
0.450088 0.4 0.22619529068 0.450088 0.35 0.22619530559 0.450088 0.3 0.22619529068 
0.450088 0.25 0.22619530559 0.450088 0.2 0.22619527578 0.450088 0.15 0.22619532049 
0.450088 0.1 0.2261954695 0.450088 0.05 0.22619225085 0.450088 0 0.22610916197 
0.499872 1.5 0.260286659 0.499872 1.45 0.26024150848 0.499872 1.4 0.26022011042 
0.499872 1.35 0.26022422314 0.499872 1.3 0.26022326946 0.499872 1.25 0.26022350788 
0.499872 1.2 0.26022344828 0.499872 1.15 0.26022347808 0.499872 1.1 0.26022344828 
0.499872 1.05 0.26022344828 0.499872 1 0.26022344828 0.499872 0.95 0.26022344828 
0.499872 0.9 0.26022344828 0.499872 0.85 0.26022344828 0.499872 0.8 0.26022344828 
0.499872 0.75 0.26022344828 0.499872 0.7 0.26022344828 0.499872 0.65 0.26022344828 
0.499872 0.6 0.26022344828 0.499872 0.55 0.26022344828 0.499872 0.5 0.26022344828 
0.499872 0.45 0.26022344828 0.499872 0.4 0.26022344828 0.499872 0.35 0.26022347808 
0.499872 0.3 0.26022344828 0.499872 0.25 0.26022350788 0.499872 0.2 0.26022326946 
0.499872 0.15 0.26022425294 0.499872 0.1 0.2602199018 0.499872 0.05 0.26024246216 
0.499872 0 0.26028591394 0.549656 1.5 0.28591999412 0.549656 1.45 0.28591999412 
0.549656 1.4 0.28591999412 0.549656 1.35 0.28591999412 0.549656 1.3 0.28591999412 
0.549656 1.25 0.28591999412 0.549656 1.2 0.28591999412 0.549656 1.15 0.28591999412 
0.549656 1.1 0.28591999412 0.549656 1.05 0.28591999412 0.549656 1 0.28591999412 
0.549656 0.95 0.28591999412 0.549656 0.9 0.28591999412 0.549656 0.85 0.28591999412 
0.549656 0.8 0.28591999412 0.549656 0.75 0.28591999412 0.549656 0.7 0.28591999412 
0.549656 0.65 0.28591999412 0.549656 0.6 0.28591999412 0.549656 0.55 0.28591999412 
0.549656 0.5 0.28591999412 0.549656 0.45 0.28591999412 0.549656 0.4 0.28591999412 
0.549656 0.35 0.28591999412 0.549656 0.3 0.28591999412 0.549656 0.25 0.28591999412 
0.549656 0.2 0.28591999412 0.549656 0.15 0.28591999412 0.549656 0.1 0.28591999412 
0.549656 0.05 0.28591999412 0.549656 0 0.28591999412 0.59944 1.5 0.28700000048 
0.59944 1.45 0.28700000048 0.59944 1.4 0.28700000048 0.59944 1.35 0.28700000048 
0.59944 1.3 0.28700000048 0.59944 1.25 0.28700000048 0.59944 1.2 0.28700000048 
0.59944 1.15 0.28700000048 0.59944 1.1 0.28700000048 0.59944 1.05 0.28700000048 
0.59944 1 0.28700000048 0.59944 0.95 0.28700000048 0.59944 0.9 0.28700000048 
0.59944 0.85 0.28700000048 0.59944 0.8 0.28700000048 0.59944 0.75 0.28700000048 
0.59944 0.7 0.28700000048 0.59944 0.65 0.28700000048 0.59944 0.6 0.28700000048 
0.59944 0.55 0.28700000048 0.59944 0.5 0.28700000048 0.59944 0.45 0.28700000048 
0.59944 0.4 0.28700000048 0.59944 0.35 0.28700000048 0.59944 0.3 0.28700000048 
[...]
CELL_DATA 9090
FIELD FieldData 7
B_Stress_n_p_m2 1 9090 float
0.194831 0.194914 0.193572 0.19285 0.192614 0.192565 0.192591 0.192644 0.192704 
0.192761 0.192808 0.192847 0.192883 0.19292 0.192954 0.19298 0.192999 0.193013 
0.193025 0.193035 0.193039 0.193027 0.192996 0.192949 0.192913 0.192946 0.193171 
0.193889 0.195235 0.195162 0.121608 0.124605 0.124459 0.124279 0.124334 0.124492 
0.124686 0.124868 0.125018 0.125133 0.125217 0.125276 0.125318 0.125347 0.125366 
0.125376 0.125379 0.125374 0.125358 0.125325 0.125265 0.125171 0.125035 0.124859 
0.124667 0.124507 0.124449 0.124629 0.124779 0.121785 0.137347 0.141533 0.142674 
0.143225 0.143738 0.144226 0.144669 0.145042 0.145335 0.145552 0.145707 0.145812 
0.145881 0.145924 0.145948 0.145961 0.14596 0.145942 0.145897 0.145815 0.145682 
0.145483 0.145203 0.144838 0.144399 0.143912 0.143398 0.142846 0.141704 0.137513 
0.170629 0.173872 0.175256 0.17627 0.177191 0.178024 0.178749 0.179345 0.17981 
0.180159 0.180411 0.180587 0.180705 0.180779 0.180821 0.180834 0.18082 0.180772 
0.180679 0.180528 0.180298 0.179969 0.179518 0.178932 0.178213 0.177383 0.176463 
0.175449 0.174067 0.1708 0.193891 0.196819 0.198028 0.199193 0.200401 0.20153 
0.202509 0.20331 0.203937 0.204411 0.204759 0.205007 0.205177 0.205284 0.205342 
0.205355 0.205323 0.205241 0.205096 0.204872 0.204545 0.204089 0.203477 0.202687 
0.201716 0.200592 0.199387 0.198224 0.197021 0.194116 0.222606 0.225205 0.226167 
0.227502 0.229029 0.230481 0.231735 0.232759 0.233565 0.234181 0.23464 0.234972 
0.235201 0.235348 0.235424 0.235436 0.235385 0.235264 0.235058 0.23475 0.234311 
0.233713 0.232923 0.231911 0.230666 0.229219 0.227696 0.226363 0.225396 0.222819 
0.275064 0.275061 0.276154 0.278148 0.280243 0.282172 0.283814 0.285151 0.286209 
0.287026 0.287642 0.288093 0.288408 0.28861 0.288714 0.288727 0.28865 0.288474 
0.288185 0.287758 0.287163 0.286365 0.285324 0.284001 0.282369 0.280448 0.278359 
0.276369 0.275283 0.275242 0.339136 0.335267 0.337011 0.340006 0.342786 0.345237 
0.3473 0.348978 0.350314 0.351357 0.352152 0.35274 0.353154 0.35342 0.353556 
0.353571 0.353463 0.353225 0.352837 0.352275 0.351503 0.350482 0.349164 0.347501 
0.34545 0.343008 0.340236 0.337244 0.33551 0.33941 0.388143 0.382838 0.385442 
0.389148 0.39237 0.395153 0.397489 0.3994 0.400935 0.402143 0.403072 0.403765 
0.404256 0.404573 0.404734 0.404749 0.404617 0.404328 0.403864 0.403197 0.402291 
0.401104 0.399589 0.397693 0.39537 0.392597 0.389382 0.38568 0.383068 0.388369 
0.401896 0.399101 0.402172 0.405882 0.409105 0.411895 0.414254 0.416203 0.417781 
0.419034 0.420005 0.420733 0.421252 0.421588 0.421758 0.421771 0.421628 0.421318 
0.420825 0.42012 0.419171 0.417939 0.416378 0.414445 0.412098 0.409318 0.406103 
0.402397 0.39933 0.402126 0.397488 0.398654 0.401907 0.405336 0.408387 0.411052 
0.413325 0.415218 0.416763 0.417997 0.418959 0.419683 0.420201 0.420536 0.420706 
0.420718 0.420572 0.42026 0.419764 0.419061 0.41812 0.416904 0.415375 0.413496 
0.411235 0.408579 0.405535 0.40211 0.398861 0.397697 0.394761 0.398438 0.401975 
0.405305 0.408275 0.410867 0.413081 0.414932 0.416448 0.417663 0.418613 0.419331 
0.419845 0.420178 0.420346 0.420356 0.42021 0.419897 0.419403 0.418705 0.417773 
0.416574 0.415072 0.413234 0.411031 0.408448 0.405485 0.402159 0.398624 0.394947 
0.39375 0.398304 0.402133 0.405523 0.408498 0.41107 0.413256 0.415082 0.416578 
0.417779 0.418718 0.419428 0.419937 0.420267 0.420433 0.420443 0.420296 0.419985 
0.419494 0.4188 0.417877 0.416691 0.415209 0.413394 0.411218 0.408654 0.405685 
0.4023 0.398472 0.393917 0.393268 0.398069 0.402098 0.405582 0.408595 0.411174 
0.413353 0.415166 0.416649 0.417837 0.418767 0.41947 0.419974 0.4203 0.420463 
0.420472 0.420325 0.420016 0.419528 0.418841 0.417926 0.41675 0.41528 0.413477 
0.411307 0.408735 0.405729 0.402248 0.398221 0.393418 0.393013 0.397876 0.402017 
0.405576 0.408628 0.411224 0.413404 0.415212 0.416686 0.417866 0.418787 0.419483 
0.419981 0.420304 0.420465 0.420472 0.420327 0.420019 0.419536 0.418854 0.417945 
0.416778 0.415314 0.413516 0.411343 0.408755 0.405708 0.402152 0.398013 0.393148 
0.392873 0.39775 0.401948 0.405556 0.40864 0.411251 0.413436 0.415242 0.41671 
0.417883 0.418797 0.419486 0.419979 0.420297 0.420456 0.420463 0.420318 0.420013 
0.419533 0.418856 0.417954 0.416793 0.415334 0.413537 0.411359 0.408754 0.405675 
0.40207 0.397873 0.392995 0.392793 0.397673 0.4019 0.405537 0.408641 0.411264 
0.413454 0.415258 0.416722 0.417888 0.418795 0.419478 0.419965 0.42028 0.420436 
0.420442 0.420298 0.419996 0.41952 0.418848 0.417952 0.416795 0.415341 0.413544 
0.411361 0.408744 0.405644 0.402009 0.397784 0.392903 0.39275 0.397629 0.40187 
0.405524 0.408641 0.41127 0.413461 0.415263 0.416722 0.417882 0.418783 0.419459 
0.419941 0.420252 0.420406 0.420412 0.420269 0.419969 0.419497 0.418831 0.41794 
0.416789 0.415338 0.413543 0.411358 0.408733 0.40562 0.401969 0.397729 0.392849 
0.392731 0.397609 0.401856 0.405518 0.408641 0.411273 0.413463 0.415261 0.416714 
0.417867 0.418761 0.419431 0.419908 0.420215 0.420366 0.420372 0.42023 0.419933 
0.419466 0.418804 0.417919 0.416774 0.415328 0.413537 0.411352 0.408724 0.405605 
0.401945 0.397699 0.392821 0.392731 0.397606 0.401855 0.40552 0.408644 0.411274 
0.413461 0.415254 0.4167 0.417846 0.418732 0.419396 0.419867 0.420169 0.420319 
0.420323 0.420183 0.419889 0.419426 0.418771 0.417892 0.416754 0.415314 0.413528 
0.411346 0.408719 0.405598 0.401936 0.397687 0.392811 0.392743 0.397616 0.401865 
0.405528 0.40865 0.411276 0.413458 0.415243 0.416681 0.417818 0.418696 0.419353 
0.419818 0.420116 0.420263 0.420267 0.420128 0.419838 0.41938 0.418731 0.41786 
0.416729 0.415297 0.413517 0.41134 0.408717 0.405598 0.401937 0.397689 0.392816 
0.392766 0.397636 0.401882 0.405542 0.408659 0.411279 0.413453 0.415229 0.416658 
0.417785 0.418655 0.419304 0.419763 0.420057 0.420202 0.420205 0.420068 0.419781 
0.419329 0.418687 0.417823 0.416701 0.415278 0.413506 0.411337 0.40872 0.405606 
0.401947 0.397702 0.392831 0.392797 0.397664 0.401907 0.405561 0.408671 0.411283 
0.413447 0.415213 0.416631 0.417749 0.418609 0.41925 0.419703 0.419992 0.420134 
0.420137 0.420002 0.419719 0.419272 0.418638 0.417783 0.416671 0.415257 0.413495 
0.411335 0.408726 0.405618 0.401965 0.397724 0.392855 0.392834 0.397699 0.401936 
0.405585 0.408686 0.411289 0.413441 0.415196 0.416603 0.417709 0.418559 0.419191 
0.419637 0.419922 0.420061 0.420064 0.419931 0.419652 0.419212 0.418585 0.41774 
0.416638 0.415236 0.413485 0.411335 0.408736 0.405636 0.401989 0.397752 0.392887 
0.392877 0.397739 0.401971 0.405612 0.408704 0.411295 0.413436 0.415178 0.416572 
0.417667 0.418506 0.419129 0.419568 0.419847 0.419984 0.419987 0.419855 0.419581 
0.419147 0.418529 0.417694 0.416604 0.415214 0.413475 0.411337 0.408748 0.405658 
0.402019 0.397787 0.392924 0.392924 0.397783 0.402009 0.405642 0.408724 0.411303 
0.413431 0.415159 0.41654 0.417622 0.41845 0.419063 0.419495 0.419769 0.419903 
0.419905 0.419776 0.419506 0.41908 0.418471 0.417647 0.416568 0.415191 0.413466 
0.411341 0.408764 0.405684 0.402052 0.397826 0.392967 0.392975 0.397831 0.402051 
0.405675 0.408745 0.411312 0.413425 0.415139 0.416506 0.417575 0.418391 0.418995 
0.419418 0.419687 0.419818 0.41982 0.419693 0.419429 0.419009 0.41841 0.417597 
0.416532 0.415168 0.413457 0.411346 0.408782 0.405713 0.40209 0.39787 0.393014 
0.39303 0.397882 0.402096 0.40571 0.408769 0.411322 0.41342 0.415119 0.416471 
0.417526 0.41833 0.418923 0.419339 0.419602 0.41973 0.419732 0.419608 0.419348 
0.418937 0.418347 0.417547 0.416495 0.415145 0.413449 0.411352 0.408801 0.405744 
0.402131 0.397917 0.393065 0.393088 0.397936 0.402144 0.405748 0.408794 0.411332 
0.413416 0.415099 0.416435 0.417476 0.418267 0.41885 0.419257 0.419514 0.419639 
0.419641 0.419519 0.419265 0.418862 0.418283 0.417494 0.416456 0.415122 0.413441 
0.41136 0.408823 0.405778 0.402175 0.397968 0.393119 0.393148 0.397993 0.402194 
0.405787 0.408821 0.411344 0.413411 0.415078 0.416399 0.417424 0.418203 0.418774 
0.419172 0.419424 0.419546 0.419547 0.419428 0.41918 0.418785 0.418216 0.417441 
0.416417 0.415099 0.413434 0.411369 0.408847 0.405815 0.402222 0.398022 0.393176 
0.393211 0.398053 0.402246 0.405829 0.408848 0.411356 0.413407 0.415057 0.416361 
0.417371 0.418136 0.418696 0.419086 0.419331 0.41945 0.419451 0.419335 0.419093 
0.418706 0.418148 0.417386 0.416378 0.415076 0.413428 0.411379 0.408872 0.405853 
0.402271 0.398079 0.393237 0.393277 0.398115 0.4023 0.405872 0.408877 0.411369 
0.413403 0.415035 0.416322 0.417317 0.418068 0.418616 0.418997 0.419236 0.419352 
0.419353 0.41924 0.419003 0.418625 0.418079 0.41733 0.416337 0.415052 0.413421 
0.411389 0.408899 0.405894 0.402323 0.398138 0.3933 0.393345 0.398179 0.402356 
0.405917 0.408908 0.411383 0.413399 0.415013 0.416283 0.417262 0.417998 0.418535 
0.418906 0.419139 0.419252 0.419253 0.419143 0.418912 0.418543 0.418008 0.417274 
0.416297 0.415028 0.413416 0.411401 0.408927 0.405937 0.402377 0.3982 0.393365 
0.393415 0.398245 0.402414 0.405963 0.408939 0.411397 0.413395 0.414991 0.416243 
0.417205 0.417927 0.418452 0.418814 0.419041 0.41915 0.419151 0.419044 0.418819 
0.418459 0.417936 0.417216 0.416255 0.415005 0.41341 0.411414 0.408956 0.405981 
0.402433 0.398264 0.393433 0.393487 0.398314 0.402474 0.406011 0.408971 0.411412 
0.413391 0.414968 0.416202 0.417147 0.417855 0.418367 0.41872 0.41894 0.419046 
0.419047 0.418943 0.418724 0.418373 0.417863 0.417157 0.416213 0.414981 0.413405 
0.411427 0.408987 0.406027 0.402491 0.39833 0.393504 0.393561 0.398384 0.402536 
0.40606 0.409005 0.411427 0.413387 0.414945 0.41616 0.417089 0.417781 0.418281 
0.418624 0.418838 0.418941 0.418941 0.41884 0.418628 0.418287 0.417788 0.417097 
0.41617 0.414956 0.4134 0.411441 0.409019 0.406074 0.402551 0.398399 0.393577 
0.393638 0.398456 0.4026 0.40611 0.409039 0.411443 0.413384 0.414922 0.416118 
0.417029 0.417706 0.418193 0.418527 0.418734 0.418833 0.418834 0.418736 0.41853 
0.418198 0.417712 0.417037 0.416127 0.414932 0.413395 0.411455 0.409052 0.406124 
0.402613 0.39847 0.393652 0.393717 0.398531 0.402665 0.406163 0.409075 0.41146 
0.41338 0.414898 0.416075 0.416968 0.41763 0.418104 0.418428 0.418628 0.418724 
0.418725 0.41863 0.418431 0.418109 0.417635 0.416975 0.416083 0.414907 0.41339 
0.411471 0.409086 0.406174 0.402677 0.398543 0.393729 0.393798 0.398608 0.402732 
0.406216 0.409111 0.411477 0.413376 0.414874 0.416031 0.416906 0.417552 0.418013 
0.418327 0.418521 0.418614 0.418614 0.418523 0.41833 0.418018 0.417557 0.416912 
0.416038 0.414882 0.413385 0.411487 0.409121 0.406227 0.402743 0.398619 0.393809 
0.393881 0.398686 0.402801 0.406271 0.409149 0.411495 0.413373 0.414849 0.415986 
0.416843 0.417473 0.417921 0.418225 0.418412 0.418501 0.418502 0.418414 0.418228 
0.417925 0.417478 0.416849 0.415992 0.414856 0.413381 0.411503 0.409158 0.406281 
0.402811 0.398696 0.393891 0.393967 0.398767 0.402872 0.406327 0.409187 0.411513 
0.413369 0.414824 0.41594 0.416779 0.417393 0.417828 0.418122 0.418302 0.418388 
0.418388 0.418303 0.418124 0.417831 0.417397 0.416784 0.415946 0.414831 0.413377 
0.41152 0.409195 0.406336 0.402881 0.398776 0.393976 0.394054 0.39885 0.402945 
0.406385 0.409226 0.411531 0.413366 0.414798 0.415894 0.416713 0.417311 0.417733 
0.418016 0.41819 0.418272 0.418273 0.418191 0.418019 0.417736 0.417315 0.416718 
0.415899 0.414804 0.413372 0.411538 0.409234 0.406393 0.402953 0.398858 0.394062 
0.394145 0.398935 0.40302 0.406445 0.409267 0.41155 0.413362 0.414772 0.415847 
0.416647 0.417228 0.417636 0.41791 0.418076 0.418155 0.418156 0.418078 0.417912 
0.417639 0.417232 0.416651 0.415852 0.414778 0.413368 0.411556 0.409274 0.406452 
0.403027 0.398943 0.394152 0.394237 0.399023 0.403096 0.406506 0.409308 0.411569 
0.413359 0.414746 0.415799 0.41658 0.417144 0.417539 0.417802 0.417961 0.418037 
0.418037 0.417963 0.417803 0.417541 0.417147 0.416583 0.415803 0.414751 0.413364 
0.411575 0.409314 0.406512 0.403103 0.399029 0.394244 0.394332 0.399113 0.403175 
0.406568 0.40935 0.411589 0.413355 0.414719 0.41575 0.416511 0.417058 0.417439 
0.417692 0.417845 0.417917 0.417917 0.417846 0.417694 0.417441 0.417061 0.416514 
0.415754 0.414723 0.41336 0.411594 0.409356 0.406574 0.403181 0.399119 0.394338 
0.39443 0.399205 0.403256 0.406632 0.409394 0.411609 0.413351 0.414691 0.4157 
0.416441 0.416971 0.417338 0.417581 0.417727 0.417795 0.417796 0.417728 0.417582 
0.41734 0.416974 0.416444 0.415703 0.414695 0.413355 0.411614 0.409399 0.406637 
0.403261 0.39921 0.394435 0.39453 0.399299 0.403338 0.406697 0.409438 0.41163 
0.413347 0.414663 0.415649 0.41637 0.416883 0.417236 0.417468 0.417607 0.417672 
0.417673 0.417608 0.417469 0.417238 0.416885 0.416373 0.415652 0.414667 0.413351 
0.411634 0.409443 0.406702 0.403343 0.399304 0.394534 0.394632 0.399396 0.403423 
0.406764 0.409483 0.411651 0.413343 0.414634 0.415597 0.416297 0.416793 0.417132 
0.417354 0.417486 0.417548 0.417548 0.417487 0.417355 0.417134 0.416795 0.4163 
0.4156 0.414637 0.413346 0.411655 0.409487 0.406769 0.403427 0.399401 0.394637 
0.394738 0.399496 0.40351 0.406833 0.40953 0.411673 0.413339 0.414605 0.415544 
0.416224 0.416702 0.417027 0.417238 0.417363 0.417422 0.417422 0.417364 0.417239 
0.417029 0.416704 0.416226 0.415547 0.414607 0.413342 0.411676 0.409533 0.406837 
0.403514 0.3995 0.394742 0.394846 0.399598 0.403599 0.406904 0.409577 0.411694 
0.413334 0.414574 0.41549 0.416149 0.416609 0.41692 0.417121 0.417239 0.417294 
0.417294 0.41724 0.417122 0.416922 0.416611 0.416151 0.415492 0.414577 0.413337 
0.411697 0.40958 0.406907 0.403603 0.399602 0.39485 0.394957 0.399703 0.403691 
0.406976 0.409626 0.411717 0.413329 0.414543 0.415435 0.416072 0.416515 0.416812 
0.417002 0.417114 0.417165 0.417165 0.417114 0.417003 0.416813 0.416516 0.416074 
0.415437 0.414546 0.413332 0.411719 0.409628 0.406979 0.403694 0.399706 0.394961 
0.395072 0.399811 0.403785 0.40705 0.409675 0.411739 0.413324 0.414511 0.415378 
0.415994 0.416419 0.416702 0.416882 0.416986 0.417034 0.417034 0.416987 0.416882 
0.416703 0.41642 0.415996 0.41538 0.414513 0.413326 0.411741 0.409678 0.407052 
0.403787 0.399814 0.395075 0.395189 0.399921 0.403881 0.407125 0.409725 0.411762 
0.413318 0.414479 0.415321 0.415915 0.416322 0.41659 0.41676 0.416858 0.416902 
0.416902 0.416858 0.41676 0.416591 0.416323 0.415916 0.415322 0.41448 0.41332 
0.411764 0.409728 0.407128 0.403883 0.399924 0.395192 0.39531 0.400035 0.40398 
0.407202 0.409777 0.411785 0.413312 0.414445 0.415262 0.415834 0.416223 0.416477 
0.416636 0.416727 0.416768 0.416769 0.416728 0.416637 0.416478 0.416224 0.415835 
0.415263 0.414447 0.413314 0.411787 0.409779 0.407205 0.403982 0.400037 0.395312 
0.395434 0.400152 0.404081 0.407282 0.409829 0.411808 0.413306 0.41441 0.415201 
0.415752 0.416122 0.416362 0.416511 0.416595 0.416633 0.416633 0.416596 0.416512 
0.416363 0.416123 0.415753 0.415203 0.414412 0.413308 0.41181 0.409831 0.407284 
0.404083 0.400154 0.395436 0.395561 0.400272 0.404185 0.407363 0.409883 0.411831 
0.413299 0.414374 0.41514 0.415668 0.41602 0.416246 0.416384 0.416462 0.416497 
0.416497 0.416462 0.416385 0.416247 0.416021 0.415669 0.415141 0.414376 0.413301 
0.411833 0.409884 0.407365 0.404187 0.400274 0.395563 0.395692 0.400395 0.404291 
0.407446 0.409937 0.411855 0.413292 0.414337 0.415076 0.415582 0.415916 0.416128 
0.416256 0.416327 0.416359 0.416359 0.416328 0.416257 0.416129 0.415917 0.415583 
0.415077 0.414339 0.413293 0.411857 0.409939 0.407447 0.404293 0.400397 0.395694 
0.395827 0.400521 0.404401 0.407531 0.409993 0.411879 0.413283 0.414299 0.415012 
0.415494 0.41581 0.416008 0.416126 0.416191 0.416219 0.41622 0.416191 0.416127 
0.416009 0.415811 0.415495 0.415012 0.414301 0.413285 0.41188 0.409994 0.407532 
0.404402 0.400523 0.395829 0.395966 0.400652 0.404513 0.407617 0.410049 0.411902 
0.413275 0.41426 0.414945 0.415405 0.415702 0.415887 0.415995 0.416053 0.416079 
0.416079 0.416054 0.415995 0.415887 0.415703 0.415406 0.414946 0.414261 0.413276 
0.411904 0.41005 0.407619 0.404514 0.400653 0.395967 0.396109 0.400785 0.404628 
0.407706 0.410107 0.411926 0.413265 0.414219 0.414877 0.415314 0.415593 0.415764 
0.415862 0.415914 0.415936 0.415936 0.415914 0.415862 0.415764 0.415594 0.415315 
0.414878 0.41422 0.413266 0.411927 0.410108 0.407707 0.404629 0.400787 0.39611 
0.396255 0.400923 0.404746 0.407797 0.410165 0.41195 0.413254 0.414177 0.414807 
0.415221 0.415482 0.415639 0.415727 0.415774 0.415793 0.415793 0.415774 0.415728 
0.415639 0.415482 0.415222 0.414808 0.414178 0.413255 0.411951 0.410166 0.407798 
0.404747 0.400924 0.396257 0.396407 0.401064 0.404867 0.40789 0.410224 0.411973 
0.413243 0.414133 0.414735 0.415126 0.415369 0.415512 0.415591 0.415632 0.415648 
0.415648 0.415632 0.415592 0.415512 0.415369 0.415127 0.414736 0.414134 0.413244 
0.411974 0.410225 0.407891 0.404868 0.401065 0.396408 0.396562 0.40121 0.404992 
0.407985 0.410284 0.411997 0.41323 0.414088 0.414662 0.415029 0.415254 0.415384 
0.415454 0.415488 0.415502 0.415502 0.415488 0.415454 0.415384 0.415254 0.41503 
0.414662 0.414088 0.413231 0.411997 0.410285 0.407986 0.404993 0.401211 0.396563 
0.396723 0.40136 0.40512 0.408082 0.410345 0.41202 0.413216 0.414041 0.414586 
0.41493 0.415137 0.415253 0.415314 0.415343 0.415354 0.415354 0.415343 0.415315 
0.415254 0.415137 0.414931 0.414586 0.414041 0.413217 0.41202 0.410346 0.408083 
0.40512 0.401361 0.396724 0.396888 0.401514 0.405251 0.408181 0.410407 0.412042 
0.413201 0.413992 0.414508 0.414829 0.415018 0.415122 0.415174 0.415197 0.415206 
0.415206 0.415197 0.415174 0.415122 0.415018 0.414829 0.414508 0.413992 0.413202 
0.412043 0.410408 0.408182 0.405252 0.401515 0.396889 0.397059 0.401673 0.405386 
0.408282 0.41047 0.412064 0.413185 0.413941 0.414428 0.414726 0.414897 0.414988 
0.415031 0.41505 0.415056 0.415056 0.41505 0.415032 0.414988 0.414897 0.414726 
0.414428 0.413941 0.413185 0.412065 0.41047 0.408283 0.405386 0.401674 0.397059 
0.397235 0.401837 0.405524 0.408386 0.410533 0.412086 0.413167 0.413887 0.414345 
0.41462 0.414774 0.414853 0.414888 0.414901 0.414904 0.414905 0.414901 0.414888 
0.414853 0.414774 0.41462 0.414346 0.413888 0.413167 0.412086 0.410533 0.408386 
0.405525 0.401837 0.397235 0.397416 0.402005 0.405666 0.408492 0.410597 0.412107 
0.413147 0.413832 0.41426 0.414512 0.414649 0.414715 0.414743 0.414751 0.414752 
0.414752 0.414751 0.414743 0.414716 0.414649 0.414513 0.414261 0.413832 0.413147 
0.412107 0.410597 0.408492 0.405667 0.402006 0.397417 0.397604 0.402179 0.405812 
0.408599 0.410661 0.412126 0.413125 0.413774 0.414173 0.414402 0.414522 0.414577 
0.414596 0.4146 0.414599 0.414599 0.4146 0.414596 0.414577 0.414522 0.414402 
0.414173 0.413774 0.413125 0.412127 0.410661 0.4086 0.405812 0.402179 0.397604 
0.397797 0.402358 0.405962 0.408709 0.410725 0.412145 0.413101 0.413714 0.414083 
0.414289 0.414393 0.414436 0.414448 0.414448 0.414445 0.414445 0.414448 0.414448 
0.414436 0.414393 0.414289 0.414083 0.413714 0.413102 0.412146 0.410726 0.40871 
0.405962 0.402358 0.397798 0.397997 0.402543 0.406116 0.408821 0.41079 0.412163 
0.413075 0.41365 0.41399 0.414174 0.414261 0.414294 0.414299 0.414294 0.41429 
0.41429 0.414294 0.414299 0.414294 0.414261 0.414174 0.41399 0.413651 0.413076 
0.412163 0.410791 0.408822 0.406116 0.402543 0.397998 0.398204 0.402734 0.406274 
0.408936 0.410855 0.412179 0.413047 0.413584 0.413894 0.414056 0.414128 0.41415 
0.414148 0.41414 0.414133 0.414134 0.41414 0.414148 0.41415 0.414128 0.414056 
0.413894 0.413585 0.413047 0.412179 0.410856 0.408936 0.406274 0.402734 0.398205 
0.398418 0.40293 0.406436 0.409052 0.41092 0.412193 0.413016 0.413515 0.413796 
0.413936 0.413992 0.414004 0.413997 0.413985 0.413977 0.413977 0.413985 0.413997 
0.414004 0.413992 0.413936 0.413796 0.413515 0.413016 0.412193 0.410921 0.409052 
0.406437 0.402931 0.398419 0.39864 0.403134 0.406603 0.40917 0.410985 0.412205 
0.412981 0.413443 0.413694 0.413813 0.413855 0.413857 0.413844 0.413828 0.413819 