# vtk DataFile Version 5.1
vtk output
ASCII
DATASET UNSTRUCTURED_GRID
POINTS 9610 double
0.1016 1.5 0 0.1016 1.45 5.1584879698e-20 0.1016 1.4 8.2585350466e-20 
0.1016 1.35 0 0.1016 1.3 0 0.1016 1.25 7.633537409e-20 
0.1016 1.2 -1.0472138867e-19 0.1016 1.15 -1.0474616531e-19 0.1016 1.1 0 
0.1016 1.05 0 0.1016 1 7.6430874677e-20 0.1016 0.95 -1.047413444e-19 
0.1016 0.9 7.6430971612e-20 0.1016 0.85 1.9900855048e-18 0.1016 0.8 -1.0474130562e-19 
0.1016 0.75 7.6430325377e-20 0.1016 0.7 2.0948253887e-18 0.1016 0.65 0 
0.1016 0.6 1.9900857116e-18 0.1016 0.55 0 0.1016 0.5 -1.0474154473e-19 
0.1016 0.45 0 0.1016 0.4 -1.0474482114e-19 0.1016 0.35 0 
0.1016 0.3 0 0.1016 0.25 0 0.1016 0.2 7.5297934506e-20 
0.1016 0.15 -9.0429310344e-20 0.1016 0.1 -9.209014038e-20 0.1016 0.05 -7.6045124168e-20 
0.1016 0 0 5.08 1.5 0.28700000048 5.08 1.45 0.28700000048 
5.08 1.4 0.28700000048 5.08 1.35 0.28700000048 5.08 1.3 0.28700000048 
5.08 1.25 0.28700000048 5.08 1.2 0.28700000048 5.08 1.15 0.28700000048 
5.08 1.1 0.28700000048 5.08 1.05 0.28700000048 5.08 1 0.28700000048 
5.08 0.95 0.28700000048 5.08 0.9 0.28700000048 5.08 0.85 0.28700000048 
5.08 0.8 0.28700000048 5.08 0.75 0.28700000048 5.08 0.7 0.28700000048 
5.08 0.65 0.28700000048 5.08 0.6 0.28700000048 5.08 0.55 0.28700000048 
5.08 0.5 0.28700000048 5.08 0.45 0.28700000048 5.08 0.4 0.28700000048 
5.08 0.35 0.28700000048 5.08 0.3 0.28700000048 5.08 0.25 0.28700000048 
5.08 0.2 0.28700000048 5.08 0.15 0.28700000048 5.08 0.1 0.28700000048 
5.08 0.05 0.28700000048 5.08 0 0.28700000048 0.151384 1.5 0.02146493271 
0.151384 1.45 0.021448900923 0.151384 1.4 0.021452795714 0.151384 1.35 0.021451983601 
0.151384 1.3 0.021452168003 0.151384 1.25 0.021452125162 0.151384 1.2 0.021452134475 
0.151384 1.15 0.021452132612 0.151384 1.1 0.021452134475 0.151384 1.05 0.021452132612 
0.151384 1 0.021452134475 0.151384 0.95 0.021452132612 0.151384 0.9 0.021452132612 
0.151384 0.85 0.021452132612 0.151384 0.8 0.021452132612 0.151384 0.75 0.021452134475 
0.151384 0.7 0.021452134475 0.151384 0.65 0.021452134475 0.151384 0.6 0.021452134475 
0.151384 0.55 0.021452134475 0.151384 0.5 0.021452134475 0.151384 0.45 0.021452132612 
0.151384 0.4 0.021452134475 0.151384 0.35 0.021452132612 0.151384 0.3 0.021452134475 
0.151384 0.25 0.021452127025 0.151384 0.2 0.021452162415 0.151384 0.15 0.02145200409 
0.151384 0.1 0.021452706307 0.151384 0.05 0.02144934237 0.151384 0 0.021464604884 
0.201168 1.5 0.04984471947 0.201168 1.45 0.049860715866 0.201168 1.4 0.04986718297 
0.201168 1.35 0.049865700305 0.201168 1.3 0.049866013229 0.201168 1.25 0.049865946174 
0.201168 1.2 0.049865961075 0.201168 1.15 0.04986595735 0.201168 1.1 0.04986595735 
0.201168 1.05 0.04986595735 0.201168 1 0.04986595735 0.201168 0.95 0.04986595735 
0.201168 0.9 0.04986595735 0.201168 0.85 0.04986595735 0.201168 0.8 0.04986595735 
0.201168 0.75 0.04986595735 0.201168 0.7 0.04986595735 0.201168 0.65 0.04986595735 
0.201168 0.6 0.04986595735 0.201168 0.55 0.04986595735 0.201168 0.5 0.04986595735 
0.201168 0.45 0.04986595735 0.201168 0.4 0.04986595735 0.201168 0.35 0.04986595735 
0.201168 0.3 0.049865961075 0.201168 0.25 0.049865946174 0.201168 0.2 0.049866005778 
0.201168 0.15 0.049865730107 0.201168 0.1 0.049867045134 0.201168 0.05 0.049861267209 
0.201168 0 0.049844291061 0.250952 1.5 0.083479054272 0.250952 1.45 0.083398230374 
0.250952 1.4 0.083408355713 0.250952 1.35 0.083406820893 0.250952 1.3 0.083407111466 
0.250952 1.25 0.083407051861 0.250952 1.2 0.083407066762 0.250952 1.15 0.083407066762 
0.250952 1.1 0.083407066762 0.250952 1.05 0.083407066762 0.250952 1 0.083407066762 
0.250952 0.95 0.083407066762 0.250952 0.9 0.083407066762 0.250952 0.85 0.083407066762 
0.250952 0.8 0.083407066762 0.250952 0.75 0.083407066762 0.250952 0.7 0.083407066762 
0.250952 0.65 0.083407066762 0.250952 0.6 0.083407066762 0.250952 0.55 0.083407066762 
0.250952 0.5 0.083407066762 0.250952 0.45 0.083407066762 0.250952 0.4 0.083407066762 
0.250952 0.35 0.083407066762 0.250952 0.3 0.083407066762 0.250952 0.25 0.083407059312 
0.250952 0.2 0.083407104015 0.250952 0.15 0.083406858146 0.250952 0.1 0.083408199251 
0.250952 0.05 0.083398923278 0.250952 0 0.083478525281 0.300736 1.5 0.14716693759 
0.300736 1.45 0.14724357426 0.300736 1.4 0.14723330736 0.300736 1.35 0.14723455906 
0.300736 1.3 0.14723439515 0.300736 1.25 0.14723441005 0.300736 1.2 0.14723441005 
0.300736 1.15 0.14723441005 0.300736 1.1 0.14723441005 0.300736 1.05 0.14723441005 
0.300736 1 0.14723441005 0.300736 0.95 0.14723441005 0.300736 0.9 0.14723441005 
0.300736 0.85 0.14723441005 0.300736 0.8 0.14723441005 0.300736 0.75 0.14723441005 
0.300736 0.7 0.14723441005 0.300736 0.65 0.14723441005 0.300736 0.6 0.14723441005 
0.300736 0.55 0.14723441005 0.300736 0.5 0.14723441005 0.300736 0.45 0.14723441005 
0.300736 0.4 0.14723441005 0.300736 0.35 0.14723441005 0.300736 0.3 0.14723441005 
0.300736 0.25 0.14723441005 0.300736 0.2 0.14723438025 0.300736 0.15 0.14723460376 
0.300736 0.1 0.14723312855 0.300736 0.05 0.14724433422 0.300736 0 0.14716635644 
0.35052 1.5 0.15515324473 0.35052 1.45 0.15522770584 0.35052 1.4 0.15521581471 
0.35052 1.35 0.15521745384 0.35052 1.3 0.15521720052 0.35052 1.25 0.15521724522 
0.35052 1.2 0.15521723032 0.35052 1.15 0.15521723032 0.35052 1.1 0.15521723032 
0.35052 1.05 0.15521723032 0.35052 1 0.15521723032 0.35052 0.95 0.15521723032 
0.35052 0.9 0.15521723032 0.35052 0.85 0.15521723032 0.35052 0.8 0.15521723032 
0.35052 0.75 0.15521723032 0.35052 0.7 0.15521723032 0.35052 0.65 0.15521723032 
0.35052 0.6 0.15521723032 0.35052 0.55 0.15521723032 0.35052 0.5 0.15521723032 
0.35052 0.45 0.15521723032 0.35052 0.4 0.15521723032 0.35052 0.35 0.15521723032 
0.35052 0.3 0.15521723032 0.35052 0.25 0.15521724522 0.35052 0.2 0.15521720052 
0.35052 0.15 0.15521749854 0.35052 0.1 0.1552156359 0.35052 0.05 0.1552284956 
0.35052 0 0.15515261889 0.400304 1.5 0.18852005899 0.400304 1.45 0.18836417794 
0.400304 1.4 0.18838000298 0.400304 1.35 0.18837818503 0.400304 1.3 0.18837840855 
0.400304 1.25 0.18837839365 0.400304 1.2 0.18837839365 0.400304 1.15 0.18837839365 
0.400304 1.1 0.18837839365 0.400304 1.05 0.18837839365 0.400304 1 0.18837839365 
0.400304 0.95 0.18837839365 0.400304 0.9 0.18837839365 0.400304 0.85 0.18837839365 
0.400304 0.8 0.18837839365 0.400304 0.75 0.18837839365 0.400304 0.7 0.18837839365 
0.400304 0.65 0.18837839365 0.400304 0.6 0.18837839365 0.400304 0.55 0.18837839365 
0.400304 0.5 0.18837839365 0.400304 0.45 0.18837839365 0.400304 0.4 0.18837839365 
0.400304 0.35 0.18837839365 0.400304 0.3 0.18837839365 0.400304 0.25 0.18837839365 
0.400304 0.2 0.18837839365 0.400304 0.15 0.18837822974 0.400304 0.1 0.18837982416 
0.400304 0.05 0.18836499751 0.400304 0 0.18851940334 0.450088 1.5 0.22610981762 
0.450088 1.45 0.22619141638 0.450088 1.4 0.22619566321 0.450088 1.35 0.22619527578 
0.450088 1.3 0.22619529068 0.450088 1.25 0.22619530559 0.450088 1.2 0.22619529068 
0.450088 1.15 0.22619529068 0.450088 1.1 0.22619529068 0.450088 1.05 0.22619529068 
0.450088 1 0.22619529068 0.450088 0.95 0.22619529068 0.450088 0.9 0.22619529068 
0.450088 0.85 0.22619529068 0.450088 0.8 0.22619529068 0.450088 0.75 0.22619529068 
0.450088 0.7 0.22619529068 0.450088 0.65 0.22619529068 0.450088 0.6 0.22619529068 
0.450088 0.55 0.22619529068 0.450088 0.5 0.22619529068 0.450088 0.45 0.22619529068 
0.450088 0.4 0.22619529068 0.450088 0.35 0.22619530559 0.450088 0.3 0.22619529068 
0.450088 0.25 0.22619530559 0.450088 0.2 0.22619527578 0.450088 0.15 0.22619532049 
0.450088 0.1 0.2261954695 0.450088 0.05 0.22619225085 0.450088 0 0.22610916197 
0.499872 1.5 0.260286659 0.499872 1.45 0.26024150848 0.499872 1.4 0.26022011042 
0.499872 1.35 0.26022422314 0.499872 1.3 0.26022326946 0.499872 1.25 0.26022350788 
0.499872 1.2 0.26022344828 0.499872 1.15 0.26022347808 0.499872 1.1 0.26022344828 
0.499872 1.05 0.26022344828 0.499872 1 0.26022344828 0.499872 0.95 0.26022344828 
0.499872 0.9 0.26022344828 0.499872 0.85 0.26022344828 0.499872 0.8 0.26022344828 
0.499872 0.75 0.26022344828 0.499872 0.7 0.26022344828 0.499872 0.65 0.26022344828 
0.499872 0.6 0.26022344828 0.499872 0.55 0.26022344828 0.499872 0.5 0.26022344828 
0.499872 0.45 0.26022344828 0.499872 0.4 0.26022344828 0.499872 0.35 0.26022347808 
0.499872 0.3 0.26022344828 0.499872 0.25 0.26022350788 0.499872 0.2 0.26022326946 
0.499872 0.15 0.26022425294 0.499872 0.1 0.2602199018 0.499872 0.05 0.26024246216 
0.499872 0 0.26028591394 0.549656 1.5 0.28591999412 0.549656 1.45 0.28591999412 
0.549656 1.4 0.28591999412 0.549656 1.35 0.28591999412 0.549656 1.3 0.28591999412 
0.549656 1.25 0.28591999412 0.549656 1.2 0.28591999412 0.549656 1.15 0.28591999412 
0.549656 1.1 0.28591999412 0.549656 1.05 0.28591999412 0.549656 1 0.28591999412 
0.549656 0.95 0.28591999412 0.549656 0.9 0.28591999412 0.549656 0.85 0.28591999412 
0.549656 0.8 0.28591999412 0.549656 0.75 0.28591999412 0.549656 0.7 0.28591999412 
0.549656 0.65 0.28591999412 0.549656 0.6 0.28591999412 0.549656 0.55 0.28591999412 
0.549656 0.5 0.28591999412 0.549656 0.45 0.28591999412 0.549656 0.4 0.28591999412 
0.549656 0.35 0.28591999412 0.549656 0.3 0.28591999412 0.549656 0.25 0.28591999412 
0.549656 0.2 0.28591999412 0.549656 0.15 0.28591999412 0.549656 0.1 0.28591999412 
0.549656 0.05 0.28591999412 0.549656 0 0.28591999412 0.59944 1.5 0.28700000048 
0.59944 1.45 0.28700000048 0.59944 1.4 0.28700000048 0.59944 1.35 0.28700000048 
0.59944 1.3 0.28700000048 0.59944 1.25 0.28700000048 0.59944 1.2 0.28700000048 
0.59944 1.15 0.28700000048 0.59944 1.1 0.28700000048 0.59944 1.05 0.28700000048 
0.59944 1 0.28700000048 0.59944 0.95 0.28700000048 0.59944 0.9 0.28700000048 
0.59944 0.85 0.28700000048 0.59944 0.8 0.28700000048 0.59944 0.75 0.28700000048 
0.59944 0.7 0.28700000048 0.59944 0.65 0.28700000048 0.59944 0.6 0.28700000048 
0.59944 0.55 0.28700000048 0.59944 0.5 0.28700000048 0.59944 0.45 0.28700000048 
0.59944 0.4 0.28700000048 0.59944 0.35 0.28700000048 0.59944 0.3 0.28700000048 
[...]
CELL_DATA 9270
FIELD FieldData 7
B_Stress_n_p_m2 1 9270 float
0.281862 0.305729 0.311251 0.310066 0.308235 0.307224 0.306698 0.306459 0.306362 
0.306343 0.306369 0.306425 0.306505 0.306606 0.306704 0.306747 0.306747 0.306751 
0.30676 0.30678 0.306818 0.306887 0.307016 0.307268 0.307791 0.308791 0.310608 
0.311785 0.306259 0.282367 0.0444304 0.0918213 0.101901 0.100254 0.0966987 0.0943305 
0.0928586 0.0919533 0.0913899 0.0910234 0.0907888 0.0906372 0.0905459 0.0904976 0.0904818 
0.0904913 0.0905265 0.0905944 0.0907037 0.0908712 0.0911193 0.0914965 0.0920675 0.0929771 
0.0944503 0.0968179 0.100374 0.102033 0.0919677 0.0445317 0.0843775 0.144408 0.160592 
0.160358 0.156677 0.153736 0.151723 0.150355 0.14944 0.148806 0.148375 0.148079 
0.147885 0.147769 0.14772 0.147738 0.147819 0.147964 0.148182 0.148499 0.148948 
0.149595 0.15052 0.151893 0.153908 0.156848 0.160532 0.160778 0.144611 0.0845194 
0.0933021 0.160431 0.18165 0.182963 0.17978 0.176772 0.174588 0.17301 0.17191 
0.171124 0.170575 0.170192 0.169939 0.169788 0.169724 0.169738 0.169831 0.170009 
0.170286 0.170689 0.171256 0.172057 0.173168 0.174753 0.176941 0.179951 0.18314 
0.181844 0.160648 0.0934425 0.109614 0.179534 0.202436 0.204756 0.202336 0.199668 
0.197638 0.196092 0.194966 0.194132 0.193529 0.193099 0.192808 0.19263 0.192551 
0.192565 0.192671 0.192874 0.193189 0.193639 0.194259 0.195108 0.196245 0.197799 
0.199834 0.202507 0.204934 0.202634 0.179751 0.109803 0.131268 0.203988 0.228016 
0.231192 0.229655 0.227517 0.22579 0.224394 0.223327 0.222504 0.221888 0.221437 
0.221125 0.220931 0.220844 0.220857 0.22097 0.221187 0.221522 0.221994 0.222627 
0.223466 0.224545 0.22595 0.227684 0.229827 0.231374 0.228215 0.204197 0.131436 
0.171095 0.249594 0.275507 0.279915 0.279383 0.277879 0.2765 0.275285 0.274291 
0.273485 0.272857 0.272382 0.272045 0.271832 0.271735 0.271749 0.271872 0.27211 
0.272471 0.272967 0.273615 0.274437 0.275445 0.276671 0.27806 0.279571 0.280114 
0.275725 0.249843 0.17126 0.219723 0.304689 0.332312 0.33801 0.338476 0.337652 
0.336677 0.335702 0.334835 0.334091 0.333483 0.333009 0.332665 0.332443 0.332341 
0.332355 0.332485 0.332733 0.333103 0.3336 0.334228 0.334991 0.335874 0.336862 
0.337848 0.338682 0.338228 0.332549 0.304948 0.219968 0.258581 0.348067 0.37605 
0.382412 0.383515 0.383228 0.38263 0.381924 0.381234 0.380606 0.380071 0.37964 
0.379319 0.379111 0.379013 0.379028 0.379152 0.379388 0.379733 0.380188 0.380744 
0.381391 0.382097 0.382817 0.383428 0.383725 0.382635 0.376292 0.348317 0.258779 
0.272789 0.362861 0.38947 0.395585 0.396824 0.396829 0.396507 0.396043 0.395547 
0.395068 0.394643 0.394291 0.394025 0.393849 0.393767 0.393779 0.393887 0.394087 
0.394377 0.394751 0.395196 0.395693 0.396205 0.396682 0.397017 0.397022 0.395795 
0.389698 0.36311 0.273003 0.27478 0.36373 0.38867 0.394206 0.395319 0.395421 
0.395254 0.394961 0.394619 0.394272 0.393953 0.393682 0.393473 0.393334 0.393269 
0.39328 0.393367 0.393528 0.393758 0.394049 0.394386 0.39475 0.395106 0.395412 
0.39559 0.395498 0.394396 0.388876 0.363953 0.274971 0.276607 0.364944 0.388802 
0.393864 0.394806 0.394911 0.394813 0.394619 0.39438 0.394129 0.39389 0.393684 
0.393522 0.393413 0.393363 0.393373 0.393443 0.393571 0.393752 0.393976 0.394231 
0.394497 0.39475 0.394955 0.395064 0.394968 0.394037 0.388988 0.365146 0.27678 
0.277945 0.365799 0.388914 0.393615 0.394398 0.394468 0.394392 0.394252 0.394078 
0.393892 0.393713 0.393556 0.393431 0.393347 0.393309 0.393318 0.393374 0.393475 
0.393617 0.39379 0.393984 0.394183 0.39437 0.394521 0.394606 0.394545 0.393771 
0.389083 0.365982 0.278102 0.279084 0.366491 0.389049 0.393473 0.394127 0.394153 
0.394075 0.393961 0.393826 0.393683 0.393546 0.393425 0.393329 0.393264 0.393234 
0.393242 0.393287 0.393368 0.393479 0.393615 0.393766 0.39392 0.394067 0.394191 
0.394277 0.394259 0.393614 0.389201 0.366657 0.279226 0.280098 0.367063 0.389167 
0.393373 0.393926 0.39391 0.393821 0.393717 0.393604 0.393489 0.39338 0.393284 
0.393208 0.393157 0.393135 0.393142 0.393179 0.393244 0.393333 0.393441 0.393562 
0.393688 0.393812 0.393926 0.394022 0.394046 0.393501 0.389305 0.367213 0.280227 
0.281038 0.367557 0.389264 0.393292 0.393766 0.393714 0.393612 0.393508 0.393406 
0.393308 0.393218 0.39314 0.393079 0.393038 0.39302 0.393027 0.393057 0.39311 
0.393184 0.393273 0.393374 0.393483 0.393594 0.393706 0.393816 0.393875 0.393408 
0.389388 0.367692 0.281155 0.281934 0.367998 0.389341 0.393218 0.39363 0.393548 
0.393432 0.393325 0.393228 0.39314 0.393061 0.392995 0.392943 0.39291 0.392895 
0.392901 0.392927 0.392972 0.393034 0.393111 0.393199 0.393297 0.393403 0.393517 
0.39364 0.393727 0.393322 0.389453 0.36812 0.282039 0.282802 0.368402 0.3894 
0.393143 0.393505 0.393401 0.393272 0.393161 0.393064 0.392981 0.392909 0.39285 
0.392805 0.392776 0.392764 0.392769 0.392792 0.392831 0.392886 0.392954 0.393035 
0.393127 0.39323 0.393348 0.393483 0.393593 0.393237 0.389502 0.368512 0.282897 
0.283654 0.368781 0.389446 0.393066 0.393387 0.393264 0.393125 0.393008 0.392911 
0.39283 0.392762 0.392707 0.392667 0.39264 0.392629 0.392634 0.392654 0.39269 
0.392739 0.392802 0.392878 0.392967 0.393071 0.393194 0.393339 0.393466 0.393151 
0.389537 0.368881 0.28374 0.284497 0.369142 0.38948 0.392985 0.393271 0.393134 
0.392986 0.392865 0.392766 0.392684 0.392618 0.392566 0.392528 0.392503 0.392493 
0.392497 0.392516 0.392548 0.392595 0.392654 0.392728 0.392816 0.392921 0.393048 
0.393201 0.393343 0.393062 0.389563 0.369232 0.284575 0.285336 0.36949 0.389505 
0.392901 0.393156 0.393007 0.392852 0.392727 0.392625 0.392543 0.392477 0.392426 
0.392389 0.392366 0.392356 0.39236 0.392377 0.392408 0.392452 0.39251 0.392583 
0.392671 0.392778 0.392908 0.393068 0.393221 0.39297 0.38958 0.369571 0.285406 
0.286174 0.369828 0.389523 0.392813 0.393041 0.392882 0.392722 0.392592 0.392489 
0.392405 0.392339 0.392288 0.392252 0.392229 0.392219 0.392222 0.392239 0.392269 
0.392312 0.392369 0.392441 0.39253 0.392638 0.392772 0.392937 0.393099 0.392876 
0.38959 0.369901 0.286238 0.287014 0.370159 0.389534 0.392722 0.392924 0.392758 
0.392593 0.39246 0.392354 0.39227 0.392203 0.392152 0.392115 0.392092 0.392082 
0.392085 0.392101 0.39213 0.392173 0.39223 0.392302 0.392391 0.392502 0.392639 
0.392808 0.392977 0.392778 0.389594 0.370224 0.287071 0.287857 0.370483 0.389539 
0.392628 0.392807 0.392634 0.392466 0.39233 0.392222 0.392136 0.392068 0.392017 
0.39198 0.391956 0.391946 0.391949 0.391964 0.391993 0.392035 0.392092 0.392165 
0.392255 0.392368 0.392507 0.392679 0.392855 0.392679 0.389594 0.370543 0.287908 
0.288703 0.370803 0.38954 0.392531 0.392689 0.39251 0.392338 0.392201 0.392091 
0.392003 0.391934 0.391882 0.391845 0.391821 0.39181 0.391813 0.391828 0.391857 
0.391899 0.391956 0.392029 0.392121 0.392234 0.392376 0.392551 0.392732 0.392577 
0.38959 0.370857 0.28875 0.289556 0.371119 0.389538 0.392432 0.392569 0.392386 
0.392211 0.392072 0.39196 0.391871 0.391802 0.391748 0.39171 0.391686 0.391675 
0.391678 0.391693 0.391722 0.391764 0.391821 0.391895 0.391987 0.392102 0.392245 
0.392422 0.392608 0.392474 0.389582 0.371167 0.289598 0.290414 0.371432 0.389531 
0.392331 0.392448 0.39226 0.392084 0.391943 0.39183 0.39174 0.391669 0.391615 
0.391577 0.391552 0.391541 0.391543 0.391558 0.391587 0.391629 0.391687 0.391761 
0.391854 0.39197 0.392114 0.392293 0.392483 0.392368 0.389571 0.371475 0.290452 
0.291278 0.371742 0.389521 0.392228 0.392326 0.392134 0.391957 0.391814 0.3917 
0.391608 0.391537 0.391483 0.391443 0.391418 0.391407 0.391409 0.391424 0.391453 
0.391495 0.391553 0.391628 0.391722 0.391839 0.391984 0.392164 0.392357 0.392262 
0.389557 0.371781 0.291313 0.29215 0.372049 0.389508 0.392123 0.392203 0.392008 
0.391829 0.391685 0.391569 0.391477 0.391405 0.39135 0.391311 0.391285 0.391273 
0.391275 0.39129 0.391319 0.391361 0.39142 0.391495 0.391589 0.391707 0.391853 
0.392035 0.392231 0.392153 0.389541 0.372084 0.292181 0.293029 0.372354 0.389493 
0.392017 0.392079 0.391881 0.3917 0.391555 0.391439 0.391346 0.391274 0.391218 
0.391178 0.391152 0.39114 0.391141 0.391156 0.391185 0.391228 0.391286 0.391362 
0.391457 0.391575 0.391722 0.391905 0.392105 0.392044 0.389522 0.372386 0.293057 
0.293916 0.372657 0.389474 0.391909 0.391954 0.391753 0.391571 0.391425 0.391309 
0.391215 0.391142 0.391085 0.391045 0.391019 0.391007 0.391008 0.391023 0.391052 
0.391095 0.391154 0.391229 0.391325 0.391444 0.391591 0.391775 0.391977 0.391933 
0.389501 0.372686 0.293941 0.29481 0.372958 0.389453 0.391799 0.391828 0.391624 
0.391442 0.391295 0.391178 0.391084 0.39101 0.390953 0.390912 0.390886 0.390874 
0.390875 0.39089 0.390918 0.390961 0.391021 0.391097 0.391193 0.391312 0.39146 
0.391644 0.391849 0.391821 0.389477 0.372984 0.294833 0.295713 0.373257 0.38943 
0.391689 0.391702 0.391495 0.391312 0.391165 0.391047 0.390952 0.390878 0.390821 
0.39078 0.390753 0.39074 0.390742 0.390756 0.390785 0.390828 0.390888 0.390964 
0.39106 0.39118 0.391329 0.391513 0.391721 0.391709 0.389451 0.37328 0.295733 
0.296624 0.373554 0.389404 0.391577 0.391574 0.391366 0.391182 0.391034 0.390916 
0.390821 0.390746 0.390688 0.390647 0.39062 0.390607 0.390608 0.390623 0.390652 
0.390695 0.390755 0.390831 0.390928 0.391048 0.391197 0.391382 0.391591 0.391595 
0.389424 0.373575 0.296642 0.297543 0.373849 0.389376 0.391464 0.391447 0.391235 
0.391051 0.390903 0.390784 0.390689 0.390614 0.390556 0.390514 0.390487 0.390474 
0.390475 0.39049 0.390518 0.390562 0.390621 0.390698 0.390795 0.390915 0.391064 
0.39125 0.391462 0.39148 0.389394 0.373868 0.29756 0.298471 0.374142 0.389346 
0.391349 0.391318 0.391105 0.39092 0.390771 0.390652 0.390556 0.390481 0.390423 
0.390381 0.390354 0.390341 0.390341 0.390356 0.390385 0.390428 0.390488 0.390565 
0.390662 0.390782 0.390932 0.391118 0.391332 0.391364 0.389362 0.374159 0.298486 
0.299408 0.374434 0.389313 0.391234 0.391189 0.390974 0.390788 0.390639 0.39052 
0.390424 0.390348 0.39029 0.390248 0.39022 0.390207 0.390208 0.390222 0.390251 
0.390295 0.390354 0.390431 0.390529 0.390649 0.390799 0.390985 0.391201 0.391247 
0.389328 0.374449 0.299422 0.300355 0.374723 0.389279 0.391118 0.391059 0.390842 
0.390656 0.390507 0.390387 0.390291 0.390215 0.390156 0.390114 0.390086 0.390073 
0.390074 0.390088 0.390117 0.390161 0.390221 0.390298 0.390395 0.390516 0.390666 
0.390852 0.39107 0.39113 0.389291 0.374737 0.300367 0.30131 0.375011 0.389242 
0.391001 0.390929 0.39071 0.390524 0.390374 0.390254 0.390157 0.390081 0.390023 
0.38998 0.389952 0.389939 0.38994 0.389954 0.389983 0.390027 0.390087 0.390164 
0.390261 0.390382 0.390533 0.390719 0.390939 0.391011 0.389253 0.375023 0.301321 
0.302275 0.375296 0.389203 0.390882 0.390798 0.390577 0.390391 0.390241 0.390121 
0.390024 0.389948 0.389889 0.389846 0.389818 0.389805 0.389805 0.38982 0.389849 
0.389892 0.389952 0.390029 0.390127 0.390248 0.390399 0.390586 0.390807 0.390892 
0.389213 0.375308 0.302285 0.303249 0.37558 0.389161 0.390763 0.390666 0.390444 
0.390258 0.390107 0.389987 0.38989 0.389814 0.389754 0.389712 0.389684 0.38967 
0.389671 0.389685 0.389714 0.389758 0.389818 0.389895 0.389993 0.390114 0.390265 
0.390452 0.390674 0.390772 0.389171 0.37559 0.303258 0.304233 0.375861 0.389118 
0.390643 0.390534 0.390311 0.390124 0.389973 0.389853 0.389756 0.389679 0.38962 
0.389577 0.389549 0.389535 0.389536 0.38955 0.389579 0.389623 0.389683 0.38976 
0.389858 0.389979 0.39013 0.390318 0.390542 0.390651 0.389126 0.37587 0.304241 
0.305227 0.37614 0.389072 0.390522 0.390402 0.390177 0.38999 0.389839 0.389719 
0.389621 0.389544 0.389485 0.389442 0.389414 0.3894 0.3894 0.389415 0.389444 
0.389487 0.389548 0.389625 0.389723 0.389844 0.389996 0.390183 0.390408 0.390529 
0.38908 0.376149 0.305234 0.30623 0.376417 0.389025 0.3904 0.390269 0.390042 
0.389855 0.389704 0.389584 0.389486 0.389409 0.389349 0.389306 0.389278 0.389264 
0.389265 0.389279 0.389308 0.389352 0.389412 0.38949 0.389588 0.389709 0.389861 
0.390048 0.390275 0.390407 0.389031 0.376424 0.306237 0.307244 0.376692 0.388975 
0.390278 0.390135 0.389908 0.38972 0.389569 0.389449 0.389351 0.389274 0.389214 
0.389171 0.389142 0.389129 0.389129 0.389143 0.389172 0.389216 0.389276 0.389354 
0.389452 0.389574 0.389725 0.389913 0.390141 0.390283 0.388981 0.376698 0.30725 
0.308268 0.376964 0.388922 0.390154 0.390002 0.389773 0.389585 0.389434 0.389313 
0.389215 0.389138 0.389078 0.389035 0.389006 0.388992 0.388993 0.389007 0.389036 
0.38908 0.38914 0.389218 0.389316 0.389438 0.389589 0.389777 0.390006 0.390159 
0.388928 0.376969 0.308273 0.309302 0.377233 0.388868 0.390029 0.389867 0.389637 
0.389449 0.389298 0.389177 0.389079 0.389002 0.388942 0.388898 0.38887 0.388856 
0.388856 0.388871 0.3889 0.388943 0.389004 0.389081 0.38918 0.389301 0.389453 
0.389641 0.389872 0.390034 0.388873 0.377238 0.309307 0.310347 0.3775 0.388812 
0.389904 0.389732 0.389501 0.389313 0.389162 0.389041 0.388942 0.388865 0.388805 
0.388762 0.388733 0.388719 0.388719 0.388734 0.388763 0.388806 0.388867 0.388945 
0.389043 0.389165 0.389317 0.389505 0.389736 0.389908 0.388816 0.377504 0.310351 
0.311402 0.377764 0.388753 0.389778 0.389597 0.389365 0.389177 0.389025 0.388904 
0.388805 0.388728 0.388668 0.388625 0.388596 0.388582 0.388582 0.388597 0.388626 
0.388669 0.38873 0.388808 0.388907 0.389028 0.38918 0.389368 0.389601 0.389782 
0.388757 0.377768 0.311406 0.312468 0.378025 0.388692 0.389651 0.389461 0.389228 
0.38904 0.388888 0.388767 0.388668 0.388591 0.388531 0.388487 0.388459 0.388445 
0.388445 0.388459 0.388488 0.388532 0.388593 0.38867 0.388769 0.388891 0.389043 
0.389231 0.389465 0.389654 0.388696 0.378029 0.312472 0.313545 0.378283 0.388629 
0.389523 0.389325 0.389091 0.388903 0.388751 0.38863 0.388531 0.388453 0.388393 
0.38835 0.388321 0.388307 0.388307 0.388321 0.38835 0.388394 0.388455 0.388532 
0.388632 0.388753 0.388905 0.389094 0.389328 0.389526 0.388632 0.378286 0.313549 
0.314634 0.378538 0.388564 0.389395 0.389189 0.388954 0.388765 0.388613 0.388492 
0.388393 0.388315 0.388255 0.388211 0.388183 0.388169 0.388169 0.388183 0.388212 
0.388256 0.388317 0.388394 0.388494 0.388615 0.388768 0.388956 0.389191 0.389398 
0.388567 0.378541 0.314636 0.315733 0.378789 0.388496 0.389266 0.389052 0.388816 
0.388628 0.388475 0.388354 0.388255 0.388177 0.388117 0.388073 0.388044 0.38803 
0.38803 0.388045 0.388074 0.388117 0.388178 0.388256 0.388355 0.388477 0.38863 
0.388818 0.389054 0.389268 0.388499 0.378792 0.315736 0.316844 0.379038 0.388426 
0.389135 0.388914 0.388678 0.388489 0.388337 0.388215 0.388116 0.388038 0.387978 
0.387934 0.387905 0.387891 0.387891 0.387906 0.387935 0.387979 0.38804 0.388117 
0.388217 0.388338 0.388491 0.38868 0.388916 0.389138 0.388429 0.37904 0.316846 
0.317966 0.379283 0.388355 0.389005 0.388777 0.388539 0.388351 0.388198 0.388076 
0.387977 0.387899 0.387839 0.387795 0.387766 0.387752 0.387752 0.387767 0.387796 
0.38784 0.3879 0.387978 0.388078 0.3882 0.388352 0.388541 0.388778 0.389007 
0.388357 0.379285 0.317968 0.3191 0.379524 0.38828 0.388873 0.388638 0.3884 
0.388212 0.388059 0.387937 0.387838 0.38776 0.387699 0.387656 0.387627 0.387613 
0.387613 0.387627 0.387656 0.3877 0.387761 0.387839 0.387938 0.38806 0.388213 
0.388402 0.38864 0.388875 0.388282 0.379526 0.319102 0.320246 0.379762 0.388204 
0.388741 0.3885 0.388261 0.388072 0.387919 0.387798 0.387698 0.38762 0.38756 
0.387516 0.387487 0.387473 0.387473 0.387487 0.387516 0.38756 0.387621 0.387699 
0.387799 0.387921 0.388074 0.388262 0.388501 0.388742 0.388206 0.379764 0.320248 
0.321404 0.379995 0.388125 0.388608 0.388361 0.388121 0.387933 0.38778 0.387658 
0.387558 0.38748 0.38742 0.387376 0.387347 0.387333 0.387333 0.387347 0.387376 
0.38742 0.387481 0.387559 0.387659 0.387781 0.387934 0.388123 0.388362 0.388609 
0.388127 0.379997 0.321406 0.322574 0.380225 0.388044 0.388474 0.388221 0.387981 
0.387793 0.38764 0.387518 0.387418 0.38734 0.387279 0.387235 0.387206 0.387192 
0.387192 0.387207 0.387236 0.38728 0.387341 0.387419 0.387519 0.387641 0.387794 
0.387982 0.388223 0.388475 0.388046 0.380226 0.322576 0.323757 0.380451 0.387961 
0.38834 0.388082 0.387841 0.387652 0.387499 0.387377 0.387277 0.387199 0.387138 
0.387095 0.387066 0.387051 0.387051 0.387066 0.387095 0.387139 0.3872 0.387278 
0.387378 0.3875 0.387653 0.387842 0.388083 0.388341 0.387963 0.380452 0.323758 
0.324952 0.380672 0.387876 0.388204 0.387941 0.3877 0.387512 0.387358 0.387236 
0.387136 0.387058 0.386997 0.386954 0.386924 0.38691 0.38691 0.386925 0.386954 
0.386998 0.387059 0.387137 0.387237 0.387359 0.387513 0.387701 0.387942 0.388206 
0.387877 0.380673 0.324953 0.326159 0.380888 0.387788 0.388069 0.387801 0.387559 
0.387371 0.387217 0.387095 0.386995 0.386917 0.386856 0.386812 0.386783 0.386769 
0.386769 0.386783 0.386812 0.386856 0.386918 0.386996 0.387096 0.387218 0.387371 
0.38756 0.387802 0.38807 0.387789 0.380889 0.32616 0.32738 0.3811 0.387698 
0.387932 0.38766 0.387418 0.387229 0.387076 0.386954 0.386854 0.386775 0.386714 
0.38667 0.386641 0.386627 0.386627 0.386641 0.386671 0.386715 0.386776 0.386854 
0.386954 0.387076 0.38723 0.387419 0.387661 0.387933 0.387699 0.381101 0.327381 
0.328613 0.381308 0.387606 0.387795 0.387519 0.387276 0.387088 0.386934 0.386812 
0.386712 0.386634 0.386572 0.386528 0.386499 0.386485 0.386485 0.386499 0.386529 
0.386573 0.386634 0.386712 0.386812 0.386934 0.387088 0.387277 0.387519 0.387796 
0.387607 0.381308 0.328614 0.32986 0.38151 0.387512 0.387657 0.387377 0.387134 
0.386946 0.386792 0.38667 0.386569 0.386491 0.38643 0.386386 0.386357 0.386343 
0.386343 0.386357 0.386386 0.38643 0.386492 0.38657 0.38667 0.386792 0.386946 
0.387135 0.387377 0.387658 0.387513 0.38151 0.329861 0.33112 0.381707 0.387415 
0.387519 0.387235 0.386992 0.386803 0.386649 0.386527 0.386427 0.386349 0.386288 
0.386243 0.386214 0.3862 0.3862 0.386214 0.386244 0.386288 0.386349 0.386427 
0.386527 0.38665 0.386804 0.386992 0.387235 0.387519 0.387416 0.381707 0.331121 
0.332394 0.381898 0.387317 0.38738 0.387092 0.386849 0.38666 0.386506 0.386384 
0.386284 0.386206 0.386145 0.386101 0.386071 0.386057 0.386057 0.386072 0.386101 
0.386145 0.386206 0.386284 0.386385 0.386507 0.386661 0.386849 0.387093 0.38738 
0.387317 0.381899 0.332394 0.333681 0.382084 0.387216 0.38724 0.386949 0.386706 
0.386517 0.386363 0.386241 0.386141 0.386063 0.386001 0.385957 0.385928 0.385914 
0.385914 0.385928 0.385958 0.386002 0.386063 0.386141 0.386241 0.386364 0.386518 
0.386706 0.38695 0.38724 0.387216 0.382085 0.333682 0.334982 0.382265 0.387112 
0.387099 0.386806 0.386562 0.386374 0.38622 0.386098 0.385997 0.385919 0.385858 
0.385814 0.385785 0.385771 0.385771 0.385785 0.385814 0.385858 0.385919 0.385998 
0.386098 0.38622 0.386374 0.386563 0.386807 0.3871 0.387113 0.382265 0.334983 
0.336298 0.382439 0.387007 0.386958 0.386663 0.386418 0.38623 0.386076 0.385954 
0.385854 0.385775 0.385714 0.38567 0.385641 0.385627 0.385627 0.385641 0.38567 
0.385715 0.385776 0.385854 0.385954 0.386076 0.386231 0.386419 0.386663 0.386959 
0.387007 0.38244 0.336298 0.337627 0.382607 0.386899 0.386817 0.386519 0.386274 
0.386086 0.385932 0.38581 0.38571 0.385632 0.38557 0.385526 0.385497 0.385483 
0.385483 0.385497 0.385526 0.385571 0.385632 0.38571 0.38581 0.385932 0.386086 
0.386275 0.386519 0.386817 0.386899 0.382608 0.337628 0.338971 0.382769 0.386789 
0.386674 0.386374 0.38613 0.385942 0.385788 0.385666 0.385565 0.385487 0.385426 
0.385382 0.385353 0.385339 0.385339 0.385353 0.385382 0.385426 0.385487 0.385566 
0.385666 0.385788 0.385942 0.38613 0.386375 0.386675 0.386789 0.382769 0.338972 
0.34033 0.382924 0.386677 0.386531 0.386229 0.385985 0.385797 0.385643 0.385521 
0.385421 0.385343 0.385282 0.385238 0.385209 0.385195 0.385195 0.385209 0.385238 
0.385282 0.385343 0.385421 0.385521 0.385643 0.385797 0.385985 0.38623 0.386532 
0.386677 0.382924 0.340331 0.341704 0.383072 0.386562 0.386388 0.386084 0.38584 
0.385652 0.385498 0.385376 0.385276 0.385198 0.385137 0.385093 0.385065 0.38505 