# vtk DataFile Version 5.1
vtk output
ASCII
DATASET UNSTRUCTURED_GRID
POINTS 9610 double
0.1016 1.5 0 0.1016 1.45 0 0.1016 1.4 0 
0.1016 1.35 0 0.1016 1.3 0 0.1016 1.25 0 
0.1016 1.2 0 0.1016 1.15 0 0.1016 1.1 0 
0.1016 1.05 0 0.1016 1 0 0.1016 0.95 0 
0.1016 0.9 0 0.1016 0.85 0 0.1016 0.8 0 
0.1016 0.75 0 0.1016 0.7 0 0.1016 0.65 0 
0.1016 0.6 0 0.1016 0.55 0 0.1016 0.5 0 
0.1016 0.45 0 0.1016 0.4 0 0.1016 0.35 0 
0.1016 0.3 0 0.1016 0.25 0 0.1016 0.2 0 
0.1016 0.15 0 0.1016 0.1 0 0.1016 0.05 0 
0.1016 0 0 5.08 1.5 0 5.08 1.45 0 
5.08 1.4 0 5.08 1.35 0 5.08 1.3 0 
5.08 1.25 0 5.08 1.2 0 5.08 1.15 0 
5.08 1.1 0 5.08 1.05 0 5.08 1 0 
5.08 0.95 0 5.08 0.9 0 5.08 0.85 0 
5.08 0.8 0 5.08 0.75 0 5.08 0.7 0 
5.08 0.65 0 5.08 0.6 0 5.08 0.55 0 
5.08 0.5 0 5.08 0.45 0 5.08 0.4 0 
5.08 0.35 0 5.08 0.3 0 5.08 0.25 0 
5.08 0.2 0 5.08 0.15 0 5.08 0.1 0 
5.08 0.05 0 5.08 0 0 0.151384 1.5 0 
0.151384 1.45 0 0.151384 1.4 0 0.151384 1.35 0 
0.151384 1.3 0 0.151384 1.25 0 0.151384 1.2 0 
0.151384 1.15 0 0.151384 1.1 0 0.151384 1.05 0 
0.151384 1 0 0.151384 0.95 0 0.151384 0.9 0 
0.151384 0.85 0 0.151384 0.8 0 0.151384 0.75 0 
0.151384 0.7 0 0.151384 0.65 0 0.151384 0.6 0 
0.151384 0.55 0 0.151384 0.5 0 0.151384 0.45 0 
0.151384 0.4 0 0.151384 0.35 0 0.151384 0.3 0 
0.151384 0.25 0 0.151384 0.2 0 0.151384 0.15 0 
0.151384 0.1 0 0.151384 0.05 0 0.151384 0 0 
0.201168 1.5 0 0.201168 1.45 0 0.201168 1.4 0 
0.201168 1.35 0 0.201168 1.3 0 0.201168 1.25 0 
0.201168 1.2 0 0.201168 1.15 0 0.201168 1.1 0 
0.201168 1.05 0 0.201168 1 0 0.201168 0.95 0 
0.201168 0.9 0 0.201168 0.85 0 0.201168 0.8 0 
0.201168 0.75 0 0.201168 0.7 0 0.201168 0.65 0 
0.201168 0.6 0 0.201168 0.55 0 0.201168 0.5 0 
0.201168 0.45 0 0.201168 0.4 0 0.201168 0.35 0 
0.201168 0.3 0 0.201168 0.25 0 0.201168 0.2 0 
0.201168 0.15 0 0.201168 0.1 0 0.201168 0.05 0 
0.201168 0 0 0.250952 1.5 0 0.250952 1.45 0 
0.250952 1.4 0 0.250952 1.35 0 0.250952 1.3 0 
0.250952 1.25 0 0.250952 1.2 0 0.250952 1.15 0 
0.250952 1.1 0 0.250952 1.05 0 0.250952 1 0 
0.250952 0.95 0 0.250952 0.9 0 0.250952 0.85 0 
0.250952 0.8 0 0.250952 0.75 0 0.250952 0.7 0 
0.250952 0.65 0 0.250952 0.6 0 0.250952 0.55 0 
0.250952 0.5 0 0.250952 0.45 0 0.250952 0.4 0 
0.250952 0.35 0 0.250952 0.3 0 0.250952 0.25 0 
0.250952 0.2 0 0.250952 0.15 0 0.250952 0.1 0 
0.250952 0.05 0 0.250952 0 0 0.300736 1.5 0 
0.300736 1.45 0 0.300736 1.4 0 0.300736 1.35 0 
0.300736 1.3 0 0.300736 1.25 0 0.300736 1.2 0 
0.300736 1.15 0 0.300736 1.1 0 0.300736 1.05 0 
0.300736 1 0 0.300736 0.95 0 0.300736 0.9 0 
0.300736 0.85 0 0.300736 0.8 0 0.300736 0.75 0 
0.300736 0.7 0 0.300736 0.65 0 0.300736 0.6 0 
0.300736 0.55 0 0.300736 0.5 0 0.300736 0.45 0 
0.300736 0.4 0 0.300736 0.35 0 0.300736 0.3 0 
0.300736 0.25 0 0.300736 0.2 0 0.300736 0.15 0 
0.300736 0.1 0 0.300736 0.05 0 0.300736 0 0 
0.35052 1.5 0 0.35052 1.45 0 0.35052 1.4 0 
0.35052 1.35 0 0.35052 1.3 0 0.35052 1.25 0 
0.35052 1.2 0 0.35052 1.15 0 0.35052 1.1 0 
0.35052 1.05 0 0.35052 1 0 0.35052 0.95 0 
0.35052 0.9 0 0.35052 0.85 0 0.35052 0.8 0 
0.35052 0.75 0 0.35052 0.7 0 0.35052 0.65 0 
0.35052 0.6 0 0.35052 0.55 0 0.35052 0.5 0 
0.35052 0.45 0 0.35052 0.4 0 0.35052 0.35 0 
0.35052 0.3 0 0.35052 0.25 0 0.35052 0.2 0 
0.35052 0.15 0 0.35052 0.1 0 0.35052 0.05 0 
0.35052 0 0 0.400304 1.5 0 0.400304 1.45 0 
0.400304 1.4 0 0.400304 1.35 0 0.400304 1.3 0 
0.400304 1.25 0 0.400304 1.2 0 0.400304 1.15 0 
0.400304 1.1 0 0.400304 1.05 0 0.400304 1 0 
0.400304 0.95 0 0.400304 0.9 0 0.400304 0.85 0 
0.400304 0.8 0 0.400304 0.75 0 0.400304 0.7 0 
0.400304 0.65 0 0.400304 0.6 0 0.400304 0.55 0 
0.400304 0.5 0 0.400304 0.45 0 0.400304 0.4 0 
0.400304 0.35 0 0.400304 0.3 0 0.400304 0.25 0 
0.400304 0.2 0 0.400304 0.15 0 0.400304 0.1 0 
0.400304 0.05 0 0.400304 0 0 0.450088 1.5 0 
0.450088 1.45 0 0.450088 1.4 0 0.450088 1.35 0 
0.450088 1.3 0 0.450088 1.25 0 0.450088 1.2 0 
0.450088 1.15 0 0.450088 1.1 0 0.450088 1.05 0 
0.450088 1 0 0.450088 0.95 0 0.450088 0.9 0 
0.450088 0.85 0 0.450088 0.8 0 0.450088 0.75 0 
0.450088 0.7 0 0.450088 0.65 0 0.450088 0.6 0 
0.450088 0.55 0 0.450088 0.5 0 0.450088 0.45 0 
0.450088 0.4 0 0.450088 0.35 0 0.450088 0.3 0 
0.450088 0.25 0 0.450088 0.2 0 0.450088 0.15 0 
0.450088 0.1 0 0.450088 0.05 0 0.450088 0 0 
0.499872 1.5 0 0.499872 1.45 0 0.499872 1.4 0 
0.499872 1.35 0 0.499872 1.3 0 0.499872 1.25 0 
0.499872 1.2 0 0.499872 1.15 0 0.499872 1.1 0 
0.499872 1.05 0 0.499872 1 0 0.499872 0.95 0 
0.499872 0.9 0 0.499872 0.85 0 0.499872 0.8 0 
0.499872 0.75 0 0.499872 0.7 0 0.499872 0.65 0 
0.499872 0.6 0 0.499872 0.55 0 0.499872 0.5 0 
0.499872 0.45 0 0.499872 0.4 0 0.499872 0.35 0 
0.499872 0.3 0 0.499872 0.25 0 0.499872 0.2 0 
0.499872 0.15 0 0.499872 0.1 0 0.499872 0.05 0 
0.499872 0 0 0.549656 1.5 0 0.549656 1.45 0 
0.549656 1.4 0 0.549656 1.35 0 0.549656 1.3 0 
0.549656 1.25 0 0.549656 1.2 0 0.549656 1.15 0 
0.549656 1.1 0 0.549656 1.05 0 0.549656 1 0 
0.549656 0.95 0 0.549656 0.9 0 0.549656 0.85 0 
0.549656 0.8 0 0.549656 0.75 0 0.549656 0.7 0 
0.549656 0.65 0 0.549656 0.6 0 0.549656 0.55 0 
0.549656 0.5 0 0.549656 0.45 0 0.549656 0.4 0 
0.549656 0.35 0 0.549656 0.3 0 0.549656 0.25 0 
0.549656 0.2 0 0.549656 0.15 0 0.549656 0.1 0 
0.549656 0.05 0 0.549656 0 0 0.59944 1.5 0 
0.59944 1.45 0 0.59944 1.4 0 0.59944 1.35 0 
0.59944 1.3 0 0.59944 1.25 0 0.59944 1.2 0 
0.59944 1.15 0 0.59944 1.1 0 0.59944 1.05 0 
0.59944 1 0 0.59944 0.95 0 0.59944 0.9 0 
0.59944 0.85 0 0.59944 0.8 0 0.59944 0.75 0 
0.59944 0.7 0 0.59944 0.65 0 0.59944 0.6 0 
0.59944 0.55 0 0.59944 0.5 0 0.59944 0.45 0 
0.59944 0.4 0 0.59944 0.35 0 0.59944 0.3 0 
0.59944 0.25 0 0.59944 0.2 0 0.59944 0.15 0 
0.59944 0.1 0 0.59944 0.05 0 0.59944 0 0 
0.649224 1.5 0 0.649224 1.45 0 0.649224 1.4 0 
0.649224 1.35 0 0.649224 1.3 0 0.649224 1.25 0 
0.649224 1.2 0 0.649224 1.15 0 0.649224 1.1 0 
0.649224 1.05 0 0.649224 1 0 0.649224 0.95 0 
0.649224 0.9 0 0.649224 0.85 0 0.649224 0.8 0 
0.649224 0.75 0 0.649224 0.7 0 0.649224 0.65 0 
0.649224 0.6 0 0.649224 0.55 0 0.649224 0.5 0 
0.649224 0.45 0 0.649224 0.4 0 0.649224 0.35 0 
0.649224 0.3 0 0.649224 0.25 0 0.649224 0.2 0 
0.649224 0.15 0 0.649224 0.1 0 0.649224 0.05 0 
0.649224 0 0 0.699008 1.5 0 0.699008 1.45 0 
0.699008 1.4 0 0.699008 1.35 0 0.699008 1.3 0 
0.699008 1.25 0 0.699008 1.2 0 0.699008 1.15 0 
0.699008 1.1 0 0.699008 1.05 0 0.699008 1 0 
0.699008 0.95 0 0.699008 0.9 0 0.699008 0.85 0 
0.699008 0.8 0 0.699008 0.75 0 0.699008 0.7 0 
0.699008 0.65 0 0.699008 0.6 0 0.699008 0.55 0 
0.699008 0.5 0 0.699008 0.45 0 0.699008 0.4 0 
0.699008 0.35 0 0.699008 0.3 0 0.699008 0.25 0 
0.699008 0.2 0 0.699008 0.15 0 0.699008 0.1 0 
0.699008 0.05 0 0.699008 0 0 0.748792 1.5 0 
0.748792 1.45 0 0.748792 1.4 0 0.748792 1.35 0 
0.748792 1.3 0 0.748792 1.25 0 0.748792 1.2 0 
0.748792 1.15 0 0.748792 1.1 0 0.748792 1.05 0 
0.748792 1 0 0.748792 0.95 0 0.748792 0.9 0 
0.748792 0.85 0 0.748792 0.8 0 0.748792 0.75 0 
0.748792 0.7 0 0.748792 0.65 0 0.748792 0.6 0 
0.748792 0.55 0 0.748792 0.5 0 0.748792 0.45 0 
0.748792 0.4 0 0.748792 0.35 0 0.748792 0.3 0 
0.748792 0.25 0 0.748792 0.2 0 0.748792 0.15 0 
0.748792 0.1 0 0.748792 0.05 0 0.748792 0 0 
0.798576 1.5 0 0.798576 1.45 0 0.798576 1.4 0 
0.798576 1.35 0 0.798576 1.3 0 0.798576 1.25 0 
0.798576 1.2 0 0.798576 1.15 0 0.798576 1.1 0 
0.798576 1.05 0 0.798576 1 0 0.798576 0.95 0 
0.798576 0.9 0 0.798576 0.85 0 0.798576 0.8 0 
0.798576 0.75 0 0.798576 0.7 0 0.798576 0.65 0 
0.798576 0.6 0 0.798576 0.55 0 0.798576 0.5 0 
0.798576 0.45 0 0.798576 0.4 0 0.798576 0.35 0 
0.798576 0.3 0 0.798576 0.25 0 0.798576 0.2 0 
0.798576 0.15 0 0.798576 0.1 0 0.798576 0.05 0 
0.798576 0 0 0.84836 1.5 0 0.84836 1.45 0 
0.84836 1.4 0 0.84836 1.35 0 0.84836 1.3 0 
0.84836 1.25 0 0.84836 1.2 0 0.84836 1.15 0 
0.84836 1.1 0 0.84836 1.05 0 0.84836 1 0 
0.84836 0.95 0 0.84836 0.9 0 0.84836 0.85 0 
0.84836 0.8 0 0.84836 0.75 0 0.84836 0.7 0 
0.84836 0.65 0 0.84836 0.6 0 0.84836 0.55 0 
0.84836 0.5 0 0.84836 0.45 0 0.84836 0.4 0 
0.84836 0.35 0 0.84836 0.3 0 0.84836 0.25 0 
0.84836 0.2 0 0.84836 0.15 0 0.84836 0.1 0 
0.84836 0.05 0 0.84836 0 0 0.898144 1.5 0 
0.898144 1.45 0 0.898144 1.4 0 0.898144 1.35 0 
0.898144 1.3 0 0.898144 1.25 0 0.898144 1.2 0 
0.898144 1.15 0 0.898144 1.1 0 0.898144 1.05 0 
0.898144 1 0 0.898144 0.95 0 0.898144 0.9 0 
0.898144 0.85 0 0.898144 0.8 0 0.898144 0.75 0 
0.898144 0.7 0 0.898144 0.65 0 0.898144 0.6 0 
0.898144 0.55 0 0.898144 0.5 0 0.898144 0.45 0 
0.898144 0.4 0 0.898144 0.35 0 0.898144 0.3 0 
0.898144 0.25 0 0.898144 0.2 0 0.898144 0.15 0 
0.898144 0.1 0 0.898144 0.05 0 0.898144 0 0 
0.947928 1.5 0 0.947928 1.45 0 0.947928 1.4 0 
0.947928 1.35 0 0.947928 1.3 0 0.947928 1.25 0 
0.947928 1.2 0 0.947928 1.15 0 0.947928 1.1 0 
0.947928 1.05 0 0.947928 1 0 0.947928 0.95 0 
0.947928 0.9 0 0.947928 0.85 0 0.947928 0.8 0 
0.947928 0.75 0 0.947928 0.7 0 0.947928 0.65 0 
0.947928 0.6 0 0.947928 0.55 0 0.947928 0.5 0 
0.947928 0.45 0 0.947928 0.4 0 0.947928 0.35 0 
0.947928 0.3 0 0.947928 0.25 0 0.947928 0.2 0 
0.947928 0.15 0 0.947928 0.1 0 0.947928 0.05 0 
0.947928 0 0 0.997712 1.5 0 0.997712 1.45 0 
0.997712 1.4 0 0.997712 1.35 0 0.997712 1.3 0 
0.997712 1.25 0 0.997712 1.2 0 0.997712 1.15 0 
0.997712 1.1 0 0.997712 1.05 0 0.997712 1 0 
0.997712 0.95 0 0.997712 0.9 0 0.997712 0.85 0 
0.997712 0.8 0 0.997712 0.75 0 0.997712 0.7 0 
0.997712 0.65 0 0.997712 0.6 0 0.997712 0.55 0 
0.997712 0.5 0 0.997712 0.45 0 0.997712 0.4 0 
0.997712 0.35 0 0.997712 0.3 0 0.997712 0.25 0 
0.997712 0.2 0 0.997712 0.15 0 0.997712 0.1 0 
0.997712 0.05 0 0.997712 0 0 1.047496 1.5 0 
1.047496 1.45 0 1.047496 1.4 0 1.047496 1.35 0 
1.047496 1.3 0 1.047496 1.25 0 1.047496 1.2 0 
1.047496 1.15 0 1.047496 1.1 0 1.047496 1.05 0 
1.047496 1 0 1.047496 0.95 0 1.047496 0.9 0 
1.047496 0.85 0 1.047496 0.8 0 1.047496 0.75 0 
1.047496 0.7 0 1.047496 0.65 0 1.047496 0.6 0 
1.047496 0.55 0 1.047496 0.5 0 1.047496 0.45 0 
1.047496 0.4 0 1.047496 0.35 0 1.047496 0.3 0 
1.047496 0.25 0 1.047496 0.2 0 1.047496 0.15 0 
[...]
CELL_DATA 9270
FIELD FieldData 7
B_Stress_n_p_m2 1 9270 float
0.536233 0.590425 0.600592 0.604062 0.607437 0.611641 0.616954 0.623526 0.631568 
0.641353 0.653231 0.666128 0.679341 0.706806 0.728886 0.561947 0.343054 0.238138 
0.177751 0.13872 0.111988 0.0930297 0.0793655 0.0695398 0.0626403 0.0579805 0.0550334 
0.0523147 0.0486659 0.0417586 0.500743 0.55371 0.563022 0.565053 0.566359 0.567723 
0.569258 0.570782 0.572063 0.572645 0.571561 0.566519 0.555447 0.536307 0.482736 
0.363776 0.266916 0.197772 0.149416 0.115015 0.0900636 0.0716867 0.058039 0.0478915 
0.0403546 0.0346564 0.0300374 0.0248688 0.0182847 0.0064923 0.470082 0.522068 0.530766 
0.531725 0.531467 0.530745 0.529581 0.527667 0.524634 0.51987 0.512389 0.500668 
0.483447 0.457495 0.409699 0.335464 0.266117 0.211079 0.169044 0.137257 0.113218 
0.0949875 0.0811196 0.0705094 0.0622269 0.0553527 0.0488196 0.040983 0.0307567 0.0160983 
0.440859 0.491995 0.5002 0.500268 0.498711 0.496298 0.493004 0.48847 0.482278 
0.473777 0.46205 0.445872 0.42393 0.393708 0.350944 0.29835 0.248061 0.20509 
0.170108 0.142297 0.120443 0.103373 0.0900533 0.0795704 0.0710363 0.0634722 0.0556481 
0.0459504 0.0331199 0.0161422 0.413649 0.464076 0.471937 0.471337 0.468804 0.465159 
0.460368 0.454093 0.445955 0.435411 0.421783 0.404271 0.38202 0.353763 0.318424 
0.27849 0.239575 0.204798 0.175191 0.150705 0.130814 0.114826 0.10202 0.0916513 
0.082901 0.074787 0.0660147 0.055008 0.040321 0.0215176 0.388495 0.438339 0.445991 
0.444923 0.441701 0.437214 0.431449 0.424113 0.414898 0.403385 0.389105 0.371557 
0.350269 0.324794 0.295229 0.263366 0.232099 0.203389 0.17817 0.156672 0.138718 
0.123925 0.111791 0.101722 0.0929803 0.0846112 0.0752901 0.0634109 0.0472536 0.0263937 
0.365416 0.414787 0.422347 0.420985 0.41732 0.412321 0.406005 0.398135 0.388485 
0.376755 0.362653 0.3459 0.326304 0.303821 0.278859 0.252641 0.226828 0.202703 
0.181019 0.162085 0.145902 0.132269 0.12085 0.111175 0.102597 0.0942124 0.0846936 
0.0723696 0.0551801 0.032382 0.34437 0.393358 0.400924 0.399412 0.395506 0.390252 
0.383704 0.375683 0.366033 0.354554 0.341081 0.325487 0.307745 0.287988 0.266656 
0.244595 0.222844 0.202272 0.183467 0.166732 0.152149 0.139631 0.128954 0.119754 
0.111473 0.103272 0.093827 0.0813733 0.0634482 0.0387387 0.325275 0.373953 0.381599 
0.380052 0.376059 0.370748 0.3642 0.356292 0.346925 0.335976 0.323368 0.309069 
0.29314 0.275773 0.25736 0.238501 0.21989 0.202142 0.185707 0.170858 0.15771 
0.14624 0.136308 0.127635 0.119748 0.111877 0.102712 0.090383 0.0719866 0.0454634 
0.308021 0.356446 0.364226 0.362729 0.358766 0.353538 0.347153 0.339532 0.33062 
0.32035 0.308704 0.295704 0.281452 0.266148 0.250118 0.233803 0.217693 0.202233 
0.187775 0.174552 0.162687 0.152197 0.142997 0.134881 0.127452 0.120011 0.111269 
0.0992487 0.080592 0.0523598 0.292482 0.340696 0.348647 0.347262 0.343412 0.338364 
0.332248 0.325021 0.316659 0.307135 0.296465 0.284703 0.271965 0.258436 0.244385 
0.230143 0.21607 0.202502 0.189713 0.177901 0.167185 0.157604 0.149114 0.141566 
0.134631 0.12768 0.119451 0.107872 0.0891293 0.059309 0.278524 0.326558 0.334701 
0.333469 0.329788 0.324984 0.319202 0.312427 0.304658 0.295893 0.28617 0.275556 
0.264168 0.252171 0.239784 0.227264 0.214885 0.202904 0.19154 0.180961 0.171277 
0.162538 0.154729 0.147746 0.141318 0.134886 0.127222 0.11617 0.0974801 0.0661979 
0.266012 0.313887 0.322232 0.321178 0.317701 0.313178 0.307764 0.301467 0.294299 
0.286276 0.277446 0.267881 0.257691 0.247022 0.236051 0.224984 0.214034 0.203404 
0.193271 0.183776 0.17502 0.167059 0.159897 0.153465 0.147542 0.141635 0.134554 
0.124081 0.105555 0.072939 0.254815 0.302544 0.311091 0.310227 0.306974 0.30275 
0.297717 0.291901 0.285321 0.278004 0.270002 0.261387 0.25226 0.242746 0.232994 
0.223168 0.213441 0.203973 0.194911 0.186376 0.178457 0.171214 0.164662 0.158758 
0.153327 0.147934 0.141435 0.131566 0.113286 0.0794641 0.244808 0.292398 0.30114 
0.300469 0.297449 0.293528 0.288875 0.283528 0.27751 0.270853 0.263611 0.255852 
0.247668 0.239165 0.23047 0.221717 0.213045 0.204587 0.196466 0.188784 0.181622 
0.175038 0.169057 0.163657 0.158695 0.153794 0.14786 0.138599 0.12063 0.0857235 
0.235876 0.283327 0.292251 0.291771 0.288982 0.28536 0.281077 0.276178 0.270688 
0.264643 0.258094 0.251105 0.243757 0.236144 0.228371 0.220552 0.2128 0.205228 
0.197937 0.191016 0.184539 0.178561 0.173112 0.168186 0.163668 0.159231 0.153834 
0.14517 0.127556 0.0916835 0.22791 0.275219 0.284309 0.284013 0.28145 0.278116 
0.274185 0.269708 0.26471 0.259226 0.253306 0.247009 0.240405 0.233578 0.226616 
0.219615 0.212671 0.205879 0.199324 0.193086 0.187229 0.181807 0.176852 0.172368 
0.168265 0.16426 0.159367 0.151279 0.134051 0.0973234 0.220813 0.267974 0.277211 
0.277088 0.274741 0.271681 0.268081 0.263998 0.259453 0.254483 0.249133 0.243456 
0.237517 0.231385 0.225139 0.21886 0.21263 0.206528 0.20063 0.195004 0.18971 
0.184796 0.180296 0.176224 0.172506 0.1689 0.164474 0.156936 0.140113 0.102633 
0.214496 0.261499 0.270865 0.270901 0.268758 0.265955 0.262665 0.258946 0.254817 
0.250315 0.24548 0.240361 0.235014 0.229501 0.22389 0.218251 0.212653 0.207166 
0.201855 0.19678 0.191995 0.187546 0.183465 0.179773 0.17641 0.17317 0.169174 
0.162155 0.145748 0.107612 0.208877 0.255714 0.265187 0.265369 0.263417 0.260854 
0.25785 0.254466 0.250718 0.246641 0.242271 0.237653 0.232836 0.227875 0.222829 
0.217758 0.212723 0.207784 0.202999 0.198421 0.194098 0.190072 0.186377 0.183034 
0.179998 0.177091 0.173489 0.166956 0.150967 0.112265 0.203886 0.250544 0.260103 
0.260418 0.258643 0.256301 0.253561 0.250484 0.247083 0.243392 0.239442 0.235274 
0.230932 0.226464 0.221922 0.217358 0.212826 0.208379 0.204066 0.199935 0.19603 
0.192391 0.189048 0.186026 0.183288 0.180684 0.177441 0.17136 0.155787 0.116602 
0.199457 0.245923 0.25555 0.255983 0.254371 0.252233 0.249735 0.246939 0.243853 
0.240511 0.23694 0.233177 0.229261 0.225235 0.221143 0.217033 0.212951 0.208944 
0.205056 0.201329 0.197803 0.194515 0.191494 0.188765 0.1863 0.18397 0.181052 
0.175391 0.160229 0.120636 0.195532 0.241795 0.251468 0.252006 0.250544 0.248593 
0.246316 0.243775 0.240977 0.237951 0.234722 0.231324 0.22779 0.22416 0.220472 
0.216768 0.21309 0.209478 0.205972 0.20261 0.199428 0.196459 0.193731 0.19127 
0.189052 0.18697 0.184346 0.179074 0.164314 0.124382 0.19206 0.238105 0.247807 
0.248436 0.247111 0.245331 0.243257 0.240948 0.23841 0.23567 0.23275 0.22968 
0.22649 0.223215 0.21989 0.216551 0.213235 0.209979 0.206817 0.203785 0.200913 
0.198234 0.195773 0.193556 0.191564 0.189704 0.187347 0.182433 0.168066 0.127858 
0.188994 0.234808 0.24452 0.245229 0.244029 0.242404 0.240515 0.238417 0.236115 
0.233634 0.230992 0.228218 0.225337 0.222382 0.219383 0.216372 0.213382 0.210445 
0.207594 0.204859 0.202269 0.199853 0.197634 0.195639 0.193851 0.192192 0.190075 
0.185491 0.171506 0.131081 0.186294 0.231862 0.241568 0.242346 0.241259 0.239776 
0.238054 0.236148 0.234059 0.231812 0.229422 0.226914 0.224312 0.221645 0.218938 
0.216222 0.213525 0.210877 0.208306 0.20584 0.203505 0.201328 0.199329 0.197534 
0.195931 0.194454 0.192553 0.188273 0.174658 0.134069 0.183921 0.229231 0.238915 
0.23975 0.238766 0.237412 0.235843 0.234111 0.232215 0.230179 0.228016 0.225749 
0.223398 0.220989 0.218547 0.216096 0.213664 0.211275 0.208957 0.206734 0.204629 
0.202668 0.200868 0.199256 0.197821 0.196506 0.1948 0.1908 0.177544 0.136839 
0.181843 0.226882 0.236529 0.237413 0.236521 0.235284 0.233853 0.232278 0.230558 
0.228713 0.226755 0.224704 0.22258 0.220405 0.2182 0.215988 0.213794 0.21164 
0.20955 0.207546 0.205649 0.203884 0.202265 0.200818 0.199534 0.198366 0.196835 
0.193094 0.180185 0.139409 0.180031 0.224784 0.234382 0.235305 0.234497 0.233366 
0.23206 0.230628 0.229066 0.227394 0.225621 0.223766 0.221846 0.219881 0.21789 
0.215895 0.213915 0.211973 0.210088 0.208282 0.206574 0.204985 0.203531 0.202233 
0.201086 0.200049 0.198676 0.195174 0.182601 0.141794 0.178457 0.222913 0.232449 
0.233403 0.23267 0.231635 0.230443 0.22914 0.227722 0.226206 0.2246 0.222922 
0.221186 0.219411 0.217613 0.215812 0.214026 0.212274 0.210575 0.208949 0.207411 
0.205982 0.204675 0.203513 0.20249 0.201571 0.200341 0.197058 0.184811 0.144009 
0.1771 0.221245 0.230708 0.231685 0.23102 0.230071 0.228983 0.227797 0.226508 
0.225133 0.223678 0.22216 0.22059 0.218986 0.217362 0.215737 0.214125 0.212546 
0.211015 0.20955 0.208166 0.206882 0.20571 0.204669 0.203758 0.202945 0.201843 
0.198764 0.186832 0.146071 0.175937 0.219758 0.229137 0.230132 0.229527 0.228658 
0.227663 0.226583 0.225411 0.224164 0.222845 0.221471 0.220051 0.218601 0.217135 
0.215667 0.214214 0.21279 0.211411 0.210092 0.208847 0.207693 0.206642 0.205712 
0.204901 0.204184 0.203198 0.200308 0.188681 0.147991 0.174949 0.218435 0.227721 
0.228726 0.228177 0.227378 0.226468 0.225484 0.224418 0.223286 0.222091 0.220846 
0.219562 0.218251 0.216927 0.215602 0.214291 0.213008 0.211765 0.210578 0.209459 
0.208424 0.207482 0.206652 0.205931 0.2053 0.204419 0.201703 0.190373 0.149784 
0.174119 0.217258 0.226443 0.227454 0.226952 0.226219 0.225385 0.224487 0.223518 
0.222489 0.221406 0.220279 0.219117 0.217932 0.216736 0.21554 0.214357 0.213201 
0.212082 0.211014 0.210008 0.209079 0.208236 0.207496 0.206858 0.206303 0.205517 
0.202964 0.191922 0.15146 0.173433 0.216212 0.225289 0.2263 0.225842 0.225166 
0.224403 0.223583 0.2227 0.221766 0.220783 0.219762 0.218711 0.217639 0.216559 
0.215479 0.214413 0.21337 0.212363 0.211403 0.2105 0.209667 0.208913 0.208255 
0.20769 0.207205 0.206505 0.204102 0.193342 0.153031 0.172877 0.215284 0.224245 
0.225253 0.224834 0.224211 0.22351 0.222761 0.221957 0.221108 0.220216 0.21929 
0.218339 0.21737 0.216394 0.21542 0.214458 0.213519 0.212612 0.211749 0.210938 
0.210193 0.20952 0.208935 0.208437 0.208014 0.207391 0.20513 0.194643 0.154506 
0.172437 0.214462 0.223302 0.224303 0.223918 0.223342 0.222698 0.222013 0.22128 
0.220507 0.219698 0.218859 0.217997 0.217121 0.216239 0.21536 0.214493 0.213647 
0.212831 0.212056 0.211329 0.210662 0.210062 0.209543 0.209105 0.208738 0.208185 
0.206056 0.195837 0.155895 0.172104 0.213735 0.222448 0.223438 0.223083 0.222551 
0.221959 0.221331 0.220662 0.219959 0.219224 0.218463 0.217683 0.216891 0.216094 
0.2153 0.214518 0.213756 0.213023 0.212327 0.211675 0.211079 0.210545 0.210086 
0.209702 0.209386 0.208897 0.206891 0.196933 0.157206 0.171867 0.213094 0.221675 
0.222651 0.222324 0.22183 0.221284 0.220709 0.220098 0.219458 0.218789 0.218099 
0.217393 0.216676 0.215956 0.21524 0.214535 0.213849 0.21319 0.212565 0.211982 
0.21145 0.210975 0.210569 0.210235 0.209964 0.209532 0.207642 0.197941 0.158447 
0.171716 0.212529 0.220974 0.221934 0.22163 0.221171 0.220668 0.22014 0.219582 
0.218998 0.21839 0.217764 0.217124 0.216475 0.215824 0.215178 0.214543 0.213926 
0.213333 0.212773 0.212251 0.211777 0.211356 0.210999 0.210709 0.210478 0.2101 
0.208319 0.198868 0.159625 0.171645 0.212033 0.220338 0.22128 0.220997 0.22057 
0.220104 0.219619 0.219108 0.218576 0.218023 0.217454 0.216874 0.216287 0.215699 
0.215116 0.214543 0.213988 0.213456 0.212954 0.212488 0.212066 0.211693 0.21138 
0.211129 0.210936 0.210605 0.208927 0.199723 0.160747 0.171645 0.211599 0.219761 
0.220682 0.220418 0.220019 0.219588 0.219141 0.218673 0.218187 0.217684 0.217167 
0.216641 0.216109 0.215578 0.215052 0.214536 0.214037 0.213559 0.21311 0.212694 
0.212319 0.21199 0.211717 0.211502 0.211341 0.211054 0.209473 0.200512 0.161818 
0.171706 0.211224 0.219237 0.220135 0.219887 0.219514 0.219114 0.218702 0.218273 
0.217828 0.21737 0.2169 0.216423 0.215942 0.215461 0.214987 0.214522 0.214074 
0.213645 0.213244 0.212873 0.212541 0.212251 0.212013 0.21183 0.2117 0.211452 
0.209964 0.20124 0.162844 0.171822 0.210905 0.218761 0.219634 0.2194 0.21905 
0.218678 0.218298 0.217904 0.217497 0.217079 0.216651 0.216218 0.215783 0.215348 
0.21492 0.214502 0.214099 0.213715 0.213356 0.213027 0.212733 0.212478 0.212273 
0.212119 0.212016 0.211805 0.210403 0.201915 0.16383 0.171987 0.210635 0.218327 
0.219174 0.218953 0.218623 0.218277 0.217925 0.217562 0.21719 0.216808 0.216419 
0.216026 0.215631 0.215239 0.214852 0.214476 0.214114 0.213771 0.21345 0.213157 
0.212898 0.212676 0.2125 0.212372 0.212293 0.212115 0.210796 0.20254 0.164779 
0.172196 0.21041 0.217931 0.218751 0.218541 0.21823 0.217907 0.217581 0.217246 
0.216905 0.216556 0.216201 0.215844 0.215486 0.215132 0.214783 0.214445 0.21412 
0.213813 0.213527 0.213268 0.21304 0.212846 0.212696 0.212592 0.212535 0.212387 
0.211148 0.20312 0.165697 0.172446 0.210224 0.21757 0.218362 0.218161 0.217866 
0.217564 0.217262 0.216953 0.216639 0.21632 0.215997 0.215672 0.215348 0.215027 
0.214713 0.214408 0.214117 0.213842 0.213589 0.213359 0.213159 0.212992 0.212866 
0.212783 0.212745 0.212626 0.211461 0.20366 0.166586 0.172734 0.210073 0.217242 
0.218003 0.217809 0.21753 0.217247 0.216965 0.21668 0.216391 0.216099 0.215804 
0.215508 0.215214 0.214924 0.214641 0.214367 0.214106 0.213861 0.213636 0.213434 
0.213259 0.213115 0.21301 0.212947 0.212927 0.212833 0.21174 0.204163 0.167451 
0.173056 0.209952 0.216942 0.217671 0.217484 0.217219 0.216953 0.216689 0.216425 
0.216159 0.215891 0.215622 0.215353 0.215086 0.214824 0.214568 0.214322 0.214089 
0.21387 0.213671 0.213493 0.213341 0.213219 0.213133 0.213087 0.213083 0.213012 
0.211988 0.204632 0.168294 0.17341 0.20986 0.216668 0.217364 0.217182 0.216929 
0.216678 0.216432 0.216187 0.215941 0.215695 0.215449 0.215204 0.214962 0.214724 
0.214494 0.214273 0.214064 0.21387 0.213693 0.213537 0.213407 0.213303 0.213235 
0.213204 0.213215 0.213166 0.212208 0.205071 0.169118 0.173794 0.209792 0.216417 
0.217079 0.216901 0.216659 0.216422 0.216192 0.215964 0.215736 0.21551 0.215284 
0.215061 0.214841 0.214626 0.214419 0.21422 0.214034 0.213861 0.213706 0.21357 
0.213458 0.213372 0.213319 0.213302 0.213326 0.213297 0.212401 0.205482 0.169926 
0.174204 0.209746 0.216186 0.216813 0.216639 0.216407 0.216183 0.215966 0.215753 
0.215543 0.215334 0.215127 0.214924 0.214724 0.214529 0.214342 0.214164 0.213998 
0.213845 0.213708 0.21359 0.213495 0.213425 0.213386 0.213382 0.213418 0.213407 
0.212572 0.205868 0.170719 0.17464 0.209719 0.215973 0.216566 0.216394 0.216171 
0.215958 0.215754 0.215555 0.21536 0.215167 0.214977 0.214791 0.214609 0.214434 
0.214265 0.214105 0.213957 0.213822 0.213702 0.213601 0.213521 0.213464 0.213439 
0.213446 0.213493 0.213498 0.212721 0.20623 0.1715 0.1751 0.20971 0.215777 
0.216334 0.216165 0.21595 0.215747 0.215554 0.215368 0.215186 0.215008 0.214834 
0.214663 0.214498 0.214338 0.214187 0.214044 0.213912 0.213792 0.213688 0.213601 
0.213535 0.213491 0.213477 0.213495 0.213551 0.213572 0.212851 0.206572 0.172271 
0.175581 0.209717 0.215595 0.216117 0.215949 0.215742 0.215548 0.215365 0.215191 
0.215021 0.214856 0.214695 0.214539 0.214388 0.214244 0.214107 0.21398 0.213862 
0.213757 0.213667 0.213593 0.21354 0.213507 0.213504 0.213531 0.213596 0.21363 
0.212963 0.206894 0.173034 0.176084 0.209736 0.215427 0.215913 0.215746 0.215545 
0.215359 0.215186 0.215022 0.214863 0.21471 0.214562 0.214419 0.214281 0.21415 
0.214027 0.213913 0.213809 0.213717 0.21364 0.213578 0.213535 0.213513 0.213519 
0.213554 0.213627 0.213675 0.213059 0.207199 0.17379 0.176605 0.209768 0.215269 
0.215721 0.215554 0.215359 0.215181 0.215016 0.214861 0.214712 0.21457 0.214433 
0.214301 0.214176 0.214057 0.213946 0.213844 0.213753 0.213672 0.213606 0.213555 
0.213522 0.21351 0.213524 0.213567 0.213647 0.213707 0.21314 0.207487 0.17454 
0.177145 0.20981 0.215122 0.215539 0.215372 0.215182 0.215011 0.214854 0.214707 
0.214567 0.214435 0.214308 0.214187 0.214072 0.213965 0.213865 0.213774 0.213693 
0.213623 0.213567 0.213526 0.213502 0.213498 0.21352 0.21357 0.213656 0.213727 
0.213208 0.20776 0.175286 0.177702 0.209861 0.214984 0.215367 0.2152 0.215014 
0.214849 0.214698 0.214559 0.214428 0.214304 0.214186 0.214075 0.21397 0.213872 
0.213782 0.213701 0.21363 0.21357 0.213524 0.213491 0.213476 0.213479 0.213508 
0.213563 0.213656 0.213737 0.213264 0.20802 0.176029 0.178275 0.20992 0.214854 
0.215202 0.215035 0.214854 0.214695 0.21455 0.214417 0.214293 0.214177 0.214068 
0.213965 0.213869 0.21378 0.213699 0.213627 0.213565 0.213514 0.213475 0.21345 
0.213443 0.213453 0.213488 0.213549 0.213646 0.213737 0.213308 0.208266 0.176771 
0.178864 0.209986 0.214731 0.215046 0.214878 0.214701 0.214546 0.214407 0.214281 
0.214163 0.214054 0.213952 0.213857 0.213769 0.213689 0.213616 0.213552 0.213498 
0.213454 0.213423 0.213405 0.213404 0.213421 0.213461 0.213527 0.213629 0.213729 
0.213343 0.208501 0.177511 0.179468 0.210057 0.214614 0.214896 0.214727 0.214554 
0.214403 0.214269 0.214149 0.214037 0.213934 0.213839 0.213751 0.21367 0.213597 
0.213532 0.213475 0.213428 0.213391 0.213367 0.213356 0.213361 0.213383 0.213428 
0.213499 0.213605 0.213713 0.213368 0.208725 0.178252 0.180086 0.210133 0.214502 
0.214752 0.214583 0.214412 0.214266 0.214136 0.214021 0.213914 0.213818 0.213728 
0.213647 0.213572 0.213506 0.213447 0.213397 0.213356 0.213326 0.213308 0.213302 
0.213313 0.21334 0.21339 0.213465 0.213575 0.21369 0.213384 0.208938 0.178994 
0.180718 0.210213 0.214395 0.214614 0.214443 0.214275 0.214133 0.214007 0.213896 
0.213795 0.213703 0.213619 0.213544 0.213475 0.213414 0.213362 0.213318 0.213283 
0.213258 0.213246 0.213245 0.213261 0.213292 0.213346 0.213425 0.213538 0.21366 
0.213392 0.209142 0.179737 0.181363 0.210297 0.214293 0.214481 0.214309 0.214143 
0.214004 0.213882 0.213775 0.213678 0.213592 0.213512 0.213442 0.213378 0.213323 
0.213276 0.213237 0.213208 0.213188 0.213181 0.213185 0.213205 0.21324 0.213298 
0.21338 0.213497 0.213625 0.213393 0.209336 0.180483 0.182022 0.210382 0.214193 
0.214351 0.214179 0.214015 0.213879 0.213761 0.213657 0.213564 0.213482 0.213407 
0.213341 0.213283 0.213232 0.21319 0.213156 0.213131 0.213116 0.213113 0.213122 
0.213146 0.213185 0.213246 0.213331 0.21345 0.213584 0.213387 0.209522 0.181232 
0.182693 0.210469 0.214097 0.214226 0.214052 0.213891 0.213758 0.213642 0.213542 
0.213453 0.213374 0.213303 0.213241 0.213187 0.213141 0.213103 0.213074 0.213053 
0.213043 0.213044 0.213056 0.213083 0.213126 0.21319 0.213277 0.213399 0.213538 
0.213375 0.209699 0.181984 0.183376 0.210558 0.214003 0.214104 0.213929 0.21377 
0.213639 0.213526 0.213429 0.213343 0.213268 0.213201 0.213143 0.213092 0.21305 
0.213016 0.21299 0.212974 0.212967 0.212972 0.212988 0.213018 0.213064 0.213131 
0.21322 0.213345 0.213488 0.213357 0.209869 0.182741 0.184071 0.210646 0.213911 
0.213985 0.213809 0.213652 0.213523 0.213412 0.213318 0.213235 0.213163 0.213099 
0.213045 0.212998 0.212959 0.212929 0.212907 0.212894 0.21289 0.212898 0.212917 
0.212951 0.212999 0.213068 0.21316 0.213286 0.213434 0.213333 0.210031 0.183503 
0.184778 0.210735 0.213821 0.213869 0.213692 0.213536 0.21341 0.213301 0.21321 
0.213129 0.21306 0.212999 0.212947 0.212904 0.212868 0.212841 0.212822 0.212812 
0.212812 0.212823 0.212844 0.212881 0.212931 0.213003 0.213096 0.213224 0.213376 
0.213304 0.210186 0.184269 0.185496 0.210823 0.213732 0.213755 0.213578 0.213423 
0.213298 0.213192 0.213102 0.213024 0.212957 0.212899 0.212851 0.21281 0.212777 
0.212753 0.212737 0.21273 0.212732 0.212746 0.21277 0.212808 0.212861 0.212935 
0.21303 0.21316 0.213315 0.213271 0.210333 0.185042 0.186226 0.210911 0.213644 
0.213644 0.213465 0.213312 0.213189 0.213084 0.212997 0.212921 0.212856 0.212801 
0.212755 0.212716 0.212686 0.212665 0.212651 0.212647 0.212652 0.212667 0.212694 
0.212734 0.212789 0.212864 0.212961 0.213092 0.213251 0.213233 0.210474 0.185821 
0.186968 0.210996 0.213557 0.213534 0.213355 0.213202 0.213081 0.212978 0.212893 
0.212818 0.212756 0.212703 0.212659 0.212623 0.212595 0.212576 0.212565 0.212563 
0.21257 0.212588 0.212616 0.212659 0.212715 0.212792 0.212889 0.213022 0.213184 
0.213192 0.210607 0.186606 0.18772 0.21108 0.213471 0.213426 0.213246 0.213094 
0.212975 0.212873 0.212789 0.212717 0.212657 0.212606 0.212564 0.21253 0.212505 