# vtk DataFile Version 5.1
vtk output
ASCII
DATASET UNSTRUCTURED_GRID
POINTS 4929 double
0.1016 1.5 0 0.1016 1.45 0 0.1016 1.4 0 
0.1016 1.35 0 0.1016 1.3 0 0.1016 1.25 0 
0.1016 1.2 0 0.1016 1.15 0 0.1016 1.1 0 
0.1016 1.05 0 0.1016 1 0 0.1016 0.95 0 
0.1016 0.9 0 0.1016 0.85 0 0.1016 0.8 0 
0.1016 0.75 0 0.1016 0.7 0 0.1016 0.65 0 
0.1016 0.6 0 0.1016 0.55 0 0.1016 0.5 0 
0.1016 0.45 0 0.1016 0.4 0 0.1016 0.35 0 
0.1016 0.3 0 0.1016 0.25 0 0.1016 0.2 0 
0.1016 0.15 0 0.1016 0.1 0 0.1016 0.05 0 
0.1016 0 0 5.08 1.5 0 5.08 1.45 0 
5.08 1.4 0 5.08 1.35 0 5.08 1.3 0 
5.08 1.25 0 5.08 1.2 0 5.08 1.15 0 
5.08 1.1 0 5.08 1.05 0 5.08 1 0 
5.08 0.95 0 5.08 0.9 0 5.08 0.85 0 
5.08 0.8 0 5.08 0.75 0 5.08 0.7 0 
5.08 0.65 0 5.08 0.6 0 5.08 0.55 0 
5.08 0.5 0 5.08 0.45 0 5.08 0.4 0 
5.08 0.35 0 5.08 0.3 0 5.08 0.25 0 
5.08 0.2 0 5.08 0.15 0 5.08 0.1 0 
5.08 0.05 0 5.08 0 0 0.12737462728 1.5 0 
0.12737462728 1.45 0 0.12737462728 1.4 0 0.12737462728 1.35 0 
0.12737462728 1.3 0 0.12737462728 1.25 0 0.12737462728 1.2 0 
0.12737462728 1.15 0 0.12737462728 1.1 0 0.12737462728 1.05 0 
0.12737462728 1 0 0.12737462728 0.95 0 0.12737462728 0.9 0 
0.12737462728 0.85 0 0.12737462728 0.8 0 0.12737462728 0.75 0 
0.12737462728 0.7 0 0.12737462728 0.65 0 0.12737462728 0.6 0 
0.12737462728 0.55 0 0.12737462728 0.5 0 0.12737462728 0.45 0 
0.12737462728 0.4 0 0.12737462728 0.35 0 0.12737462728 0.3 0 
0.12737462728 0.25 0 0.12737462728 0.2 0 0.12737462728 0.15 0 
0.12737462728 0.1 0 0.12737462728 0.05 0 0.12737462728 0 0 
0.15441581276 1.5 0 0.15441581276 1.45 0 0.15441581276 1.4 0 
0.15441581276 1.35 0 0.15441581276 1.3 0 0.15441581276 1.25 0 
0.15441581276 1.2 0 0.15441581276 1.15 0 0.15441581276 1.1 0 
0.15441581276 1.05 0 0.15441581276 1 0 0.15441581276 0.95 0 
0.15441581276 0.9 0 0.15441581276 0.85 0 0.15441581276 0.8 0 
0.15441581276 0.75 0 0.15441581276 0.7 0 0.15441581276 0.65 0 
0.15441581276 0.6 0 0.15441581276 0.55 0 0.15441581276 0.5 0 
0.15441581276 0.45 0 0.15441581276 0.4 0 0.15441581276 0.35 0 
0.15441581276 0.3 0 0.15441581276 0.25 0 0.15441581276 0.2 0 
0.15441581276 0.15 0 0.15441581276 0.1 0 0.15441581276 0.05 0 
0.15441581276 0 0 0.18278579477 1.5 0 0.18278579477 1.45 0 
0.18278579477 1.4 0 0.18278579477 1.35 0 0.18278579477 1.3 0 
0.18278579477 1.25 0 0.18278579477 1.2 0 0.18278579477 1.15 0 
0.18278579477 1.1 0 0.18278579477 1.05 0 0.18278579477 1 0 
0.18278579477 0.95 0 0.18278579477 0.9 0 0.18278579477 0.85 0 
0.18278579477 0.8 0 0.18278579477 0.75 0 0.18278579477 0.7 0 
0.18278579477 0.65 0 0.18278579477 0.6 0 0.18278579477 0.55 0 
0.18278579477 0.5 0 0.18278579477 0.45 0 0.18278579477 0.4 0 
0.18278579477 0.35 0 0.18278579477 0.3 0 0.18278579477 0.25 0 
0.18278579477 0.2 0 0.18278579477 0.15 0 0.18278579477 0.1 0 
0.18278579477 0.05 0 0.18278579477 0 0 0.21254987001 1.5 0 
0.21254987001 1.45 0 0.21254987001 1.4 0 0.21254987001 1.35 0 
0.21254987001 1.3 0 0.21254987001 1.25 0 0.21254987001 1.2 0 
0.21254987001 1.15 0 0.21254987001 1.1 0 0.21254987001 1.05 0 
0.21254987001 1 0 0.21254987001 0.95 0 0.21254987001 0.9 0 
0.21254987001 0.85 0 0.21254987001 0.8 0 0.21254987001 0.75 0 
0.21254987001 0.7 0 0.21254987001 0.65 0 0.21254987001 0.6 0 
0.21254987001 0.55 0 0.21254987001 0.5 0 0.21254987001 0.45 0 
0.21254987001 0.4 0 0.21254987001 0.35 0 0.21254987001 0.3 0 
0.21254987001 0.25 0 0.21254987001 0.2 0 0.21254987001 0.15 0 
0.21254987001 0.1 0 0.21254987001 0.05 0 0.21254987001 0 0 
0.24377654385 1.5 0 0.24377654385 1.45 0 0.24377654385 1.4 0 
0.24377654385 1.35 0 0.24377654385 1.3 0 0.24377654385 1.25 0 
0.24377654385 1.2 0 0.24377654385 1.15 0 0.24377654385 1.1 0 
0.24377654385 1.05 0 0.24377654385 1 0 0.24377654385 0.95 0 
0.24377654385 0.9 0 0.24377654385 0.85 0 0.24377654385 0.8 0 
0.24377654385 0.75 0 0.24377654385 0.7 0 0.24377654385 0.65 0 
0.24377654385 0.6 0 0.24377654385 0.55 0 0.24377654385 0.5 0 
0.24377654385 0.45 0 0.24377654385 0.4 0 0.24377654385 0.35 0 
0.24377654385 0.3 0 0.24377654385 0.25 0 0.24377654385 0.2 0 
0.24377654385 0.15 0 0.24377654385 0.1 0 0.24377654385 0.05 0 
0.24377654385 0 0 0.27653768798 1.5 0 0.27653768798 1.45 0 
0.27653768798 1.4 0 0.27653768798 1.35 0 0.27653768798 1.3 0 
0.27653768798 1.25 0 0.27653768798 1.2 0 0.27653768798 1.15 0 
0.27653768798 1.1 0 0.27653768798 1.05 0 0.27653768798 1 0 
0.27653768798 0.95 0 0.27653768798 0.9 0 0.27653768798 0.85 0 
0.27653768798 0.8 0 0.27653768798 0.75 0 0.27653768798 0.7 0 
0.27653768798 0.65 0 0.27653768798 0.6 0 0.27653768798 0.55 0 
0.27653768798 0.5 0 0.27653768798 0.45 0 0.27653768798 0.4 0 
0.27653768798 0.35 0 0.27653768798 0.3 0 0.27653768798 0.25 0 
0.27653768798 0.2 0 0.27653768798 0.15 0 0.27653768798 0.1 0 
0.27653768798 0.05 0 0.27653768798 0 0 0.31090870586 1.5 0 
0.31090870586 1.45 0 0.31090870586 1.4 0 0.31090870586 1.35 0 
0.31090870586 1.3 0 0.31090870586 1.25 0 0.31090870586 1.2 0 
0.31090870586 1.15 0 0.31090870586 1.1 0 0.31090870586 1.05 0 
0.31090870586 1 0 0.31090870586 0.95 0 0.31090870586 0.9 0 
0.31090870586 0.85 0 0.31090870586 0.8 0 0.31090870586 0.75 0 
0.31090870586 0.7 0 0.31090870586 0.65 0 0.31090870586 0.6 0 
0.31090870586 0.55 0 0.31090870586 0.5 0 0.31090870586 0.45 0 
0.31090870586 0.4 0 0.31090870586 0.35 0 0.31090870586 0.3 0 
0.31090870586 0.25 0 0.31090870586 0.2 0 0.31090870586 0.15 0 
0.31090870586 0.1 0 0.31090870586 0.05 0 0.31090870586 0 0 
0.34696870625 1.5 0 0.34696870625 1.45 0 0.34696870625 1.4 0 
0.34696870625 1.35 0 0.34696870625 1.3 0 0.34696870625 1.25 0 
0.34696870625 1.2 0 0.34696870625 1.15 0 0.34696870625 1.1 0 
0.34696870625 1.05 0 0.34696870625 1 0 0.34696870625 0.95 0 
0.34696870625 0.9 0 0.34696870625 0.85 0 0.34696870625 0.8 0 
0.34696870625 0.75 0 0.34696870625 0.7 0 0.34696870625 0.65 0 
0.34696870625 0.6 0 0.34696870625 0.55 0 0.34696870625 0.5 0 
0.34696870625 0.45 0 0.34696870625 0.4 0 0.34696870625 0.35 0 
0.34696870625 0.3 0 0.34696870625 0.25 0 0.34696870625 0.2 0 
0.34696870625 0.15 0 0.34696870625 0.1 0 0.34696870625 0.05 0 
0.34696870625 0 0 0.3848006853 1.5 0 0.3848006853 1.45 0 
0.3848006853 1.4 0 0.3848006853 1.35 0 0.3848006853 1.3 0 
0.3848006853 1.25 0 0.3848006853 1.2 0 0.3848006853 1.15 0 
0.3848006853 1.1 0 0.3848006853 1.05 0 0.3848006853 1 0 
0.3848006853 0.95 0 0.3848006853 0.9 0 0.3848006853 0.85 0 
0.3848006853 0.8 0 0.3848006853 0.75 0 0.3848006853 0.7 0 
0.3848006853 0.65 0 0.3848006853 0.6 0 0.3848006853 0.55 0 
0.3848006853 0.5 0 0.3848006853 0.45 0 0.3848006853 0.4 0 
0.3848006853 0.35 0 0.3848006853 0.3 0 0.3848006853 0.25 0 
0.3848006853 0.2 0 0.3848006853 0.15 0 0.3848006853 0.1 0 
0.3848006853 0.05 0 0.3848006853 0 0 0.42449171754 1.5 0 
0.42449171754 1.45 0 0.42449171754 1.4 0 0.42449171754 1.35 0 
0.42449171754 1.3 0 0.42449171754 1.25 0 0.42449171754 1.2 0 
0.42449171754 1.15 0 0.42449171754 1.1 0 0.42449171754 1.05 0 
0.42449171754 1 0 0.42449171754 0.95 0 0.42449171754 0.9 0 
0.42449171754 0.85 0 0.42449171754 0.8 0 0.42449171754 0.75 0 
0.42449171754 0.7 0 0.42449171754 0.65 0 0.42449171754 0.6 0 
0.42449171754 0.55 0 0.42449171754 0.5 0 0.42449171754 0.45 0 
0.42449171754 0.4 0 0.42449171754 0.35 0 0.42449171754 0.3 0 
0.42449171754 0.25 0 0.42449171754 0.2 0 0.42449171754 0.15 0 
0.42449171754 0.1 0 0.42449171754 0.05 0 0.42449171754 0 0 
0.46613315636 1.5 0 0.46613315636 1.45 0 0.46613315636 1.4 0 
0.46613315636 1.35 0 0.46613315636 1.3 0 0.46613315636 1.25 0 
0.46613315636 1.2 0 0.46613315636 1.15 0 0.46613315636 1.1 0 
0.46613315636 1.05 0 0.46613315636 1 0 0.46613315636 0.95 0 
0.46613315636 0.9 0 0.46613315636 0.85 0 0.46613315636 0.8 0 
0.46613315636 0.75 0 0.46613315636 0.7 0 0.46613315636 0.65 0 
0.46613315636 0.6 0 0.46613315636 0.55 0 0.46613315636 0.5 0 
0.46613315636 0.45 0 0.46613315636 0.4 0 0.46613315636 0.35 0 
0.46613315636 0.3 0 0.46613315636 0.25 0 0.46613315636 0.2 0 
0.46613315636 0.15 0 0.46613315636 0.1 0 0.46613315636 0.05 0 
0.46613315636 0 0 0.5098208442 1.5 0 0.5098208442 1.45 0 
0.5098208442 1.4 0 0.5098208442 1.35 0 0.5098208442 1.3 0 
0.5098208442 1.25 0 0.5098208442 1.2 0 0.5098208442 1.15 0 
0.5098208442 1.1 0 0.5098208442 1.05 0 0.5098208442 1 0 
0.5098208442 0.95 0 0.5098208442 0.9 0 0.5098208442 0.85 0 
0.5098208442 0.8 0 0.5098208442 0.75 0 0.5098208442 0.7 0 
0.5098208442 0.65 0 0.5098208442 0.6 0 0.5098208442 0.55 0 
0.5098208442 0.5 0 0.5098208442 0.45 0 0.5098208442 0.4 0 
0.5098208442 0.35 0 0.5098208442 0.3 0 0.5098208442 0.25 0 
0.5098208442 0.2 0 0.5098208442 0.15 0 0.5098208442 0.1 0 
0.5098208442 0.05 0 0.5098208442 0 0 0.55565533319 1.5 0 
0.55565533319 1.45 0 0.55565533319 1.4 0 0.55565533319 1.35 0 
0.55565533319 1.3 0 0.55565533319 1.25 0 0.55565533319 1.2 0 
0.55565533319 1.15 0 0.55565533319 1.1 0 0.55565533319 1.05 0 
0.55565533319 1 0 0.55565533319 0.95 0 0.55565533319 0.9 0 
0.55565533319 0.85 0 0.55565533319 0.8 0 0.55565533319 0.75 0 
0.55565533319 0.7 0 0.55565533319 0.65 0 0.55565533319 0.6 0 
0.55565533319 0.55 0 0.55565533319 0.5 0 0.55565533319 0.45 0 
0.55565533319 0.4 0 0.55565533319 0.35 0 0.55565533319 0.3 0 
0.55565533319 0.25 0 0.55565533319 0.2 0 0.55565533319 0.15 0 
0.55565533319 0.1 0 0.55565533319 0.05 0 0.55565533319 0 0 
0.60374211656 1.5 0 0.60374211656 1.45 0 0.60374211656 1.4 0 
0.60374211656 1.35 0 0.60374211656 1.3 0 0.60374211656 1.25 0 
0.60374211656 1.2 0 0.60374211656 1.15 0 0.60374211656 1.1 0 
0.60374211656 1.05 0 0.60374211656 1 0 0.60374211656 0.95 0 
0.60374211656 0.9 0 0.60374211656 0.85 0 0.60374211656 0.8 0 
0.60374211656 0.75 0 0.60374211656 0.7 0 0.60374211656 0.65 0 
0.60374211656 0.6 0 0.60374211656 0.55 0 0.60374211656 0.5 0 
0.60374211656 0.45 0 0.60374211656 0.4 0 0.60374211656 0.35 0 
0.60374211656 0.3 0 0.60374211656 0.25 0 0.60374211656 0.2 0 
0.60374211656 0.15 0 0.60374211656 0.1 0 0.60374211656 0.05 0 
0.60374211656 0 0 0.65419187143 1.5 0 0.65419187143 1.45 0 
0.65419187143 1.4 0 0.65419187143 1.35 0 0.65419187143 1.3 0 
0.65419187143 1.25 0 0.65419187143 1.2 0 0.65419187143 1.15 0 
[...]
CELL_DATA 4740
FIELD FieldData 7
B_Stress_n_p_m2 1 4740 float
0.61711 0.624059 0.631041 0.638448 0.646341 0.654908 0.664106 0.673614 0.682598 
0.689425 0.691329 0.683754 0.658665 0.611471 0.540185 0.310003 0.17899 0.118987 
0.0892481 0.0709823 0.0586947 0.0500481 0.043787 0.0391836 0.0357845 0.033292 0.0315053 
0.0303082 0.0295567 0.0287089 0.597696 0.604417 0.610769 0.617288 0.623965 0.630994 
0.638347 0.645766 0.652586 0.65751 0.658344 0.651419 0.630735 0.592704 0.526135 
0.355529 0.228799 0.158363 0.117517 0.0908555 0.0723451 0.0589762 0.0490607 0.0415977 
0.0359571 0.0317229 0.028618 0.0264728 0.0250261 0.0238575 0.577756 0.58422 0.589946 
0.595537 0.600954 0.60636 0.61171 0.616755 0.6209 0.623023 0.621249 0.612459 
0.591905 0.555582 0.491036 0.363329 0.255551 0.185139 0.139483 0.108267 0.0860804 
0.0698268 0.0576566 0.048427 0.0414005 0.0360823 0.0321411 0.0293615 0.0273696 0.0258904 
0.557401 0.563588 0.568698 0.573354 0.577508 0.581278 0.584581 0.587146 0.588393 
0.587293 0.58217 0.570346 0.548039 0.511394 0.451044 0.353433 0.264306 0.199228 
0.153459 0.120743 0.0968717 0.0791045 0.0656729 0.0554239 0.0475861 0.0416284 0.0371897 
0.03402 0.0316999 0.0301713 0.536748 0.542648 0.547159 0.550905 0.553838 0.556027 
0.557351 0.557507 0.555921 0.551629 0.543139 0.528215 0.503919 0.467093 0.411965 
0.334973 0.261978 0.204411 0.16124 0.129036 0.104857 0.0865146 0.0724694 0.0616553 
0.0533279 0.0469589 0.0421829 0.038735 0.0361949 0.0346821 0.515925 0.521531 0.525474 
0.528361 0.530155 0.530881 0.53039 0.52836 0.52423 0.517125 0.505762 0.488357 
0.462753 0.426722 0.377325 0.315157 0.255192 0.2052 0.165726 0.135111 0.111454 
0.0931281 0.0788791 0.0677803 0.0591535 0.0525013 0.0474739 0.0438072 0.0411028 0.0395899 
0.495071 0.500383 0.503798 0.505901 0.50667 0.506102 0.504032 0.50014 0.493907 
0.484569 0.471081 0.452101 0.426158 0.391909 0.348261 0.297147 0.247383 0.204176 
0.168622 0.140081 0.117411 0.0994669 0.0852796 0.0740811 0.0652807 0.0584301 0.0532089 
0.049365 0.046534 0.0450088 0.474329 0.479351 0.48229 0.4837 0.483586 0.481925 
0.478556 0.473182 0.465348 0.454426 0.439611 0.419959 0.394555 0.362743 0.324454 
0.281757 0.239956 0.202568 0.170768 0.144462 0.123025 0.105696 0.0917572 0.0805974 
0.0717225 0.0647434 0.0593772 0.0553918 0.0524629 0.0509195 0.453847 0.458587 0.461105 
0.461929 0.461086 0.458551 0.454179 0.447715 0.438783 0.426897 0.411475 0.391903 
0.367681 0.338613 0.305109 0.268953 0.233436 0.200965 0.172602 0.148525 0.128444 
0.111881 0.0983296 0.0873228 0.0784614 0.0714195 0.065956 0.0618634 0.0588606 0.0572961 
0.433769 0.438239 0.440398 0.440745 0.439333 0.436145 0.431062 0.423879 0.414308 
0.401995 0.386551 0.367615 0.344974 0.318706 0.289386 0.258429 0.227953 0.199629 
0.174354 0.152418 0.133738 0.118041 0.104987 0.0942319 0.0854664 0.0784267 0.0729146 
0.0687497 0.0656953 0.0641091 0.414231 0.418446 0.42031 0.42029 0.418467 0.414835 
0.40931 0.401741 0.391922 0.379616 0.364588 0.346662 0.325808 0.302242 0.276553 
0.24982 0.223461 0.198655 0.176133 0.156215 0.138939 0.124173 0.111702 0.101286 
0.0926939 0.0857205 0.0802093 0.0760079 0.0729239 0.0713165 0.395362 0.399337 0.400967 
0.400687 0.398598 0.394716 0.388987 0.381313 0.371563 0.359595 0.34529 0.328599 
0.309599 0.288563 0.266022 0.242793 0.219855 0.19806 0.177989 0.159956 0.14406 
0.130262 0.11844 0.108439 0.100092 0.0932464 0.087785 0.0835833 0.0804913 0.0788634 
0.377272 0.381027 0.382481 0.382037 0.379816 0.375849 0.370117 0.362567 0.353129 
0.341737 0.328356 0.313015 0.29585 0.277141 0.25734 0.237066 0.21702 0.197825 
0.179944 0.163659 0.149101 0.136289 0.125167 0.115641 0.107602 0.100943 0.095578 
0.0914109 0.0883316 0.0866836 0.360059 0.363612 0.364942 0.36442 0.362179 0.358269 
0.352696 0.345448 0.336501 0.325847 0.313504 0.299552 0.284149 0.267558 0.250156 
0.232414 0.214846 0.197918 0.181997 0.16733 0.154058 0.142231 0.131842 0.122842 
0.115165 0.108742 0.103517 0.0994175 0.0963698 0.0947013 0.343799 0.347169 0.348421 
0.347893 0.345727 0.341985 0.336698 0.329881 0.32155 0.311731 0.300481 0.287904 
0.274162 0.259491 0.2442 0.228652 0.213233 0.198298 0.184139 0.170967 0.15892 
0.148066 0.138427 0.129988 0.122717 0.116573 0.111526 0.107523 0.104524 0.102834 
0.32855 0.331756 0.332968 0.332492 0.330476 0.326989 0.322078 0.315783 0.308142 
0.29921 0.289062 0.277812 0.265617 0.252681 0.239258 0.225631 0.212094 0.198924 
0.186352 0.174559 0.163672 0.153767 0.144883 0.137028 0.130194 0.124364 0.119526 
0.115646 0.112708 0.110996 0.314349 0.31741 0.318613 0.318236 0.316423 0.313251 
0.308779 0.30306 0.29615 0.288118 0.27905 0.26906 0.258292 0.246923 0.235159 
0.223226 0.211351 0.199751 0.188614 0.178091 0.168296 0.159307 0.15117 0.14391 
0.137535 0.132043 0.127438 0.1237 0.120834 0.119099 0.301218 0.304149 0.305368 
0.305121 0.30355 0.300732 0.296734 0.291619 0.285451 0.278306 0.270274 0.261464 
0.252005 0.242049 0.231765 0.221333 0.210934 0.200739 0.1909 0.181544 0.172772 
0.164658 0.157251 0.150586 0.144678 0.139541 0.135186 0.131605 0.128818 0.127058 
0.289158 0.291975 0.293228 0.293133 0.291825 0.289383 0.285874 0.281366 0.275929 
0.269639 0.262585 0.254869 0.246605 0.237922 0.22896 0.219865 0.210781 0.201845 
0.193181 0.184896 0.177077 0.169791 0.16309 0.157008 0.151569 0.146793 0.142697 
0.139282 0.13658 0.134793 0.278158 0.280875 0.282173 0.282242 0.281208 0.279145 
0.276124 0.27221 0.267476 0.261996 0.255855 0.249144 0.241965 0.234428 0.226648 
0.218746 0.210836 0.203031 0.195431 0.188125 0.181189 0.174682 0.168652 0.163135 
0.158157 0.153741 0.149907 0.146663 0.144045 0.142231 0.268191 0.27082 0.272171 
0.272408 0.271646 0.269957 0.267408 0.264064 0.259994 0.25527 0.24997 0.244177 
0.237979 0.231471 0.224749 0.21791 0.21105 0.20426 0.197622 0.191209 0.185086 
0.179305 0.173908 0.168931 0.164398 0.160334 0.15676 0.153685 0.151152 0.14931 
0.259221 0.261774 0.263181 0.263584 0.263086 0.261755 0.259653 0.256844 0.253392 
0.249365 0.244833 0.239871 0.234557 0.22897 0.223192 0.217303 0.211381 0.2055 
0.199729 0.194127 0.188749 0.183638 0.178833 0.174364 0.170256 0.16653 0.163206 
0.160298 0.157845 0.155976 0.251204 0.253691 0.255154 0.255715 0.255466 0.254471 
0.252786 0.250471 0.247586 0.244194 0.240358 0.236144 0.231621 0.226856 0.221919 
0.216875 0.21179 0.206723 0.20173 0.196861 0.19216 0.187665 0.183407 0.179412 
0.175701 0.172295 0.169211 0.166462 0.164086 0.162189 0.244087 0.246517 0.248034 
0.248743 0.248725 0.248039 0.246736 0.244871 0.242501 0.239681 0.236469 0.232924 
0.229105 0.225072 0.22088 0.216586 0.212244 0.207902 0.203606 0.199396 0.195308 
0.191373 0.187615 0.184057 0.180715 0.177608 0.174749 0.172149 0.169844 0.16792 
0.237816 0.240195 0.241763 0.242607 0.2428 0.242393 0.241434 0.239975 0.238065 
0.235756 0.2331 0.230148 0.226953 0.223565 0.220032 0.216402 0.212717 0.209019 
0.205343 0.201722 0.198184 0.194753 0.19145 0.18829 0.185287 0.182455 0.179803 
0.177342 0.175102 0.173153 0.232329 0.234666 0.23628 0.237245 0.237626 0.237468 
0.236816 0.235716 0.234214 0.232357 0.230191 0.227762 0.225115 0.222294 0.21934 
0.216292 0.213187 0.210056 0.206929 0.203831 0.200784 0.197805 0.19491 0.19211 
0.189415 0.186832 0.184371 0.182036 0.179856 0.177883 0.227568 0.229867 0.231522 
0.232594 0.23314 0.233201 0.232819 0.232034 0.230889 0.229427 0.227689 0.225716 
0.223547 0.221221 0.218773 0.216234 0.213635 0.211002 0.208358 0.205721 0.203108 
0.200531 0.198 0.195522 0.193103 0.190746 0.188456 0.186236 0.184109 0.182114 
0.22347 0.225737 0.227427 0.228592 0.229281 0.229532 0.229382 0.228871 0.228035 
0.226914 0.225546 0.223968 0.222213 0.220315 0.218305 0.216208 0.21405 0.21185 
0.209627 0.207394 0.205162 0.20294 0.200731 0.198539 0.196364 0.194209 0.192073 
0.189956 0.187876 0.185862 0.219975 0.222214 0.223934 0.225177 0.225988 0.226401 
0.22645 0.226171 0.2256 0.224772 0.22372 0.222479 0.221079 0.219549 0.217915 
0.216199 0.21442 0.212595 0.210737 0.208856 0.206957 0.205043 0.203117 0.201176 
0.199219 0.197242 0.195242 0.193217 0.191178 0.189147 0.217023 0.219238 0.220982 
0.22229 0.223203 0.223752 0.223968 0.223885 0.223537 0.222955 0.222171 0.221216 
0.220117 0.2189 0.217586 0.216194 0.21474 0.213237 0.211694 0.210115 0.208503 
0.206859 0.205179 0.203458 0.201691 0.199871 0.197991 0.196047 0.194045 0.192 
0.214557 0.216752 0.218513 0.219875 0.220871 0.221531 0.221885 0.221965 0.221801 
0.221424 0.220864 0.220148 0.219302 0.218347 0.217303 0.216186 0.215008 0.213778 
0.212503 0.211183 0.209819 0.208407 0.20694 0.20541 0.203808 0.202125 0.200352 
0.198479 0.19651 0.194453 0.212522 0.214698 0.216474 0.217878 0.21894 0.219689 
0.220154 0.220365 0.220351 0.220142 0.219766 0.219247 0.21861 0.217873 0.217055 
0.216167 0.215221 0.214222 0.213174 0.212075 0.210922 0.209708 0.208425 0.207061 
0.205603 0.20404 0.202359 0.200549 0.19861 0.196543 0.210866 0.213027 0.214812 
0.216246 0.217359 0.218177 0.218729 0.219044 0.21915 0.219075 0.218847 0.218488 
0.218021 0.217464 0.216831 0.216134 0.215381 0.214575 0.213717 0.212805 0.211831 
0.210788 0.209662 0.20844 0.207108 0.205649 0.204049 0.202296 0.200383 0.198309 
0.209542 0.211689 0.213478 0.214934 0.216084 0.216953 0.21757 0.217963 0.218161 
0.218192 0.21808 0.217849 0.217518 0.217106 0.216624 0.216083 0.215489 0.214843 
0.214145 0.21339 0.212568 0.211669 0.210678 0.20958 0.208356 0.206989 0.205461 
0.203757 0.201869 0.19979 0.208505 0.210639 0.212429 0.213897 0.21507 0.215974 
0.216637 0.217087 0.217354 0.217463 0.21744 0.217308 0.217085 0.216788 0.216428 
0.216013 0.215549 0.215035 0.214469 0.213845 0.213151 0.212375 0.211501 0.21051 
0.209381 0.208095 0.206631 0.204973 0.203107 0.201026 0.207716 0.209837 0.211623 
0.213096 0.214281 0.215205 0.215897 0.216384 0.216698 0.216863 0.216906 0.216848 
0.216708 0.2165 0.216236 0.215922 0.215562 0.215157 0.2147 0.214186 0.213601 
0.212931 0.212157 0.211259 0.210215 0.209002 0.207597 0.20598 0.204136 0.202055 
0.207137 0.209246 0.211026 0.212496 0.213682 0.214613 0.215317 0.215825 0.216166 
0.216369 0.216457 0.216452 0.216373 0.216233 0.216043 0.215809 0.215534 0.215216 
0.21485 0.214427 0.213935 0.213356 0.21267 0.211856 0.210888 0.209741 0.208391 
0.206814 0.204992 0.202913 0.206739 0.208837 0.210605 0.212064 0.213241 0.214166 
0.214869 0.215383 0.215736 0.215958 0.216074 0.216106 0.21607 0.21598 0.215846 
0.215674 0.215466 0.215219 0.214928 0.214583 0.214169 0.21367 0.213063 0.212325 
0.211428 0.210344 0.209046 0.207508 0.205709 0.203634 0.206496 0.208581 0.210333 
0.211774 0.212933 0.21384 0.214529 0.215034 0.215386 0.215613 0.215742 0.215794 
0.215787 0.215732 0.215641 0.215516 0.215361 0.215172 0.214943 0.214664 0.214319 
0.213891 0.213356 0.212689 0.211859 0.210836 0.20959 0.208092 0.206318 0.204249 
0.206385 0.208457 0.210188 0.211604 0.212734 0.213612 0.214275 0.214758 0.215095 
0.215316 0.215446 0.215507 0.215516 0.215485 0.215423 0.215335 0.215221 0.215079 
0.214902 0.214679 0.214396 0.214033 0.213566 0.212967 0.212204 0.211243 0.210051 
0.208595 0.206848 0.204788 0.206391 0.208447 0.210152 0.211533 0.212624 0.213462 
0.214087 0.214537 0.214848 0.215051 0.215172 0.215232 0.215248 0.215231 0.21519 
0.215128 0.215047 0.214944 0.214811 0.214638 0.214411 0.214108 0.213706 0.213175 
0.21248 0.211585 0.210451 0.209042 0.207325 0.205278 0.206502 0.20854 0.210212 
0.211548 0.212587 0.213372 0.213947 0.214354 0.21463 0.214806 0.21491 0.214961 
0.214977 0.214967 0.214939 0.214897 0.214841 0.214769 0.214674 0.214546 0.214369 
0.214125 0.213788 0.213326 0.212703 0.211879 0.21081 0.209455 0.207775 0.205743 
0.206713 0.208729 0.210358 0.211636 0.21261 0.213329 0.213841 0.214193 0.214424 
0.214567 0.214647 0.214685 0.214695 0.214687 0.214667 0.214639 0.214604 0.214557 
0.214495 0.214406 0.214277 0.21409 0.213818 0.213429 0.212884 0.21214 0.211146 
0.209855 0.208221 0.20621 0.207025 0.209012 0.210585 0.211789 0.21268 0.213316 
0.213753 0.214041 0.21422 0.214323 0.214376 0.214397 0.214398 0.214388 0.214373 
0.214355 0.214335 0.214309 0.214274 0.214221 0.214138 0.214005 0.2138 0.213489 
0.213031 0.212378 0.211475 0.210262 0.208686 0.206702 0.207448 0.209395 0.210893 
0.211999 0.212784 0.213319 0.213667 0.213881 0.214003 0.214064 0.214088 0.21409 
0.214081 0.214068 0.214055 0.214045 0.214036 0.214027 0.214015 0.213993 0.21395 
0.213871 0.213733 0.213505 0.213144 0.212599 0.211806 0.210694 0.209195 0.20725 
0.208 0.20989 0.211281 0.212256 0.212906 0.213319 0.213564 0.213698 0.213761 
0.213781 0.213778 0.213763 0.213746 0.21373 0.213718 0.213712 0.213711 0.213715 
0.21372 0.213723 0.213716 0.213686 0.213613 0.213471 0.213218 0.2128 0.212145 
0.211168 0.209775 0.207887 0.208727 0.210525 0.211754 0.212543 0.21302 0.213287 
0.213421 0.213474 0.213482 0.213466 0.213441 0.213415 0.213392 0.213375 0.213364 
0.213361 0.213365 0.213376 0.213393 0.213414 0.213433 0.213444 0.213431 0.213374 
0.213236 0.212966 0.212487 0.211697 0.210468 0.20867 0.20973 0.211343 0.212295 
0.212812 0.213066 0.213171 0.213195 0.213179 0.213146 0.213109 0.213075 0.213047 
0.213025 0.213009 0.213001 0.213 0.213006 0.213019 0.213038 0.213065 0.213097 
0.213131 0.213162 0.213177 0.213151 0.213046 0.21279 0.212272 0.211321 0.209709 
0.210984 0.212157 0.212687 0.212897 0.212958 0.212953 0.212923 0.212886 0.212851 
0.212822 0.212798 0.21278 0.212768 0.212759 0.212755 0.212755 0.212759 0.212766 
0.212778 0.212796 0.212819 0.212848 0.212882 0.212919 0.212948 0.212953 0.212892 
0.212681 0.212152 0.210979 0.769939 0.777973 0.788446 0.8003 0.813297 0.82626 
0.837155 0.842489 0.836855 0.812604 0.759926 0.66803 0.528666 0.341552 0.134271 
0.00510944 0.00602901 0.00838728 0.0108208 0.0125495 0.0136931 0.0144344 0.0149139 0.0152255 
0.0154286 0.0155607 0.0156448 0.0156959 0.0157211 0.0157232 0.751215 0.759224 0.769513 
0.781235 0.794291 0.807786 0.820066 0.828131 0.827112 0.809786 0.766316 0.68497 
0.554788 0.369955 0.154937 0.00740464 0.00907954 0.0118144 0.014278 0.0160144 0.0171735 
0.0179347 0.0184335 0.0187614 0.0189773 0.0191185 0.0192085 0.0192623 0.0192875 0.0192724 
0.732219 0.740162 0.75018 0.761615 0.774493 0.78818 0.801395 0.811656 0.814732 
0.804025 0.770026 0.700512 0.581963 0.402241 0.180919 0.0104577 0.0125676 0.0146075 
0.0163203 0.0175115 0.0183224 0.0188723 0.0192446 0.0194967 0.0196666 0.0197796 0.019852 
0.0198944 0.0199158 0.0199173 0.713041 0.720878 0.730543 0.741547 0.75402 0.767557 
0.781223 0.793053 0.799516 0.794823 0.770167 0.713431 0.609002 0.438304 0.214644 
0.0148564 0.0168207 0.0175743 0.0182103 0.0186597 0.0189944 0.0192486 0.0194393 0.0195794 
0.01968 0.0197496 0.0197943 0.0198185 0.0198291 0.0198204 0.693767 0.701464 0.710701 
0.721149 0.733006 0.746063 0.759684 0.772393 0.781371 0.781767 0.765838 0.722272 
0.634254 0.478064 0.260402 0.0218602 0.022233 0.020931 0.0202647 0.0199143 0.0197537 
0.0197002 0.0196989 0.0197184 0.0197426 0.0197634 0.0197765 0.0197788 0.0197744 0.0197387 
0.674489 0.682019 0.690763 0.70055 0.711607 0.723879 0.736976 0.749848 0.760346 
0.764602 0.756212 0.725336 0.655335 0.520848 0.323348 0.0340651 0.0291789 0.0246031 
0.0223794 0.0211879 0.0205276 0.0201622 0.0199603 0.0198487 0.019786 0.0197489 0.0197232 
0.0196986 0.0196756 0.0195797 0.655288 0.662632 0.670828 0.679874 0.68998 0.701209 
0.713348 0.725687 0.736654 0.743307 0.740667 0.720801 0.668958 0.563739 0.403642 
0.0540013 0.0367596 0.0275773 0.023683 0.0216525 0.0204861 0.0197884 0.0193586 0.019087 
0.0189109 0.0187937 0.0187121 0.0186505 0.0186068 0.0184039 0.636197 0.643349 0.650951 
0.6592 0.668241 0.678218 0.689032 0.700214 0.710635 0.718116 0.718953 0.707119 
0.671169 0.598482 0.485153 0.0906949 0.0496099 0.0333064 0.0266337 0.0229535 0.0206596 
0.019154 0.0181316 0.0174216 0.0169222 0.0165695 0.0163218 0.016156 0.0160581 0.0157622 
0.33403 0.336385 0.337259 0.336678 0.334685 0.331321 0.326636 0.320687 0.31354 
0.305271 0.295961 0.2857 0.274587 0.262726 0.250229 0.237216 0.223813 0.210156 
0.196387 0.182658 0.169132 0.155982 0.143391 0.131553 0.120674 0.110966 0.102638 
0.0958947 0.090925 0.0878775 0.3408 0.343104 0.343883 0.343158 0.340964 0.337342 
0.332344 0.326032 0.318474 0.309751 0.299949 0.289162 0.277494 0.265054 0.25196 
0.238336 0.224315 0.210035 0.195645 0.181302 0.167171 0.153432 0.140272 0.127895 
0.116514 0.10635 0.0976314 0.0905762 0.0853849 0.0822165 0.345358 0.347656 0.348386 
0.347571 0.345244 0.34145 0.336243 0.329686 0.321852 0.312823 0.302688 0.291547 
0.279505 0.266675 0.25318 0.239146 0.224709 0.21001 0.195202 0.180443 0.165902 
0.15176 0.13821 0.125459 0.113726 0.103242 0.0942459 0.0869697 0.0816284 0.0783965 
0.350958 0.353256 0.353932 0.353009 0.350522 0.346517 0.341052 0.334192 0.326014 
0.316603 0.306055 0.294471 0.281964 0.268651 0.254657 0.240116 0.225166 0.209955 
0.194636 0.179372 0.164338 0.149715 0.135703 0.122512 0.11037 0.0995155 0.0902001 
0.0826722 0.0771644 0.0738689 0.356655 0.358952 0.35957 0.358534 0.35588 0.351658 
0.345925 0.338754 0.330223 0.320422 0.309451 0.297417 0.284437 0.270633 0.256137 
0.241085 0.225621 0.209897 0.194071 0.178309 0.162789 0.147696 0.133232 0.119614 
0.107072 0.095857 0.0862298 0.0784544 0.0727813 0.0694222 0.36267 0.364967 0.365525 
0.364368 0.361537 0.357083 0.351067 0.343563 0.334656 0.32444 0.313021 0.300509 
0.287029 0.272707 0.257681 0.242092 0.226091 0.209834 0.193482 0.177206 0.161187 
0.145614 0.130692 0.11664 0.103696 0.092117 0.0821744 0.0741478 0.0683065 0.0648825 
0.368929 0.371225 0.371718 0.370436 0.367418 0.362719 0.356405 0.348553 0.339252 
0.328602 0.316713 0.303704 0.289702 0.274842 0.259267 0.243125 0.226572 0.209768 
0.19288 0.176084 0.159562 0.143508 0.128129 0.113647 0.100305 0.0883641 0.0781079 
0.0698298 0.0638187 0.0603285 0.375448 0.377742 0.378168 0.376752 0.373538 0.368582 
0.361954 0.353737 0.344023 0.332918 0.320538 0.307009 0.292464 0.277044 0.2609 
0.244186 0.227064 0.209699 0.192265 0.174941 0.157912 0.141376 0.125541 0.110633 
0.096896 0.0845981 0.0740309 0.0655019 0.0593196 0.055762 0.382227 0.38452 0.384874 
0.383318 0.379897 0.374672 0.367716 0.359115 0.348969 0.337388 0.324496 0.310424 
0.295313 0.279313 0.26258 0.245275 0.227567 0.209628 0.191638 0.173778 0.156239 
0.139221 0.122935 0.107605 0.093481 0.0808329 0.0699597 0.0611822 0.0548286 0.0512024 
0.389278 0.391568 0.391847 0.390144 0.386506 0.380999 0.373698 0.364695 0.354096 
0.342019 0.328591 0.313954 0.298255 0.281651 0.264306 0.246391 0.228081 0.209554 
0.190995 0.172593 0.154542 0.137043 0.120309 0.104567 0.0900646 0.0770756 0.0659043 
0.0568827 0.0503587 0.0466631 0.396613 0.398901 0.399101 0.397243 0.393378 0.387573 
0.379911 0.370488 0.359415 0.346817 0.332831 0.317603 0.301291 0.28406 0.266082 
0.247536 0.228604 0.209474 0.190336 0.171385 0.152818 0.13484 0.117665 0.101519 
0.0866509 0.0733336 0.0618748 0.0526162 0.0459243 0.0421592 0.404252 0.406536 0.406653 
0.404632 0.400528 0.394411 0.38637 0.376506 0.364937 0.351794 0.337223 0.32138 
0.304428 0.286544 0.267909 0.248709 0.229137 0.209387 0.189658 0.170149 0.151063 
0.132608 0.114999 0.098462 0.0832424 0.0696125 0.0578807 0.0483955 0.0415404 0.0377061 
0.412214 0.414495 0.414523 0.412331 0.407975 0.401531 0.393092 0.382764 0.370675 
0.356962 0.34178 0.325292 0.307674 0.289109 0.26979 0.249913 0.229679 0.209292 
0.188957 0.168882 0.149274 0.130345 0.112309 0.0953939 0.0798405 0.0659176 0.0539315 
0.0442338 0.037223 0.033321 0.420524 0.422802 0.422737 0.420363 0.415743 0.408955 
0.400096 0.389283 0.376647 0.362336 0.346513 0.329351 0.311035 0.291761 0.27173 
0.25115 0.23023 0.209186 0.188231 0.167579 0.147445 0.128043 0.109591 0.0923121 
0.0764454 0.0622532 0.0500362 0.0401452 0.0329896 0.0290227 0.429212 0.431485 0.431321 
0.428757 0.423858 0.416707 0.407408 0.396083 0.382873 0.367934 0.351438 0.33357 
0.314525 0.29451 0.273736 0.252423 0.230793 0.209069 0.187476 0.166237 0.145571 
0.125698 0.106838 0.0892129 0.0730562 0.0586226 0.0462038 0.0361446 0.0288597 0.0248327 
0.438308 0.440576 0.440308 0.437543 0.43235 0.424816 0.415053 0.40319 0.389376 
0.373777 0.356575 0.337965 0.318156 0.297365 0.275815 0.253739 0.23137 0.208943 