# vtk DataFile Version 5.1
vtk output
ASCII
DATASET UNSTRUCTURED_GRID
POINTS 4929 double
0.1016 1.5 0 0.1016 1.45 0 0.1016 1.4 0 
0.1016 1.35 0 0.1016 1.3 0 0.1016 1.25 0 
0.1016 1.2 0 0.1016 1.15 0 0.1016 1.1 0 
0.1016 1.05 0 0.1016 1 0 0.1016 0.95 0 
0.1016 0.9 0 0.1016 0.85 0 0.1016 0.8 0 
0.1016 0.75 0 0.1016 0.7 0 0.1016 0.65 0 
0.1016 0.6 0 0.1016 0.55 0 0.1016 0.5 0 
0.1016 0.45 0 0.1016 0.4 0 0.1016 0.35 0 
0.1016 0.3 0 0.1016 0.25 0 0.1016 0.2 0 
0.1016 0.15 0 0.1016 0.1 0 0.1016 0.05 0 
0.1016 0 0 5.08 1.5 0 5.08 1.45 0 
5.08 1.4 0 5.08 1.35 0 5.08 1.3 0 
5.08 1.25 0 5.08 1.2 0 5.08 1.15 0 
5.08 1.1 0 5.08 1.05 0 5.08 1 0 
5.08 0.95 0 5.08 0.9 0 5.08 0.85 0 
5.08 0.8 0 5.08 0.75 0 5.08 0.7 0 
5.08 0.65 0 5.08 0.6 0 5.08 0.55 0 
5.08 0.5 0 5.08 0.45 0 5.08 0.4 0 
5.08 0.35 0 5.08 0.3 0 5.08 0.25 0 
5.08 0.2 0 5.08 0.15 0 5.08 0.1 0 
5.08 0.05 0 5.08 0 0 0.12737462728 1.5 0 
0.12737462728 1.45 0 0.12737462728 1.4 0 0.12737462728 1.35 0 
0.12737462728 1.3 0 0.12737462728 1.25 0 0.12737462728 1.2 0 
0.12737462728 1.15 0 0.12737462728 1.1 0 0.12737462728 1.05 0 
0.12737462728 1 0 0.12737462728 0.95 0 0.12737462728 0.9 0 
0.12737462728 0.85 0 0.12737462728 0.8 0 0.12737462728 0.75 0 
0.12737462728 0.7 0 0.12737462728 0.65 0 0.12737462728 0.6 0 
0.12737462728 0.55 0 0.12737462728 0.5 0 0.12737462728 0.45 0 
0.12737462728 0.4 0 0.12737462728 0.35 0 0.12737462728 0.3 0 
0.12737462728 0.25 0 0.12737462728 0.2 0 0.12737462728 0.15 0 
0.12737462728 0.1 0 0.12737462728 0.05 0 0.12737462728 0 0 
0.15441581276 1.5 0 0.15441581276 1.45 0 0.15441581276 1.4 0 
0.15441581276 1.35 0 0.15441581276 1.3 0 0.15441581276 1.25 0 
0.15441581276 1.2 0 0.15441581276 1.15 0 0.15441581276 1.1 0 
0.15441581276 1.05 0 0.15441581276 1 0 0.15441581276 0.95 0 
0.15441581276 0.9 0 0.15441581276 0.85 0 0.15441581276 0.8 0 
0.15441581276 0.75 0 0.15441581276 0.7 0 0.15441581276 0.65 0 
0.15441581276 0.6 0 0.15441581276 0.55 0 0.15441581276 0.5 0 
0.15441581276 0.45 0 0.15441581276 0.4 0 0.15441581276 0.35 0 
0.15441581276 0.3 0 0.15441581276 0.25 0 0.15441581276 0.2 0 
0.15441581276 0.15 0 0.15441581276 0.1 0 0.15441581276 0.05 0 
0.15441581276 0 0 0.18278579477 1.5 0 0.18278579477 1.45 0 
0.18278579477 1.4 0 0.18278579477 1.35 0 0.18278579477 1.3 0 
0.18278579477 1.25 0 0.18278579477 1.2 0 0.18278579477 1.15 0 
0.18278579477 1.1 0 0.18278579477 1.05 0 0.18278579477 1 0 
0.18278579477 0.95 0 0.18278579477 0.9 0 0.18278579477 0.85 0 
0.18278579477 0.8 0 0.18278579477 0.75 0 0.18278579477 0.7 0 
0.18278579477 0.65 0 0.18278579477 0.6 0 0.18278579477 0.55 0 
0.18278579477 0.5 0 0.18278579477 0.45 0 0.18278579477 0.4 0 
0.18278579477 0.35 0 0.18278579477 0.3 0 0.18278579477 0.25 0 
0.18278579477 0.2 0 0.18278579477 0.15 0 0.18278579477 0.1 0 
0.18278579477 0.05 0 0.18278579477 0 0 0.21254987001 1.5 0 
0.21254987001 1.45 0 0.21254987001 1.4 0 0.21254987001 1.35 0 
0.21254987001 1.3 0 0.21254987001 1.25 0 0.21254987001 1.2 0 
0.21254987001 1.15 0 0.21254987001 1.1 0 0.21254987001 1.05 0 
0.21254987001 1 0 0.21254987001 0.95 0 0.21254987001 0.9 0 
0.21254987001 0.85 0 0.21254987001 0.8 0 0.21254987001 0.75 0 
0.21254987001 0.7 0 0.21254987001 0.65 0 0.21254987001 0.6 0 
0.21254987001 0.55 0 0.21254987001 0.5 0 0.21254987001 0.45 0 
0.21254987001 0.4 0 0.21254987001 0.35 0 0.21254987001 0.3 0 
0.21254987001 0.25 0 0.21254987001 0.2 0 0.21254987001 0.15 0 
0.21254987001 0.1 0 0.21254987001 0.05 0 0.21254987001 0 0 
0.24377654385 1.5 0 0.24377654385 1.45 0 0.24377654385 1.4 0 
0.24377654385 1.35 0 0.24377654385 1.3 0 0.24377654385 1.25 0 
0.24377654385 1.2 0 0.24377654385 1.15 0 0.24377654385 1.1 0 
0.24377654385 1.05 0 0.24377654385 1 0 0.24377654385 0.95 0 
0.24377654385 0.9 0 0.24377654385 0.85 0 0.24377654385 0.8 0 
0.24377654385 0.75 0 0.24377654385 0.7 0 0.24377654385 0.65 0 
0.24377654385 0.6 0 0.24377654385 0.55 0 0.24377654385 0.5 0 
0.24377654385 0.45 0 0.24377654385 0.4 0 0.24377654385 0.35 0 
0.24377654385 0.3 0 0.24377654385 0.25 0 0.24377654385 0.2 0 
0.24377654385 0.15 0 0.24377654385 0.1 0 0.24377654385 0.05 0 
0.24377654385 0 0 0.27653768798 1.5 0 0.27653768798 1.45 0 
0.27653768798 1.4 0 0.27653768798 1.35 0 0.27653768798 1.3 0 
0.27653768798 1.25 0 0.27653768798 1.2 0 0.27653768798 1.15 0 
0.27653768798 1.1 0 0.27653768798 1.05 0 0.27653768798 1 0 
0.27653768798 0.95 0 0.27653768798 0.9 0 0.27653768798 0.85 0 
0.27653768798 0.8 0 0.27653768798 0.75 0 0.27653768798 0.7 0 
0.27653768798 0.65 0 0.27653768798 0.6 0 0.27653768798 0.55 0 
0.27653768798 0.5 0 0.27653768798 0.45 0 0.27653768798 0.4 0 
0.27653768798 0.35 0 0.27653768798 0.3 0 0.27653768798 0.25 0 
0.27653768798 0.2 0 0.27653768798 0.15 0 0.27653768798 0.1 0 
0.27653768798 0.05 0 0.27653768798 0 0 0.31090870586 1.5 0 
0.31090870586 1.45 0 0.31090870586 1.4 0 0.31090870586 1.35 0 
0.31090870586 1.3 0 0.31090870586 1.25 0 0.31090870586 1.2 0 
0.31090870586 1.15 0 0.31090870586 1.1 0 0.31090870586 1.05 0 
0.31090870586 1 0 0.31090870586 0.95 0 0.31090870586 0.9 0 
0.31090870586 0.85 0 0.31090870586 0.8 0 0.31090870586 0.75 0 
0.31090870586 0.7 0 0.31090870586 0.65 0 0.31090870586 0.6 0 
0.31090870586 0.55 0 0.31090870586 0.5 0 0.31090870586 0.45 0 
0.31090870586 0.4 0 0.31090870586 0.35 0 0.31090870586 0.3 0 
0.31090870586 0.25 0 0.31090870586 0.2 0 0.31090870586 0.15 0 
0.31090870586 0.1 0 0.31090870586 0.05 0 0.31090870586 0 0 
0.34696870625 1.5 0 0.34696870625 1.45 0 0.34696870625 1.4 0 
0.34696870625 1.35 0 0.34696870625 1.3 0 0.34696870625 1.25 0 
0.34696870625 1.2 0 0.34696870625 1.15 0 0.34696870625 1.1 0 
0.34696870625 1.05 0 0.34696870625 1 0 0.34696870625 0.95 0 
0.34696870625 0.9 0 0.34696870625 0.85 0 0.34696870625 0.8 0 
0.34696870625 0.75 0 0.34696870625 0.7 0 0.34696870625 0.65 0 
0.34696870625 0.6 0 0.34696870625 0.55 0 0.34696870625 0.5 0 
0.34696870625 0.45 0 0.34696870625 0.4 0 0.34696870625 0.35 0 
0.34696870625 0.3 0 0.34696870625 0.25 0 0.34696870625 0.2 0 
0.34696870625 0.15 0 0.34696870625 0.1 0 0.34696870625 0.05 0 
0.34696870625 0 0 0.3848006853 1.5 0 0.3848006853 1.45 0 
0.3848006853 1.4 0 0.3848006853 1.35 0 0.3848006853 1.3 0 
0.3848006853 1.25 0 0.3848006853 1.2 0 0.3848006853 1.15 0 
0.3848006853 1.1 0 0.3848006853 1.05 0 0.3848006853 1 0 
0.3848006853 0.95 0 0.3848006853 0.9 0 0.3848006853 0.85 0 
0.3848006853 0.8 0 0.3848006853 0.75 0 0.3848006853 0.7 0 
0.3848006853 0.65 0 0.3848006853 0.6 0 0.3848006853 0.55 0 
0.3848006853 0.5 0 0.3848006853 0.45 0 0.3848006853 0.4 0 
0.3848006853 0.35 0 0.3848006853 0.3 0 0.3848006853 0.25 0 
0.3848006853 0.2 0 0.3848006853 0.15 0 0.3848006853 0.1 0 
0.3848006853 0.05 0 0.3848006853 0 0 0.42449171754 1.5 0 
0.42449171754 1.45 0 0.42449171754 1.4 0 0.42449171754 1.35 0 
0.42449171754 1.3 0 0.42449171754 1.25 0 0.42449171754 1.2 0 
0.42449171754 1.15 0 0.42449171754 1.1 0 0.42449171754 1.05 0 
0.42449171754 1 0 0.42449171754 0.95 0 0.42449171754 0.9 0 
0.42449171754 0.85 0 0.42449171754 0.8 0 0.42449171754 0.75 0 
0.42449171754 0.7 0 0.42449171754 0.65 0 0.42449171754 0.6 0 
0.42449171754 0.55 0 0.42449171754 0.5 0 0.42449171754 0.45 0 
0.42449171754 0.4 0 0.42449171754 0.35 0 0.42449171754 0.3 0 
0.42449171754 0.25 0 0.42449171754 0.2 0 0.42449171754 0.15 0 
0.42449171754 0.1 0 0.42449171754 0.05 0 0.42449171754 0 0 
0.46613315636 1.5 0 0.46613315636 1.45 0 0.46613315636 1.4 0 
0.46613315636 1.35 0 0.46613315636 1.3 0 0.46613315636 1.25 0 
0.46613315636 1.2 0 0.46613315636 1.15 0 0.46613315636 1.1 0 
0.46613315636 1.05 0 0.46613315636 1 0 0.46613315636 0.95 0 
0.46613315636 0.9 0 0.46613315636 0.85 0 0.46613315636 0.8 0 
0.46613315636 0.75 0 0.46613315636 0.7 0 0.46613315636 0.65 0 
0.46613315636 0.6 0 0.46613315636 0.55 0 0.46613315636 0.5 0 
0.46613315636 0.45 0 0.46613315636 0.4 0 0.46613315636 0.35 0 
0.46613315636 0.3 0 0.46613315636 0.25 0 0.46613315636 0.2 0 
0.46613315636 0.15 0 0.46613315636 0.1 0 0.46613315636 0.05 0 
0.46613315636 0 0 0.5098208442 1.5 0 0.5098208442 1.45 0 
0.5098208442 1.4 0 0.5098208442 1.35 0 0.5098208442 1.3 0 
0.5098208442 1.25 0 0.5098208442 1.2 0 0.5098208442 1.15 0 
0.5098208442 1.1 0 0.5098208442 1.05 0 0.5098208442 1 0 
0.5098208442 0.95 0 0.5098208442 0.9 0 0.5098208442 0.85 0 
0.5098208442 0.8 0 0.5098208442 0.75 0 0.5098208442 0.7 0 
0.5098208442 0.65 0 0.5098208442 0.6 0 0.5098208442 0.55 0 
0.5098208442 0.5 0 0.5098208442 0.45 0 0.5098208442 0.4 0 
0.5098208442 0.35 0 0.5098208442 0.3 0 0.5098208442 0.25 0 
0.5098208442 0.2 0 0.5098208442 0.15 0 0.5098208442 0.1 0 
0.5098208442 0.05 0 0.5098208442 0 0 0.55565533319 1.5 0 
0.55565533319 1.45 0 0.55565533319 1.4 0 0.55565533319 1.35 0 
0.55565533319 1.3 0 0.55565533319 1.25 0 0.55565533319 1.2 0 
0.55565533319 1.15 0 0.55565533319 1.1 0 0.55565533319 1.05 0 
0.55565533319 1 0 0.55565533319 0.95 0 0.55565533319 0.9 0 
0.55565533319 0.85 0 0.55565533319 0.8 0 0.55565533319 0.75 0 
0.55565533319 0.7 0 0.55565533319 0.65 0 0.55565533319 0.6 0 
0.55565533319 0.55 0 0.55565533319 0.5 0 0.55565533319 0.45 0 
0.55565533319 0.4 0 0.55565533319 0.35 0 0.55565533319 0.3 0 
0.55565533319 0.25 0 0.55565533319 0.2 0 0.55565533319 0.15 0 
0.55565533319 0.1 0 0.55565533319 0.05 0 0.55565533319 0 0 
0.60374211656 1.5 0 0.60374211656 1.45 0 0.60374211656 1.4 0 
0.60374211656 1.35 0 0.60374211656 1.3 0 0.60374211656 1.25 0 
0.60374211656 1.2 0 0.60374211656 1.15 0 0.60374211656 1.1 0 
0.60374211656 1.05 0 0.60374211656 1 0 0.60374211656 0.95 0 
0.60374211656 0.9 0 0.60374211656 0.85 0 0.60374211656 0.8 0 
0.60374211656 0.75 0 0.60374211656 0.7 0 0.60374211656 0.65 0 
0.60374211656 0.6 0 0.60374211656 0.55 0 0.60374211656 0.5 0 
0.60374211656 0.45 0 0.60374211656 0.4 0 0.60374211656 0.35 0 
0.60374211656 0.3 0 0.60374211656 0.25 0 0.60374211656 0.2 0 
0.60374211656 0.15 0 0.60374211656 0.1 0 0.60374211656 0.05 0 
0.60374211656 0 0 0.65419187143 1.5 0 0.65419187143 1.45 0 
0.65419187143 1.4 0 0.65419187143 1.35 0 0.65419187143 1.3 0 
0.65419187143 1.25 0 0.65419187143 1.2 0 0.65419187143 1.15 0 
[...]
CELL_DATA 4740
FIELD FieldData 7
B_Stress_n_p_m2 1 4740 float
0.662121 0.66969 0.677833 0.686862 0.696816 0.707825 0.719679 0.7317 0.742376 
0.748997 0.74703 0.727182 0.683494 0.620862 0.33613 0.0865077 0.0402542 0.0350231 
0.0283969 0.0253311 0.0237229 0.0228204 0.0223194 0.0219804 0.0216392 0.0211833 0.0204736 
0.0189352 0.0188652 0.0176755 0.640841 0.648175 0.655619 0.663658 0.672281 0.68166 
0.691667 0.701815 0.710979 0.71715 0.716938 0.703909 0.674983 0.631819 0.483734 
0.303527 0.188753 0.117867 0.0872818 0.0689279 0.0563739 0.04754 0.0410437 0.0360867 
0.0321036 0.0285803 0.0255102 0.0210446 0.0104086 0.0467572 0.618896 0.625957 0.632686 
0.639663 0.646853 0.654423 0.662273 0.670011 0.676743 0.680886 0.679745 0.668603 
0.644572 0.603629 0.495404 0.335313 0.221856 0.154406 0.114369 0.0888541 0.0713124 
0.0586679 0.0492727 0.0420905 0.0364094 0.0316855 0.0275815 0.0228895 0.0164923 0.0264831 
0.596412 0.603171 0.609182 0.615062 0.620771 0.626439 0.631955 0.63695 0.640643 
0.64167 0.637735 0.62512 0.6006 0.5576 0.468175 0.344063 0.248048 0.182339 
0.137622 0.107452 0.0861394 0.0705099 0.0587549 0.0496951 0.0425183 0.0366284 0.0315939 
0.0267102 0.0221639 0.0249681 0.573524 0.579964 0.585265 0.590053 0.594291 0.59806 
0.601213 0.603374 0.603803 0.601266 0.59376 0.578289 0.551741 0.508181 0.433628 
0.338643 0.258098 0.196698 0.152109 0.120364 0.0972034 0.079897 0.0667071 0.0564533 
0.048309 0.0416808 0.0361716 0.031406 0.0277577 0.0287225 0.550384 0.556493 0.561108 
0.564847 0.567682 0.569642 0.570549 0.570008 0.567313 0.561342 0.550383 0.532063 
0.503771 0.461283 0.398438 0.323507 0.256257 0.20168 0.159949 0.128753 0.105241 
0.0872914 0.0734033 0.0625024 0.0538186 0.0468064 0.0411286 0.0365818 0.0333479 0.0328916 
0.527153 0.532926 0.536897 0.539664 0.541212 0.541533 0.540427 0.537496 0.532086 
0.523211 0.509468 0.489066 0.460065 0.419926 0.366545 0.306029 0.249921 0.202428 
0.164457 0.134854 0.111839 0.0938669 0.0797293 0.0685106 0.0595341 0.0523188 0.0465763 
0.0421575 0.0390315 0.037781 0.504005 0.509444 0.512824 0.514722 0.515141 0.514048 
0.511241 0.506345 0.498781 0.487728 0.4721 0.450625 0.42203 0.385049 0.339502 
0.289757 0.242683 0.201541 0.167406 0.139832 0.117772 0.100154 0.0860561 0.074735 
0.0656207 0.0583 0.0525216 0.0481403 0.0450009 0.0434635 0.481114 0.486227 0.489083 
0.490233 0.489704 0.487456 0.483302 0.476911 0.467801 0.455326 0.4387 0.417084 
0.389754 0.356264 0.317213 0.275671 0.23584 0.200153 0.16963 0.144224 0.123364 
0.106345 0.0924933 0.0812308 0.0720941 0.0647368 0.0589406 0.0545557 0.0513813 0.0497723 
0.458653 0.463452 0.465858 0.466391 0.465109 0.461975 0.456831 0.449409 0.439329 
0.426118 0.409245 0.38821 0.362681 0.332679 0.299022 0.263862 0.229861 0.1988 
0.171567 0.148315 0.128779 0.112519 0.0990683 0.0879933 0.07893 0.0715957 0.0658051 
0.061411 0.0582137 0.0565942 0.436787 0.441289 0.44332 0.443372 0.441528 0.43777 
0.431975 0.423942 0.413395 0.400011 0.383465 0.363501 0.340045 0.313342 0.284194 
0.254116 0.224859 0.197721 0.173438 0.152256 0.134093 0.118701 0.105769 0.0949888 
0.0860832 0.0788294 0.0730753 0.0686855 0.0654836 0.0638617 0.415668 0.419892 0.421623 
0.421324 0.419102 0.414958 0.408814 0.40053 0.389924 0.3768 0.360983 0.342387 
0.321089 0.297418 0.272071 0.246131 0.22079 0.196996 0.175351 0.156123 0.139341 
0.124884 0.112564 0.102168 0.0934958 0.0863788 0.0806976 0.0763344 0.0731448 0.0715163 
0.39543 0.399397 0.4009 0.400369 0.397933 0.393615 0.387376 0.379134 0.368786 
0.356231 0.341406 0.32433 0.305156 0.284227 0.262118 0.239615 0.217555 0.196639 
0.17735 0.159952 0.144531 0.131051 0.119409 0.109473 0.101102 0.0941758 0.088606 
0.0842952 0.0811334 0.0794934 0.376185 0.379918 0.381258 0.380601 0.378093 0.373778 
0.36765 0.359678 0.349819 0.338043 0.324361 0.308854 0.291707 0.27324 0.253916 
0.234316 0.215046 0.196629 0.179453 0.163759 0.14966 0.137175 0.126261 0.116843 
0.108832 0.102146 0.0967251 0.0924934 0.0893736 0.0877188 0.358025 0.361547 0.36278 
0.362087 0.359625 0.355454 0.349598 0.342061 0.332849 0.321981 0.309513 0.295559 
0.28031 0.264046 0.24714 0.230029 0.213161 0.196933 0.181656 0.167543 0.154716 
0.143226 0.13307 0.124215 0.116611 0.110209 0.104973 0.100846 0.0977814 0.096109 
0.341015 0.344349 0.345523 0.344867 0.342544 0.338625 0.333156 0.326171 0.317706 
0.307812 0.296573 0.284114 0.270617 0.256325 0.241536 0.226583 0.211805 0.197509 
0.183944 0.171296 0.159683 0.149173 0.139789 0.131527 0.124368 0.118285 0.113263 
0.109264 0.106266 0.104574 0.3252 0.328366 0.329519 0.328958 0.326842 0.323253 
0.31825 0.311887 0.304221 0.295323 0.285287 0.274242 0.262353 0.249826 0.236901 
0.223837 0.210895 0.198314 0.186297 0.175001 0.164539 0.154982 0.14637 0.138719 
0.132028 0.126292 0.121509 0.117657 0.114736 0.113022 0.310599 0.313617 0.31478 
0.314353 0.312493 0.309284 0.304795 0.29909 0.29224 0.284325 0.275443 0.265716 
0.255293 0.244347 0.233072 0.221673 0.210354 0.199304 0.188687 0.178638 0.169257 
0.160618 0.152766 0.14573 0.139522 0.13415 0.129625 0.125934 0.123096 0.121359 
0.297213 0.300102 0.301296 0.301032 0.299456 0.296654 0.292699 0.287662 0.281617 
0.274649 0.266855 0.258346 0.249254 0.239725 0.229916 0.219992 0.210114 0.200434 
0.191086 0.182182 0.173813 0.166047 0.158934 0.152505 0.146784 0.141787 0.137529 
0.13401 0.13126 0.129497 0.285026 0.287801 0.289042 0.288955 0.287676 0.285291 
0.28187 0.277488 0.27222 0.266149 0.259365 0.251973 0.244084 0.235824 0.22732 
0.218707 0.210113 0.201662 0.193462 0.185608 0.17818 0.171238 0.164832 0.158995 
0.153755 0.149133 0.145148 0.141806 0.139145 0.137354 0.274003 0.27668 0.277977 
0.278073 0.277093 0.275118 0.272217 0.268463 0.263928 0.258692 0.25284 0.246462 
0.239658 0.232533 0.225192 0.217745 0.210298 0.202948 0.195786 0.188891 0.182331 
0.17616 0.170424 0.165156 0.160383 0.156129 0.152414 0.14925 0.146677 0.144858 
0.264102 0.266693 0.26805 0.268327 0.267638 0.266057 0.263649 0.260484 0.256632 
0.252165 0.24716 0.2417 0.23587 0.229757 0.223452 0.217044 0.210618 0.204255 
0.198029 0.192006 0.186243 0.180787 0.175679 0.170949 0.166623 0.162724 0.159274 
0.156283 0.153796 0.151948 0.255267 0.257784 0.259202 0.259654 0.25924 0.258027 
0.256079 0.253459 0.250232 0.246465 0.242227 0.23759 0.232629 0.227419 0.222034 
0.216548 0.211032 0.205551 0.200167 0.194933 0.189896 0.185098 0.180571 0.176344 
0.17244 0.16888 0.165681 0.162858 0.160452 0.158576 0.247437 0.249891 0.251368 
0.251983 0.251823 0.250951 0.249424 0.2473 0.244639 0.241501 0.23795 0.234048 
0.22986 0.22545 0.22088 0.216212 0.211504 0.206809 0.202177 0.197653 0.193275 
0.189075 0.185083 0.181322 0.17781 0.174565 0.171605 0.16894 0.166609 0.164705 
0.240548 0.242946 0.244479 0.245242 0.245315 0.244751 0.243603 0.241924 0.23977 
0.237194 0.234252 0.231001 0.227496 0.223792 0.219942 0.215996 0.212002 0.208005 
0.204043 0.200154 0.196367 0.19271 0.189203 0.185867 0.182716 0.179764 0.177024 
0.174506 0.172244 0.170314 0.234529 0.23688 0.238464 0.239361 0.23964 0.239351 
0.23854 0.237257 0.235551 0.233471 0.231067 0.228388 0.225483 0.222398 0.219178 
0.215867 0.212502 0.209119 0.205752 0.202426 0.199168 0.195996 0.192927 0.189976 
0.187153 0.184468 0.18193 0.179548 0.177349 0.175393 0.229312 0.231622 0.233251 
0.234266 0.234727 0.234679 0.234165 0.233228 0.231914 0.230267 0.228332 0.226152 
0.223769 0.221225 0.218556 0.215798 0.212983 0.21014 0.207294 0.204467 0.201676 
0.198936 0.196258 0.193652 0.191124 0.18868 0.186326 0.184065 0.181923 0.179944 
0.224826 0.227101 0.228769 0.229886 0.230505 0.230666 0.230408 0.229771 0.228796 
0.227524 0.225994 0.224245 0.222315 0.220237 0.218045 0.215767 0.21343 0.211057 
0.208667 0.206276 0.203896 0.201537 0.199205 0.196906 0.194641 0.192412 0.190222 
0.188072 0.18598 0.18398 0.221003 0.223248 0.224949 0.226152 0.226906 0.227245 
0.227206 0.226825 0.22614 0.225188 0.224005 0.222625 0.221082 0.219405 0.217622 
0.215758 0.213833 0.211866 0.209871 0.207859 0.205837 0.203812 0.201784 0.199755 
0.197722 0.195685 0.19364 0.191588 0.18954 0.187522 0.217776 0.219995 0.221722 
0.222998 0.223864 0.224353 0.224497 0.224332 0.223892 0.22321 0.22232 0.221253 
0.220038 0.218702 0.217267 0.215756 0.214184 0.212565 0.21091 0.209225 0.207514 
0.205778 0.204015 0.202221 0.200393 0.198523 0.196607 0.194641 0.192633 0.190599 
0.215081 0.217277 0.219026 0.220361 0.221319 0.22193 0.222227 0.22224 0.222002 
0.221546 0.2209 0.220095 0.219155 0.218105 0.216965 0.215752 0.214479 0.213156 
0.211791 0.210386 0.208941 0.207455 0.205921 0.204333 0.202682 0.200959 0.199156 
0.197267 0.195294 0.193247 0.212856 0.215033 0.216797 0.218179 0.219211 0.219921 
0.22034 0.220498 0.220426 0.220154 0.21971 0.21912 0.218409 0.217597 0.216702 
0.215738 0.214717 0.213644 0.212524 0.211357 0.21014 0.208867 0.207531 0.20612 
0.204623 0.203028 0.201324 0.199502 0.19756 0.195502 0.211046 0.213205 0.21498 
0.216397 0.217485 0.218273 0.218788 0.219061 0.219121 0.218997 0.218716 0.218301 
0.217777 0.21716 0.216467 0.21571 0.214898 0.214034 0.21312 0.212154 0.21113 
0.21004 0.208872 0.207614 0.20625 0.204767 0.20315 0.201387 0.199473 0.197407 
0.209596 0.21174 0.213521 0.214963 0.216092 0.216938 0.217526 0.217887 0.218049 
0.218041 0.217888 0.217614 0.217239 0.21678 0.216252 0.215665 0.215024 0.214333 
0.213592 0.212794 0.211933 0.210998 0.209975 0.208848 0.207601 0.206215 0.204674 
0.202964 0.201075 0.199004 0.208457 0.210588 0.212371 0.213828 0.214985 0.21587 
0.216511 0.216936 0.217175 0.217254 0.2172 0.217035 0.216778 0.216445 0.216049 
0.215599 0.215099 0.214551 0.213951 0.213295 0.212571 0.211768 0.210869 0.209856 
0.208709 0.207409 0.205936 0.204273 0.202408 0.200334 0.207587 0.209705 0.211485 
0.212949 0.214121 0.21503 0.215705 0.216173 0.216465 0.216608 0.216628 0.216545 
0.216378 0.216144 0.215852 0.215512 0.215125 0.214693 0.214212 0.213673 0.213065 
0.212374 0.211582 0.210668 0.209611 0.208387 0.206975 0.205356 0.203514 0.201439 
0.206945 0.209051 0.210825 0.212287 0.213463 0.214382 0.215073 0.215567 0.215893 
0.216078 0.216148 0.216125 0.216026 0.215867 0.215656 0.215402 0.215107 0.21477 
0.214385 0.213944 0.213434 0.21284 0.212141 0.211314 0.210337 0.209183 0.207828 
0.20625 0.204431 0.202357 0.206498 0.208592 0.210354 0.211807 0.212977 0.213893 
0.214586 0.215088 0.21543 0.21564 0.215743 0.21576 0.21571 0.215605 0.215457 
0.21527 0.215047 0.214786 0.214481 0.214122 0.213697 0.213186 0.212569 0.211822 
0.210918 0.20983 0.208529 0.206991 0.205195 0.203125 0.206217 0.208298 0.210045 
0.211481 0.212633 0.213534 0.214215 0.214712 0.215055 0.215273 0.215393 0.215435 
0.215417 0.215352 0.215249 0.215114 0.214948 0.214749 0.21451 0.214221 0.213868 
0.213432 0.21289 0.212216 0.211382 0.210356 0.209109 0.207611 0.20584 0.203777 
0.206078 0.208145 0.209872 0.211283 0.212407 0.21328 0.213938 0.214415 0.214746 
0.21496 0.215083 0.215137 0.215138 0.2151 0.215031 0.214935 0.214813 0.214664 
0.21448 0.214251 0.213961 0.213592 0.21312 0.212517 0.211751 0.210789 0.209596 
0.208142 0.206397 0.204343 0.206062 0.208114 0.209815 0.211191 0.212278 0.213112 
0.213733 0.214179 0.214485 0.214684 0.2148 0.214855 0.214866 0.214844 0.214797 
0.21473 0.214644 0.214535 0.214397 0.21422 0.213988 0.213681 0.213276 0.212742 
0.212045 0.211149 0.210016 0.208608 0.206895 0.204853 0.206157 0.208191 0.209859 
0.211191 0.212227 0.213009 0.213581 0.213984 0.214257 0.21443 0.21453 0.214578 
0.21459 0.214577 0.214546 0.2145 0.214441 0.214365 0.214267 0.214135 0.213956 
0.213709 0.213369 0.212906 0.212282 0.211457 0.210389 0.209036 0.20736 0.205333 
0.206356 0.208367 0.209993 0.211268 0.212239 0.212955 0.213466 0.213816 0.214045 
0.214185 0.214263 0.214299 0.214306 0.214296 0.214274 0.214244 0.214205 0.214157 
0.214092 0.214001 0.21387 0.213681 0.213407 0.213018 0.212473 0.211728 0.210736 
0.209447 0.207816 0.205809 0.20666 0.208642 0.210212 0.211413 0.212302 0.212936 
0.213371 0.213657 0.213835 0.213937 0.213989 0.214008 0.214007 0.213996 0.21398 
0.21396 0.213938 0.213912 0.213875 0.213821 0.213736 0.213602 0.213396 0.213084 
0.212626 0.211974 0.211071 0.209861 0.208288 0.206309 0.207076 0.209019 0.210513 
0.211617 0.212401 0.212934 0.213281 0.213494 0.213615 0.213675 0.213698 0.2137 
0.21369 0.213676 0.213662 0.213651 0.213641 0.213631 0.213618 0.213595 0.213552 
0.213472 0.213333 0.213104 0.212744 0.2122 0.211407 0.210298 0.208802 0.206861 
0.207623 0.209509 0.210897 0.21187 0.212519 0.21293 0.213175 0.213309 0.213371 
0.213391 0.213387 0.213372 0.213354 0.213337 0.213325 0.213318 0.213317 0.21332 
0.213326 0.213328 0.21332 0.213289 0.213217 0.213074 0.212822 0.212404 0.21175 
0.210774 0.209385 0.2075 0.208347 0.210141 0.211367 0.212155 0.21263 0.212897 
0.21303 0.213083 0.213091 0.213075 0.21305 0.213024 0.213 0.212983 0.212972 
0.212968 0.212972 0.212983 0.213 0.21302 0.213039 0.213049 0.213037 0.212979 
0.212842 0.212572 0.212094 0.211305 0.210078 0.208285 0.209346 0.210955 0.211905 
0.212421 0.212675 0.21278 0.212803 0.212787 0.212755 0.212718 0.212684 0.212655 
0.212633 0.212618 0.21261 0.212608 0.212614 0.212627 0.212646 0.212673 0.212704 
0.212739 0.212769 0.212784 0.212758 0.212653 0.212397 0.211881 0.210931 0.209322 
0.210597 0.211767 0.212296 0.212506 0.212567 0.212562 0.212532 0.212495 0.21246 
0.212431 0.212407 0.212389 0.212377 0.212368 0.212364 0.212364 0.212367 0.212375 
0.212387 0.212404 0.212427 0.212456 0.212491 0.212527 0.212557 0.212561 0.2125 
0.21229 0.211761 0.210592 0.825606 0.833955 0.845227 0.857943 0.871474 0.883997 
0.892533 0.892287 0.876206 0.834663 0.75584 0.628359 0.441999 0.204836 0.0386348 
424.078 323.904 261.815 236.124 230.455 233.95 240.579 247.333 252.558 
255.015 253.41 245.523 228.285 202.064 119.764 0.80604 0.814438 0.82567 
0.838505 0.85251 0.866211 0.877073 0.880836 0.870951 0.838023 0.769859 0.653012 
0.470159 0.225802 0.0337213 443.127 330.333 265.398 239.063 233.518 237.493 
244.734 252.113 257.919 260.898 259.637 251.641 234.127 203.222 113.964 
0.786042 0.794437 0.805516 0.818276 0.832468 0.846956 0.859662 0.866916 0.862824 
0.838511 0.781909 0.677954 0.503478 0.263583 0.0271981 450.315 332.782 270.802 
245.233 239.86 243.939 251.297 258.832 264.815 267.961 266.709 258.158 
238.655 202.745 118.659 0.765707 0.77405 0.784865 0.797362 0.811453 0.826314 
0.840314 0.850402 0.851448 0.835382 0.790875 0.702177 0.541737 0.312625 0.079456 
491.554 342.852 282.54 256.731 250.222 253.005 259.217 265.879 271.228 
273.905 272.211 262.962 241.74 202.297 123.599 0.745135 0.753381 0.763827 
0.775887 0.789597 0.804413 0.819113 0.831262 0.836545 0.827914 0.795258 0.72259 
0.577785 0.359444 0.0972639 593.943 372.971 304.552 275.229 265.555 265.463 
269.273 274.082 278.044 279.709 277.325 267.736 246.583 207.298 126.746 
0.724429 0.732539 0.742522 0.753991 0.767063 0.781429 0.796226 0.809588 0.818015 
0.815596 0.793572 0.735824 0.611595 0.437748 0.0334326 657.165 405.796 338.213 
302.318 286.67 281.759 281.793 283.743 285.555 285.646 282.28 272.619 
253.072 217.164 128.536 0.703686 0.711633 0.721068 0.731819 0.744027 0.757574 
0.771889 0.785601 0.795977 0.798261 0.785046 0.741165 0.64652 0.545905 0.115811 
711.74 452.638 386.022 336.717 311.754 300.167 295.293 293.606 292.679 
290.716 285.969 276.003 257.778 225.597 131.69 0.682952 0.69072 0.699534 
0.709466 0.720622 0.733032 0.746343 0.759581 0.77069 0.776014 0.769582 0.73883 
0.673458 0.605078 0.287585 964.414 532.644 432.55 363.59 329.534 312.331 
303.615 299.218 296.303 292.855 287.119 276.923 258.238 230.342 147.887 
0.336798 0.339154 0.339999 0.33936 0.337282 0.333806 0.328985 0.322876 0.31555 
0.307082 0.297558 0.28707 0.275718 0.26361 0.250861 0.237592 0.223933 0.21002 
0.195999 0.182024 0.168259 0.154878 0.142068 0.130026 0.11896 0.109086 0.10062 
0.0937701 0.0887333 0.0856639 0.343773 0.346076 0.346822 0.346035 0.343747 0.340004 
0.334859 0.328376 0.320625 0.311689 0.301657 0.290627 0.278704 0.266002 0.25264 
0.238745 0.224453 0.209905 0.19525 0.180649 0.166269 0.15229 0.138903 0.126314 
0.114738 0.104401 0.0955362 0.0883683 0.0831047 0.0799113 0.348474 0.350771 0.351466 
0.350583 0.348159 0.344237 0.338875 0.332137 0.324099 0.314846 0.30447 0.293074 
0.280765 0.267662 0.253887 0.239572 0.224854 0.209879 0.194798 0.179774 0.164978 
0.150592 0.136811 0.123843 0.111912 0.101251 0.092105 0.0847125 0.079296 0.0760377 
0.354253 0.356549 0.357188 0.356192 0.3536 0.34946 0.343829 0.336776 0.328382 
0.318734 0.30793 0.296077 0.283289 0.269687 0.2554 0.240564 0.225322 0.209821 
0.194221 0.178684 0.163387 0.148515 0.134266 0.120854 0.108509 0.0974748 0.0880058 
0.0803579 0.0747717 0.0714483 0.360136 0.36243 0.363009 0.361895 0.35913 0.354762 
0.348853 0.341477 0.332715 0.322663 0.311421 0.299102 0.285825 0.271718 0.256913 
0.241553 0.225784 0.20976 0.193642 0.1776 0.16181 0.146462 0.131758 0.117915 
0.105169 0.0937707 0.0839871 0.0760888 0.070335 0.0669466 0.366353 0.368646 0.369161 
0.367922 0.364972 0.360361 0.354157 0.346435 0.337283 0.3268 0.315093 0.302279 
0.288485 0.273842 0.258492 0.24258 0.22626 0.209691 0.193037 0.176472 0.160177 
0.144344 0.129178 0.114901 0.10175 0.0899864 0.0798857 0.071734 0.0658097 0.0623553 
0.372828 0.37512 0.375567 0.374195 0.371049 0.366184 0.359668 0.351583 0.342021 
0.331086 0.318892 0.305562 0.291228 0.27603 0.260114 0.243633 0.226746 0.209617 
0.192417 0.175323 0.158519 0.142201 0.126576 0.111867 0.0983174 0.086192 0.0757771 
0.0673726 0.0612769 0.0577552 0.379578 0.381867 0.382243 0.380732 0.37738 0.372246 
0.365403 0.356937 0.346944 0.335535 0.322831 0.308961 0.294064 0.278287 0.261783 
0.244713 0.227242 0.209539 0.191782 0.17415 0.156833 0.140029 0.123947 0.108811 
0.0948684 0.0823873 0.0716622 0.0630067 0.0567387 0.0531488 0.386604 0.388891 0.389192 
0.387533 0.383965 0.378549 0.371362 0.362495 0.352051 0.340147 0.326909 0.312475 
0.296991 0.280612 0.2635 0.245821 0.227747 0.209457 0.19113 0.172955 0.155122 
0.137832 0.121297 0.105742 0.0914148 0.0785865 0.067558 0.0586552 0.0522157 0.0485566 
0.39392 0.396204 0.396425 0.394612 0.390816 0.385103 0.377555 0.368268 0.357351 
0.344927 0.331132 0.316109 0.300014 0.283009 0.265265 0.246955 0.228262 0.209368 
0.190462 0.171734 0.153383 0.135609 0.118627 0.102662 0.0879611 0.0747971 0.063475 
0.054331 0.0477219 0.0439933 0.401541 0.403822 0.403958 0.401982 0.397946 0.391922 
0.383994 0.374266 0.362853 0.349886 0.335507 0.319869 0.303136 0.28548 0.26708 
0.248118 0.228785 0.209272 0.189773 0.170486 0.151613 0.133358 0.115936 0.0995717 
0.0845112 0.0710263 0.0594238 0.0500479 0.0432732 0.0394752 0.409486 0.411763 0.41181 
0.409662 0.405374 0.399022 0.390696 0.380505 0.368572 0.355034 0.340044 0.323764 
0.306365 0.28803 0.268948 0.24931 0.229316 0.209166 0.189061 0.169207 0.149809 
0.131075 0.113221 0.0964708 0.0810675 0.0672802 0.0554146 0.0458195 0.0388856 0.0350195 
0.417779 0.420051 0.420005 0.417675 0.413122 0.406424 0.397679 0.387001 0.374521 
0.360386 0.344756 0.327802 0.309708 0.290665 0.270872 0.250533 0.229855 0.209049 
0.188324 0.167893 0.147966 0.128756 0.110478 0.0933573 0.0776312 0.0635639 0.0514571 
0.0416604 0.034577 0.0306449 0.426448 0.428715 0.428569 0.426048 0.421214 0.414152 
0.404966 0.393776 0.380722 0.365958 0.349656 0.331997 0.313175 0.293392 0.272859 
0.25179 0.230403 0.20892 0.187558 0.166539 0.146079 0.126395 0.107704 0.090228 
0.0742018 0.0598815 0.0475609 0.0375857 0.0303666 0.0263728 0.435523 0.437784 0.437534 
0.434809 0.42968 0.422235 0.412583 0.400853 0.387194 0.371771 0.354763 0.336364 
0.316779 0.296222 0.274915 0.253086 0.230963 0.208778 0.186762 0.165142 0.144142 
0.123986 0.104891 0.0870786 0.070778 0.0562362 0.0437353 0.0336115 0.0262765 0.0222273 
0.445041 0.447295 0.446933 0.443995 0.438553 0.430702 0.420559 0.408261 0.393965 
0.377847 0.360097 0.34092 0.320535 0.299167 0.277052 0.254428 0.231539 0.208628 
0.185935 0.163699 0.142152 0.121523 0.102034 0.0839039 0.0673571 0.0526299 0.0399894 
0.0297555 0.0223316 0.0182372 0.45504 0.457287 0.456807 0.453641 0.447869 0.43959 
0.428929 0.416031 0.401064 0.384214 0.365683 0.345689 0.324463 0.302244 0.279282 