# vtk DataFile Version 5.1
vtk output
ASCII
DATASET UNSTRUCTURED_GRID
POINTS 9610 double
0.1016 1.5 0 0.1016 1.45 0 0.1016 1.4 0 
0.1016 1.35 0 0.1016 1.3 0 0.1016 1.25 0 
0.1016 1.2 0 0.1016 1.15 0 0.1016 1.1 0 
0.1016 1.05 0 0.1016 1 0 0.1016 0.95 0 
0.1016 0.9 0 0.1016 0.85 0 0.1016 0.8 0 
0.1016 0.75 0 0.1016 0.7 0 0.1016 0.65 0 
0.1016 0.6 0 0.1016 0.55 0 0.1016 0.5 0 
0.1016 0.45 0 0.1016 0.4 0 0.1016 0.35 0 
0.1016 0.3 0 0.1016 0.25 0 0.1016 0.2 0 
0.1016 0.15 0 0.1016 0.1 0 0.1016 0.05 0 
0.1016 0 0 5.08 1.5 0 5.08 1.45 0 
5.08 1.4 0 5.08 1.35 0 5.08 1.3 0 
5.08 1.25 0 5.08 1.2 0 5.08 1.15 0 
5.08 1.1 0 5.08 1.05 0 5.08 1 0 
5.08 0.95 0 5.08 0.9 0 5.08 0.85 0 
5.08 0.8 0 5.08 0.75 0 5.08 0.7 0 
5.08 0.65 0 5.08 0.6 0 5.08 0.55 0 
5.08 0.5 0 5.08 0.45 0 5.08 0.4 0 
5.08 0.35 0 5.08 0.3 0 5.08 0.25 0 
5.08 0.2 0 5.08 0.15 0 5.08 0.1 0 
5.08 0.05 0 5.08 0 0 0.151384 1.5 0 
0.151384 1.45 0 0.151384 1.4 0 0.151384 1.35 0 
0.151384 1.3 0 0.151384 1.25 0 0.151384 1.2 0 
0.151384 1.15 0 0.151384 1.1 0 0.151384 1.05 0 
0.151384 1 0 0.151384 0.95 0 0.151384 0.9 0 
0.151384 0.85 0 0.151384 0.8 0 0.151384 0.75 0 
0.151384 0.7 0 0.151384 0.65 0 0.151384 0.6 0 
0.151384 0.55 0 0.151384 0.5 0 0.151384 0.45 0 
0.151384 0.4 0 0.151384 0.35 0 0.151384 0.3 0 
0.151384 0.25 0 0.151384 0.2 0 0.151384 0.15 0 
0.151384 0.1 0 0.151384 0.05 0 0.151384 0 0 
0.201168 1.5 0 0.201168 1.45 0 0.201168 1.4 0 
0.201168 1.35 0 0.201168 1.3 0 0.201168 1.25 0 
0.201168 1.2 0 0.201168 1.15 0 0.201168 1.1 0 
0.201168 1.05 0 0.201168 1 0 0.201168 0.95 0 
0.201168 0.9 0 0.201168 0.85 0 0.201168 0.8 0 
0.201168 0.75 0 0.201168 0.7 0 0.201168 0.65 0 
0.201168 0.6 0 0.201168 0.55 0 0.201168 0.5 0 
0.201168 0.45 0 0.201168 0.4 0 0.201168 0.35 0 
0.201168 0.3 0 0.201168 0.25 0 0.201168 0.2 0 
0.201168 0.15 0 0.201168 0.1 0 0.201168 0.05 0 
0.201168 0 0 0.250952 1.5 0 0.250952 1.45 0 
0.250952 1.4 0 0.250952 1.35 0 0.250952 1.3 0 
0.250952 1.25 0 0.250952 1.2 0 0.250952 1.15 0 
0.250952 1.1 0 0.250952 1.05 0 0.250952 1 0 
0.250952 0.95 0 0.250952 0.9 0 0.250952 0.85 0 
0.250952 0.8 0 0.250952 0.75 0 0.250952 0.7 0 
0.250952 0.65 0 0.250952 0.6 0 0.250952 0.55 0 
0.250952 0.5 0 0.250952 0.45 0 0.250952 0.4 0 
0.250952 0.35 0 0.250952 0.3 0 0.250952 0.25 0 
0.250952 0.2 0 0.250952 0.15 0 0.250952 0.1 0 
0.250952 0.05 0 0.250952 0 0 0.300736 1.5 0 
0.300736 1.45 0 0.300736 1.4 0 0.300736 1.35 0 
0.300736 1.3 0 0.300736 1.25 0 0.300736 1.2 0 
0.300736 1.15 0 0.300736 1.1 0 0.300736 1.05 0 
0.300736 1 0 0.300736 0.95 0 0.300736 0.9 0 
0.300736 0.85 0 0.300736 0.8 0 0.300736 0.75 0 
0.300736 0.7 0 0.300736 0.65 0 0.300736 0.6 0 
0.300736 0.55 0 0.300736 0.5 0 0.300736 0.45 0 
0.300736 0.4 0 0.300736 0.35 0 0.300736 0.3 0 
0.300736 0.25 0 0.300736 0.2 0 0.300736 0.15 0 
0.300736 0.1 0 0.300736 0.05 0 0.300736 0 0 
0.35052 1.5 0 0.35052 1.45 0 0.35052 1.4 0 
0.35052 1.35 0 0.35052 1.3 0 0.35052 1.25 0 
0.35052 1.2 0 0.35052 1.15 0 0.35052 1.1 0 
0.35052 1.05 0 0.35052 1 0 0.35052 0.95 0 
0.35052 0.9 0 0.35052 0.85 0 0.35052 0.8 0 
0.35052 0.75 0 0.35052 0.7 0 0.35052 0.65 0 
0.35052 0.6 0 0.35052 0.55 0 0.35052 0.5 0 
0.35052 0.45 0 0.35052 0.4 0 0.35052 0.35 0 
0.35052 0.3 0 0.35052 0.25 0 0.35052 0.2 0 
0.35052 0.15 0 0.35052 0.1 0 0.35052 0.05 0 
0.35052 0 0 0.400304 1.5 0 0.400304 1.45 0 
0.400304 1.4 0 0.400304 1.35 0 0.400304 1.3 0 
0.400304 1.25 0 0.400304 1.2 0 0.400304 1.15 0 
0.400304 1.1 0 0.400304 1.05 0 0.400304 1 0 
0.400304 0.95 0 0.400304 0.9 0 0.400304 0.85 0 
0.400304 0.8 0 0.400304 0.75 0 0.400304 0.7 0 
0.400304 0.65 0 0.400304 0.6 0 0.400304 0.55 0 
0.400304 0.5 0 0.400304 0.45 0 0.400304 0.4 0 
0.400304 0.35 0 0.400304 0.3 0 0.400304 0.25 0 
0.400304 0.2 0 0.400304 0.15 0 0.400304 0.1 0 
0.400304 0.05 0 0.400304 0 0 0.450088 1.5 0 
0.450088 1.45 0 0.450088 1.4 0 0.450088 1.35 0 
0.450088 1.3 0 0.450088 1.25 0 0.450088 1.2 0 
0.450088 1.15 0 0.450088 1.1 0 0.450088 1.05 0 
0.450088 1 0 0.450088 0.95 0 0.450088 0.9 0 
0.450088 0.85 0 0.450088 0.8 0 0.450088 0.75 0 
0.450088 0.7 0 0.450088 0.65 0 0.450088 0.6 0 
0.450088 0.55 0 0.450088 0.5 0 0.450088 0.45 0 
0.450088 0.4 0 0.450088 0.35 0 0.450088 0.3 0 
0.450088 0.25 0 0.450088 0.2 0 0.450088 0.15 0 
0.450088 0.1 0 0.450088 0.05 0 0.450088 0 0 
0.499872 1.5 0 0.499872 1.45 0 0.499872 1.4 0 
0.499872 1.35 0 0.499872 1.3 0 0.499872 1.25 0 
0.499872 1.2 0 0.499872 1.15 0 0.499872 1.1 0 
0.499872 1.05 0 0.499872 1 0 0.499872 0.95 0 
0.499872 0.9 0 0.499872 0.85 0 0.499872 0.8 0 
0.499872 0.75 0 0.499872 0.7 0 0.499872 0.65 0 
0.499872 0.6 0 0.499872 0.55 0 0.499872 0.5 0 
0.499872 0.45 0 0.499872 0.4 0 0.499872 0.35 0 
0.499872 0.3 0 0.499872 0.25 0 0.499872 0.2 0 
0.499872 0.15 0 0.499872 0.1 0 0.499872 0.05 0 
0.499872 0 0 0.549656 1.5 0 0.549656 1.45 0 
0.549656 1.4 0 0.549656 1.35 0 0.549656 1.3 0 
0.549656 1.25 0 0.549656 1.2 0 0.549656 1.15 0 
0.549656 1.1 0 0.549656 1.05 0 0.549656 1 0 
0.549656 0.95 0 0.549656 0.9 0 0.549656 0.85 0 
0.549656 0.8 0 0.549656 0.75 0 0.549656 0.7 0 
0.549656 0.65 0 0.549656 0.6 0 0.549656 0.55 0 
0.549656 0.5 0 0.549656 0.45 0 0.549656 0.4 0 
0.549656 0.35 0 0.549656 0.3 0 0.549656 0.25 0 
0.549656 0.2 0 0.549656 0.15 0 0.549656 0.1 0 
0.549656 0.05 0 0.549656 0 0 0.59944 1.5 0 
0.59944 1.45 0 0.59944 1.4 0 0.59944 1.35 0 
0.59944 1.3 0 0.59944 1.25 0 0.59944 1.2 0 
0.59944 1.15 0 0.59944 1.1 0 0.59944 1.05 0 
0.59944 1 0 0.59944 0.95 0 0.59944 0.9 0 
0.59944 0.85 0 0.59944 0.8 0 0.59944 0.75 0 
0.59944 0.7 0 0.59944 0.65 0 0.59944 0.6 0 
0.59944 0.55 0 0.59944 0.5 0 0.59944 0.45 0 
0.59944 0.4 0 0.59944 0.35 0 0.59944 0.3 0 
0.59944 0.25 0 0.59944 0.2 0 0.59944 0.15 0 
0.59944 0.1 0 0.59944 0.05 0 0.59944 0 0 
0.649224 1.5 0 0.649224 1.45 0 0.649224 1.4 0 
0.649224 1.35 0 0.649224 1.3 0 0.649224 1.25 0 
0.649224 1.2 0 0.649224 1.15 0 0.649224 1.1 0 
0.649224 1.05 0 0.649224 1 0 0.649224 0.95 0 
0.649224 0.9 0 0.649224 0.85 0 0.649224 0.8 0 
0.649224 0.75 0 0.649224 0.7 0 0.649224 0.65 0 
0.649224 0.6 0 0.649224 0.55 0 0.649224 0.5 0 
0.649224 0.45 0 0.649224 0.4 0 0.649224 0.35 0 
0.649224 0.3 0 0.649224 0.25 0 0.649224 0.2 0 
0.649224 0.15 0 0.649224 0.1 0 0.649224 0.05 0 
0.649224 0 0 0.699008 1.5 0 0.699008 1.45 0 
0.699008 1.4 0 0.699008 1.35 0 0.699008 1.3 0 
0.699008 1.25 0 0.699008 1.2 0 0.699008 1.15 0 
0.699008 1.1 0 0.699008 1.05 0 0.699008 1 0 
0.699008 0.95 0 0.699008 0.9 0 0.699008 0.85 0 
0.699008 0.8 0 0.699008 0.75 0 0.699008 0.7 0 
0.699008 0.65 0 0.699008 0.6 0 0.699008 0.55 0 
0.699008 0.5 0 0.699008 0.45 0 0.699008 0.4 0 
0.699008 0.35 0 0.699008 0.3 0 0.699008 0.25 0 
0.699008 0.2 0 0.699008 0.15 0 0.699008 0.1 0 
0.699008 0.05 0 0.699008 0 0 0.748792 1.5 0 
0.748792 1.45 0 0.748792 1.4 0 0.748792 1.35 0 
0.748792 1.3 0 0.748792 1.25 0 0.748792 1.2 0 
0.748792 1.15 0 0.748792 1.1 0 0.748792 1.05 0 
0.748792 1 0 0.748792 0.95 0 0.748792 0.9 0 
0.748792 0.85 0 0.748792 0.8 0 0.748792 0.75 0 
0.748792 0.7 0 0.748792 0.65 0 0.748792 0.6 0 
0.748792 0.55 0 0.748792 0.5 0 0.748792 0.45 0 
0.748792 0.4 0 0.748792 0.35 0 0.748792 0.3 0 
0.748792 0.25 0 0.748792 0.2 0 0.748792 0.15 0 
0.748792 0.1 0 0.748792 0.05 0 0.748792 0 0 
0.798576 1.5 0 0.798576 1.45 0 0.798576 1.4 0 
0.798576 1.35 0 0.798576 1.3 0 0.798576 1.25 0 
0.798576 1.2 0 0.798576 1.15 0 0.798576 1.1 0 
0.798576 1.05 0 0.798576 1 0 0.798576 0.95 0 
0.798576 0.9 0 0.798576 0.85 0 0.798576 0.8 0 
0.798576 0.75 0 0.798576 0.7 0 0.798576 0.65 0 
0.798576 0.6 0 0.798576 0.55 0 0.798576 0.5 0 
0.798576 0.45 0 0.798576 0.4 0 0.798576 0.35 0 
0.798576 0.3 0 0.798576 0.25 0 0.798576 0.2 0 
0.798576 0.15 0 0.798576 0.1 0 0.798576 0.05 0 
0.798576 0 0 0.84836 1.5 0 0.84836 1.45 0 
0.84836 1.4 0 0.84836 1.35 0 0.84836 1.3 0 
0.84836 1.25 0 0.84836 1.2 0 0.84836 1.15 0 
0.84836 1.1 0 0.84836 1.05 0 0.84836 1 0 
0.84836 0.95 0 0.84836 0.9 0 0.84836 0.85 0 
0.84836 0.8 0 0.84836 0.75 0 0.84836 0.7 0 
0.84836 0.65 0 0.84836 0.6 0 0.84836 0.55 0 
0.84836 0.5 0 0.84836 0.45 0 0.84836 0.4 0 
0.84836 0.35 0 0.84836 0.3 0 0.84836 0.25 0 
0.84836 0.2 0 0.84836 0.15 0 0.84836 0.1 0 
0.84836 0.05 0 0.84836 0 0 0.898144 1.5 0 
0.898144 1.45 0 0.898144 1.4 0 0.898144 1.35 0 
0.898144 1.3 0 0.898144 1.25 0 0.898144 1.2 0 
0.898144 1.15 0 0.898144 1.1 0 0.898144 1.05 0 
0.898144 1 0 0.898144 0.95 0 0.898144 0.9 0 
0.898144 0.85 0 0.898144 0.8 0 0.898144 0.75 0 
0.898144 0.7 0 0.898144 0.65 0 0.898144 0.6 0 
0.898144 0.55 0 0.898144 0.5 0 0.898144 0.45 0 
0.898144 0.4 0 0.898144 0.35 0 0.898144 0.3 0 
0.898144 0.25 0 0.898144 0.2 0 0.898144 0.15 0 
0.898144 0.1 0 0.898144 0.05 0 0.898144 0 0 
0.947928 1.5 0 0.947928 1.45 0 0.947928 1.4 0 
0.947928 1.35 0 0.947928 1.3 0 0.947928 1.25 0 
0.947928 1.2 0 0.947928 1.15 0 0.947928 1.1 0 
0.947928 1.05 0 0.947928 1 0 0.947928 0.95 0 
0.947928 0.9 0 0.947928 0.85 0 0.947928 0.8 0 
0.947928 0.75 0 0.947928 0.7 0 0.947928 0.65 0 
0.947928 0.6 0 0.947928 0.55 0 0.947928 0.5 0 
0.947928 0.45 0 0.947928 0.4 0 0.947928 0.35 0 
0.947928 0.3 0 0.947928 0.25 0 0.947928 0.2 0 
0.947928 0.15 0 0.947928 0.1 0 0.947928 0.05 0 
0.947928 0 0 0.997712 1.5 0 0.997712 1.45 0 
0.997712 1.4 0 0.997712 1.35 0 0.997712 1.3 0 
0.997712 1.25 0 0.997712 1.2 0 0.997712 1.15 0 
0.997712 1.1 0 0.997712 1.05 0 0.997712 1 0 
0.997712 0.95 0 0.997712 0.9 0 0.997712 0.85 0 
0.997712 0.8 0 0.997712 0.75 0 0.997712 0.7 0 
0.997712 0.65 0 0.997712 0.6 0 0.997712 0.55 0 
0.997712 0.5 0 0.997712 0.45 0 0.997712 0.4 0 
0.997712 0.35 0 0.997712 0.3 0 0.997712 0.25 0 
0.997712 0.2 0 0.997712 0.15 0 0.997712 0.1 0 
0.997712 0.05 0 0.997712 0 0 1.047496 1.5 0 
1.047496 1.45 0 1.047496 1.4 0 1.047496 1.35 0 
1.047496 1.3 0 1.047496 1.25 0 1.047496 1.2 0 
1.047496 1.15 0 1.047496 1.1 0 1.047496 1.05 0 
1.047496 1 0 1.047496 0.95 0 1.047496 0.9 0 
1.047496 0.85 0 1.047496 0.8 0 1.047496 0.75 0 
1.047496 0.7 0 1.047496 0.65 0 1.047496 0.6 0 
1.047496 0.55 0 1.047496 0.5 0 1.047496 0.45 0 
1.047496 0.4 0 1.047496 0.35 0 1.047496 0.3 0 
1.047496 0.25 0 1.047496 0.2 0 1.047496 0.15 0 
[...]
CELL_DATA 9270
FIELD FieldData 7
B_Stress_n_p_m2 1 9270 float
0.251973 0.237388 0.238656 0.241214 0.24086 0.240971 0.240945 0.240942 0.240941 
0.240946 0.240954 0.240966 0.240979 0.240995 0.24101 0.24101 0.240995 0.240979 
0.240966 0.240954 0.240946 0.240941 0.240942 0.240945 0.240971 0.24086 0.241214 
0.238656 0.237388 0.251973 0.089655 0.0758791 0.0900624 0.0897041 0.0899015 0.0895515 
0.0893186 0.0891389 0.0890136 0.0889252 0.0888631 0.0888212 0.088794 0.0887787 0.0887723 
0.0887723 0.0887787 0.088794 0.0888212 0.0888631 0.0889252 0.0890136 0.0891389 0.0893186 
0.0895515 0.0899015 0.0897041 0.0900624 0.0758791 0.089655 0.0876871 0.103527 0.10902 
0.108894 0.108277 0.107622 0.107171 0.106848 0.106618 0.106452 0.106331 0.106244 
0.106182 0.106142 0.106121 0.106121 0.106142 0.106182 0.106244 0.106331 0.106452 
0.106618 0.106848 0.107171 0.107622 0.108277 0.108894 0.10902 0.103527 0.0876871 
0.0788359 0.0995297 0.105759 0.106075 0.105476 0.104791 0.104277 0.1039 0.103622 
0.10342 0.10327 0.103163 0.103089 0.103042 0.103019 0.103019 0.103042 0.103089 
0.103163 0.10327 0.10342 0.103622 0.1039 0.104277 0.104791 0.105476 0.106075 
0.105759 0.0995297 0.0788359 0.0765058 0.099859 0.106325 0.107056 0.106516 0.105865 
0.105337 0.104937 0.104633 0.104405 0.104234 0.104109 0.104022 0.103966 0.103939 
0.103939 0.103966 0.104022 0.104109 0.104234 0.104405 0.104633 0.104937 0.105337 
0.105865 0.106516 0.107056 0.106325 0.099859 0.0765058 0.0747825 0.0989965 0.105891 
0.10695 0.106549 0.105979 0.105482 0.105092 0.104785 0.10455 0.10437 0.104237 
0.104143 0.104083 0.104053 0.104053 0.104083 0.104143 0.104237 0.10437 0.10455 
0.104785 0.105092 0.105482 0.105979 0.106549 0.10695 0.105891 0.0989965 0.0747825 
0.0738888 0.0984203 0.105595 0.106878 0.106613 0.106133 0.105686 0.105323 0.105029 
0.104798 0.104619 0.104484 0.104387 0.104325 0.104294 0.104294 0.104325 0.104387 
0.104484 0.104619 0.104798 0.105029 0.105323 0.105686 0.106133 0.106613 0.106878 
0.105595 0.0984203 0.0738888 0.0733327 0.0979443 0.105291 0.106723 0.106577 0.10618 
0.105789 0.105461 0.105189 0.104971 0.104798 0.104667 0.104572 0.10451 0.10448 
0.10448 0.10451 0.104572 0.104667 0.104798 0.104971 0.105189 0.105461 0.105789 
0.10618 0.106577 0.106723 0.105291 0.0979443 0.0733327 0.0730106 0.0975993 0.105034 
0.106563 0.106509 0.106185 0.105848 0.105558 0.105312 0.105111 0.104949 0.104824 
0.104733 0.104674 0.104644 0.104644 0.104674 0.104733 0.104824 0.104949 0.105111 
0.105312 0.105558 0.105848 0.106185 0.106509 0.106563 0.105034 0.0975993 0.0730106 
0.0728354 0.0973512 0.10482 0.106407 0.106424 0.106159 0.105871 0.105617 0.105398 
0.105216 0.105067 0.104952 0.104866 0.10481 0.104783 0.104783 0.10481 0.104866 
0.104952 0.105067 0.105216 0.105398 0.105617 0.105871 0.106159 0.106424 0.106407 
0.10482 0.0973512 0.0728354 0.0727627 0.097179 0.104645 0.106265 0.106333 0.106117 
0.105871 0.10565 0.105456 0.105294 0.105159 0.105054 0.104975 0.104924 0.104898 
0.104898 0.104924 0.104975 0.105054 0.105159 0.105294 0.105456 0.10565 0.105871 
0.106117 0.106333 0.106265 0.104645 0.097179 0.0727627 0.0727635 0.0970641 0.104503 
0.106138 0.106245 0.106066 0.105856 0.105664 0.105494 0.105349 0.105229 0.105133 
0.105062 0.105015 0.104992 0.104992 0.105015 0.105062 0.105133 0.105229 0.105349 
0.105494 0.105664 0.105856 0.106066 0.106245 0.106138 0.104503 0.0970641 0.0727635 
0.0728158 0.0969965 0.10439 0.106027 0.10616 0.106012 0.105831 0.105663 0.105514 
0.105386 0.105279 0.105194 0.10513 0.105088 0.105066 0.105066 0.105088 0.10513 
0.105194 0.105279 0.105386 0.105514 0.105663 0.105831 0.106012 0.10616 0.106027 
0.10439 0.0969965 0.0728158 0.0729045 0.0969675 0.1043 0.10593 0.106082 0.105957 
0.105799 0.105653 0.105522 0.105409 0.105315 0.105238 0.105181 0.105143 0.105124 
0.105124 0.105143 0.105181 0.105238 0.105315 0.105409 0.105522 0.105653 0.105799 
0.105957 0.106082 0.10593 0.1043 0.0969675 0.0729045 0.0730214 0.0969674 0.104231 
0.105845 0.106009 0.105903 0.105764 0.105636 0.10552 0.105421 0.105337 0.105269 
0.105218 0.105184 0.105167 0.105167 0.105184 0.105218 0.105269 0.105337 0.105421 
0.10552 0.105636 0.105764 0.105903 0.106009 0.105845 0.104231 0.0969674 0.0730214 
0.0731604 0.0969899 0.104178 0.105771 0.105942 0.10585 0.105727 0.105613 0.105511 
0.105423 0.105348 0.105288 0.105243 0.105212 0.105197 0.105197 0.105212 0.105243 
0.105288 0.105348 0.105423 0.105511 0.105613 0.105727 0.10585 0.105942 0.105771 
0.104178 0.0969899 0.0731604 0.073317 0.0970302 0.104137 0.105706 0.10588 0.105799 
0.105689 0.105587 0.105496 0.105418 0.105351 0.105298 0.105257 0.10523 0.105216 
0.105216 0.10523 0.105257 0.105298 0.105351 0.105418 0.105496 0.105587 0.105689 
0.105799 0.10588 0.105706 0.104137 0.0970302 0.073317 0.0734879 0.0970843 0.104107 
0.105648 0.105823 0.105751 0.10565 0.105558 0.105477 0.105406 0.105347 0.105299 
0.105263 0.105238 0.105226 0.105226 0.105238 0.105263 0.105299 0.105347 0.105406 
0.105477 0.105558 0.10565 0.105751 0.105823 0.105648 0.104107 0.0970843 0.0734879 
0.0736706 0.0971496 0.104086 0.105596 0.105769 0.105703 0.105612 0.105528 0.105454 
0.10539 0.105337 0.105294 0.105261 0.105239 0.105228 0.105228 0.105239 0.105261 
0.105294 0.105337 0.10539 0.105454 0.105528 0.105612 0.105703 0.105769 0.105596 
0.104086 0.0971496 0.0736706 0.0738633 0.0972237 0.104071 0.105549 0.105719 0.105658 
0.105573 0.105496 0.105428 0.10537 0.105322 0.105283 0.105253 0.105234 0.105224 
0.105224 0.105234 0.105253 0.105283 0.105322 0.10537 0.105428 0.105496 0.105573 
0.105658 0.105719 0.105549 0.104071 0.0972237 0.0738633 0.0740643 0.0973049 0.104061 
0.105506 0.105672 0.105614 0.105534 0.105463 0.1054 0.105347 0.105303 0.105268 
0.105241 0.105223 0.105214 0.105214 0.105223 0.105241 0.105268 0.105303 0.105347 
0.1054 0.105463 0.105534 0.105614 0.105672 0.105506 0.104061 0.0973049 0.0740643 
0.0742726 0.0973918 0.104055 0.105467 0.105627 0.105572 0.105496 0.105429 0.105371 
0.105322 0.105281 0.105248 0.105224 0.105208 0.105199 0.105199 0.105208 0.105224 
0.105248 0.105281 0.105322 0.105371 0.105429 0.105496 0.105572 0.105627 0.105467 
0.104055 0.0973918 0.0742726 0.0744872 0.0974832 0.104053 0.10543 0.105583 0.10553 
0.105458 0.105394 0.10534 0.105294 0.105256 0.105226 0.105204 0.105189 0.105181 
0.105181 0.105189 0.105204 0.105226 0.105256 0.105294 0.10534 0.105394 0.105458 
0.10553 0.105583 0.10543 0.104053 0.0974832 0.0744872 0.0747074 0.0975784 0.104053 
0.105395 0.105542 0.105489 0.10542 0.105359 0.105308 0.105265 0.105229 0.105201 
0.10518 0.105166 0.105159 0.105159 0.105166 0.10518 0.105201 0.105229 0.105265 
0.105308 0.105359 0.10542 0.105489 0.105542 0.105395 0.104053 0.0975784 0.0747074 
0.0749325 0.0976764 0.104054 0.105361 0.105501 0.105449 0.105382 0.105324 0.105275 
0.105234 0.105201 0.105174 0.105155 0.105142 0.105135 0.105135 0.105142 0.105155 
0.105174 0.105201 0.105234 0.105275 0.105324 0.105382 0.105449 0.105501 0.105361 
0.104054 0.0976764 0.0749325 0.0751622 0.0977768 0.104058 0.105329 0.105462 0.10541 
0.105345 0.105289 0.105241 0.105203 0.105171 0.105146 0.105127 0.105115 0.105109 
0.105109 0.105115 0.105127 0.105146 0.105171 0.105203 0.105241 0.105289 0.105345 
0.10541 0.105462 0.105329 0.104058 0.0977768 0.0751622 0.0753961 0.0978791 0.104062 
0.105298 0.105423 0.105371 0.105307 0.105253 0.105207 0.10517 0.105139 0.105116 
0.105098 0.105086 0.10508 0.10508 0.105086 0.105098 0.105116 0.105139 0.10517 
0.105207 0.105253 0.105307 0.105371 0.105423 0.105298 0.104062 0.0978791 0.0753961 
0.0756339 0.0979829 0.104067 0.105267 0.105385 0.105333 0.10527 0.105217 0.105173 
0.105136 0.105107 0.105084 0.105067 0.105056 0.10505 0.10505 0.105056 0.105067 
0.105084 0.105107 0.105136 0.105173 0.105217 0.10527 0.105333 0.105385 0.105267 
0.104067 0.0979829 0.0756339 0.0758753 0.0980878 0.104073 0.105238 0.105347 0.105294 
0.105233 0.105181 0.105138 0.105102 0.105074 0.105052 0.105035 0.105025 0.105019 
0.105019 0.105025 0.105035 0.105052 0.105074 0.105102 0.105138 0.105181 0.105233 
0.105294 0.105347 0.105238 0.104073 0.0980878 0.0758753 0.0761201 0.0981937 0.104079 
0.105208 0.10531 0.105256 0.105195 0.105144 0.105102 0.105068 0.10504 0.105019 
0.105003 0.104992 0.104987 0.104987 0.104992 0.105003 0.105019 0.10504 0.105068 
0.105102 0.105144 0.105195 0.105256 0.10531 0.105208 0.104079 0.0981937 0.0761201 
0.0763684 0.0983002 0.104084 0.105179 0.105273 0.105219 0.105158 0.105108 0.105066 
0.105033 0.105006 0.104985 0.104969 0.104959 0.104954 0.104954 0.104959 0.104969 
0.104985 0.105006 0.105033 0.105066 0.105108 0.105158 0.105219 0.105273 0.105179 
0.104084 0.0983002 0.0763684 0.0766198 0.0984072 0.10409 0.105149 0.105236 0.105181 
0.105121 0.105071 0.10503 0.104997 0.104971 0.10495 0.104935 0.104925 0.10492 
0.10492 0.104925 0.104935 0.10495 0.104971 0.104997 0.10503 0.105071 0.105121 
0.105181 0.105236 0.105149 0.10409 0.0984072 0.0766198 0.0768744 0.0985146 0.104096 
0.10512 0.105199 0.105143 0.105084 0.105034 0.104994 0.104961 0.104935 0.104915 
0.1049 0.10489 0.104885 0.104885 0.10489 0.1049 0.104915 0.104935 0.104961 
0.104994 0.105034 0.105084 0.105143 0.105199 0.10512 0.104096 0.0985146 0.0768744 
0.0771321 0.0986221 0.104101 0.105091 0.105162 0.105106 0.105046 0.104997 0.104957 
0.104925 0.104899 0.104879 0.104865 0.104855 0.10485 0.10485 0.104855 0.104865 
0.104879 0.104899 0.104925 0.104957 0.104997 0.105046 0.105106 0.105162 0.105091 
0.104101 0.0986221 0.0771321 0.0773929 0.0987298 0.104106 0.105062 0.105126 0.105068 
0.105009 0.10496 0.104921 0.104889 0.104863 0.104843 0.104829 0.10482 0.104815 
0.104815 0.10482 0.104829 0.104843 0.104863 0.104889 0.104921 0.10496 0.105009 
0.105068 0.105126 0.105062 0.104106 0.0987298 0.0773929 0.0776567 0.0988375 0.104111 
0.105032 0.105089 0.105031 0.104972 0.104923 0.104884 0.104852 0.104827 0.104807 
0.104793 0.104784 0.104779 0.104779 0.104784 0.104793 0.104807 0.104827 0.104852 
0.104884 0.104923 0.104972 0.105031 0.105089 0.105032 0.104111 0.0988375 0.0776567 
0.0779236 0.098945 0.104115 0.105003 0.105052 0.104993 0.104934 0.104886 0.104847 
0.104815 0.10479 0.104771 0.104757 0.104747 0.104743 0.104743 0.104747 0.104757 
0.104771 0.10479 0.104815 0.104847 0.104886 0.104934 0.104993 0.105052 0.105003 
0.104115 0.098945 0.0779236 0.0781934 0.0990525 0.104118 0.104973 0.105016 0.104956 
0.104897 0.104849 0.10481 0.104778 0.104753 0.104734 0.10472 0.104711 0.104706 
0.104706 0.104711 0.10472 0.104734 0.104753 0.104778 0.10481 0.104849 0.104897 
0.104956 0.105016 0.104973 0.104118 0.0990525 0.0781934 0.0784663 0.0991597 0.104121 
0.104943 0.104979 0.104918 0.104859 0.104811 0.104772 0.104741 0.104716 0.104697 
0.104683 0.104674 0.104669 0.104669 0.104674 0.104683 0.104697 0.104716 0.104741 
0.104772 0.104811 0.104859 0.104918 0.104979 0.104943 0.104121 0.0991597 0.0784663 
0.0787423 0.0992666 0.104123 0.104912 0.104942 0.10488 0.104821 0.104773 0.104735 
0.104704 0.104679 0.10466 0.104646 0.104637 0.104632 0.104632 0.104637 0.104646 
0.10466 0.104679 0.104704 0.104735 0.104773 0.104821 0.10488 0.104942 0.104912 
0.104123 0.0992666 0.0787423 0.0790213 0.0993732 0.104125 0.104882 0.104905 0.104842 
0.104784 0.104736 0.104697 0.104666 0.104642 0.104623 0.104609 0.1046 0.104595 
0.104595 0.1046 0.104609 0.104623 0.104642 0.104666 0.104697 0.104736 0.104784 
0.104842 0.104905 0.104882 0.104125 0.0993732 0.0790213 0.0793034 0.0994793 0.104125 
0.104851 0.104868 0.104805 0.104746 0.104698 0.10466 0.104629 0.104604 0.104585 
0.104571 0.104562 0.104558 0.104558 0.104562 0.104571 0.104585 0.104604 0.104629 
0.10466 0.104698 0.104746 0.104805 0.104868 0.104851 0.104125 0.0994793 0.0793034 
0.0795886 0.0995851 0.104126 0.10482 0.104831 0.104767 0.104708 0.10466 0.104622 
0.104591 0.104566 0.104547 0.104534 0.104525 0.10452 0.10452 0.104525 0.104534 
0.104547 0.104566 0.104591 0.104622 0.10466 0.104708 0.104767 0.104831 0.10482 
0.104126 0.0995851 0.0795886 0.079877 0.0996903 0.104125 0.104789 0.104794 0.104729 
0.10467 0.104622 0.104584 0.104553 0.104528 0.10451 0.104496 0.104487 0.104482 
0.104482 0.104487 0.104496 0.10451 0.104528 0.104553 0.104584 0.104622 0.10467 
0.104729 0.104794 0.104789 0.104125 0.0996903 0.079877 0.0801686 0.0997951 0.104124 
0.104757 0.104756 0.10469 0.104632 0.104584 0.104546 0.104515 0.104491 0.104472 
0.104458 0.104449 0.104444 0.104444 0.104449 0.104458 0.104472 0.104491 0.104515 
0.104546 0.104584 0.104632 0.10469 0.104756 0.104757 0.104124 0.0997951 0.0801686 
0.0804634 0.0998992 0.104122 0.104725 0.104719 0.104652 0.104593 0.104546 0.104508 
0.104477 0.104452 0.104434 0.10442 0.104411 0.104406 0.104406 0.104411 0.10442 
0.104434 0.104452 0.104477 0.104508 0.104546 0.104593 0.104652 0.104719 0.104725 
0.104122 0.0998992 0.0804634 0.0807615 0.100003 0.104119 0.104692 0.104681 0.104614 
0.104555 0.104508 0.104469 0.104439 0.104414 0.104395 0.104382 0.104373 0.104368 
0.104368 0.104373 0.104382 0.104395 0.104414 0.104439 0.104469 0.104508 0.104555 
0.104614 0.104681 0.104692 0.104119 0.100003 0.0807615 0.0810629 0.100106 0.104115 
0.10466 0.104644 0.104576 0.104517 0.104469 0.104431 0.1044 0.104376 0.104357 
0.104343 0.104334 0.10433 0.10433 0.104334 0.104343 0.104357 0.104376 0.1044 
0.104431 0.104469 0.104517 0.104576 0.104644 0.10466 0.104115 0.100106 0.0810629 
0.0813677 0.100208 0.104111 0.104627 0.104606 0.104537 0.104478 0.104431 0.104393 
0.104362 0.104337 0.104319 0.104305 0.104296 0.104292 0.104292 0.104296 0.104305 
0.104319 0.104337 0.104362 0.104393 0.104431 0.104478 0.104537 0.104606 0.104627 
0.104111 0.100208 0.0813677 0.0816758 0.100309 0.104105 0.104594 0.104568 0.104499 
0.10444 0.104392 0.104354 0.104323 0.104299 0.10428 0.104266 0.104257 0.104253 
0.104253 0.104257 0.104266 0.10428 0.104299 0.104323 0.104354 0.104392 0.10444 
0.104499 0.104568 0.104594 0.104105 0.100309 0.0816758 0.0819875 0.10041 0.104099 
0.10456 0.10453 0.10446 0.104401 0.104353 0.104315 0.104285 0.10426 0.104241 
0.104228 0.104219 0.104214 0.104214 0.104219 0.104228 0.104241 0.10426 0.104285 
0.104315 0.104353 0.104401 0.10446 0.10453 0.10456 0.104099 0.10041 0.0819875 
0.0823026 0.10051 0.104092 0.104526 0.104491 0.104421 0.104362 0.104315 0.104277 
0.104246 0.104222 0.104203 0.104189 0.10418 0.104176 0.104176 0.10418 0.104189 
0.104203 0.104222 0.104246 0.104277 0.104315 0.104362 0.104421 0.104491 0.104526 
0.104092 0.10051 0.0823026 0.0826213 0.100608 0.104084 0.104492 0.104453 0.104382 
0.104323 0.104276 0.104238 0.104207 0.104183 0.104164 0.10415 0.104141 0.104137 
0.104137 0.104141 0.10415 0.104164 0.104183 0.104207 0.104238 0.104276 0.104323 
0.104382 0.104453 0.104492 0.104084 0.100608 0.0826213 0.0829436 0.100706 0.104076 
0.104457 0.104414 0.104343 0.104284 0.104237 0.104199 0.104168 0.104144 0.104125 
0.104111 0.104102 0.104098 0.104098 0.104102 0.104111 0.104125 0.104144 0.104168 
0.104199 0.104237 0.104284 0.104343 0.104414 0.104457 0.104076 0.100706 0.0829436 
0.0832696 0.100803 0.104066 0.104423 0.104376 0.104304 0.104245 0.104198 0.10416 
0.104129 0.104105 0.104086 0.104072 0.104063 0.104059 0.104059 0.104063 0.104072 
0.104086 0.104105 0.104129 0.10416 0.104198 0.104245 0.104304 0.104376 0.104423 
0.104066 0.100803 0.0832696 0.0835993 0.100899 0.104056 0.104387 0.104337 0.104265 
0.104206 0.104159 0.104121 0.10409 0.104066 0.104047 0.104033 0.104024 0.10402 
0.10402 0.104024 0.104033 0.104047 0.104066 0.10409 0.104121 0.104159 0.104206 
0.104265 0.104337 0.104387 0.104056 0.100899 0.0835993 0.0839328 0.100994 0.104044 
0.104352 0.104298 0.104226 0.104167 0.104119 0.104081 0.104051 0.104026 0.104007 
0.103994 0.103985 0.10398 0.10398 0.103985 0.103994 0.104007 0.104026 0.104051 
0.104081 0.104119 0.104167 0.104226 0.104298 0.104352 0.104044 0.100994 0.0839328 
0.0842701 0.101088 0.104032 0.104316 0.104259 0.104186 0.104128 0.10408 0.104042 
0.104011 0.103987 0.103968 0.103955 0.103946 0.103941 0.103941 0.103946 0.103955 
0.103968 0.103987 0.104011 0.104042 0.10408 0.104128 0.104186 0.104259 0.104316 
0.104032 0.101088 0.0842701 0.0846113 0.10118 0.104019 0.10428 0.10422 0.104147 
0.104088 0.104041 0.104003 0.103972 0.103948 0.103929 0.103915 0.103906 0.103902 
0.103902 0.103906 0.103915 0.103929 0.103948 0.103972 0.104003 0.104041 0.104088 
0.104147 0.10422 0.10428 0.104019 0.10118 0.0846113 0.0849565 0.101272 0.104005 
0.104244 0.104181 0.104107 0.104049 0.104001 0.103963 0.103932 0.103908 0.103889 
0.103876 0.103867 0.103862 0.103862 0.103867 0.103876 0.103889 0.103908 0.103932 
0.103963 0.104001 0.104049 0.104107 0.104181 0.104244 0.104005 0.101272 0.0849565 
0.0853057 0.101361 0.103991 0.104207 0.104141 0.104068 0.104009 0.103961 0.103924 
0.103893 0.103869 0.10385 0.103836 0.103827 0.103823 0.103823 0.103827 0.103836 
0.10385 0.103869 0.103893 0.103924 0.103961 0.104009 0.104068 0.104141 0.104207 
0.103991 0.101361 0.0853057 0.085659 0.10145 0.103975 0.104171 0.104102 0.104028 
0.103969 0.103922 0.103884 0.103853 0.103829 0.10381 0.103796 0.103787 0.103783 
0.103783 0.103787 0.103796 0.10381 0.103829 0.103853 0.103884 0.103922 0.103969 
0.104028 0.104102 0.104171 0.103975 0.10145 0.085659 0.0860164 0.101537 0.103958 
0.104134 0.104062 0.103988 0.103929 0.103882 0.103844 0.103813 0.103789 0.10377 
0.103757 0.103747 0.103743 0.103743 0.103747 0.103757 0.10377 0.103789 0.103813 
0.103844 0.103882 0.103929 0.103988 0.104062 0.104134 0.103958 0.101537 0.0860164 
0.0863781 0.101623 0.103941 0.104096 0.104022 0.103948 0.10389 0.103842 0.103804 
0.103773 0.103749 0.10373 0.103717 0.103708 0.103703 0.103703 0.103708 0.103717 
0.10373 0.103749 0.103773 0.103804 0.103842 0.10389 0.103948 0.104022 0.104096 
0.103941 0.101623 0.0863781 0.086744 0.101707 0.103922 0.104058 0.103982 0.103908 
0.10385 0.103802 0.103764 0.103733 0.103709 0.10369 0.103677 0.103668 0.103663 
0.103663 0.103668 0.103677 0.10369 0.103709 0.103733 0.103764 0.103802 0.10385 
0.103908 0.103982 0.104058 0.103922 0.101707 0.086744 0.0871143 0.10179 0.103903 
0.104021 0.103942 0.103868 0.103809 0.103762 0.103724 0.103693 0.103669 0.10365 
0.103637 0.103628 0.103623 0.103623 0.103628 0.103637 0.10365 0.103669 0.103693 
0.103724 0.103762 0.103809 0.103868 0.103942 0.104021 0.103903 0.10179 0.0871143 
0.0874891 0.10187 0.103883 0.103982 0.103902 0.103828 0.103769 0.103722 0.103684 
0.103653 0.103629 0.10361 0.103597 0.103588 0.103583 0.103583 0.103588 0.103597 
0.10361 0.103629 0.103653 0.103684 0.103722 0.103769 0.103828 0.103902 0.103982 
0.103883 0.10187 0.0874891 0.0878683 0.101949 0.103862 0.103944 0.103862 0.103787 
0.103729 0.103681 0.103644 0.103613 0.103589 0.10357 0.103556 0.103547 0.103543 
0.103543 0.103547 0.103556 0.10357 0.103589 0.103613 0.103644 0.103681 0.103729 
0.103787 0.103862 0.103944 0.103862 0.101949 0.0878683 0.088252 0.102027 0.10384 
0.103905 0.103822 0.103747 0.103689 0.103641 0.103604 0.103573 0.103549 0.10353 
0.103516 0.103507 0.103503 0.103503 0.103507 0.103516 0.10353 0.103549 0.103573 
0.103604 0.103641 0.103689 0.103747 0.103822 0.103905 0.10384 0.102027 0.088252 
0.0886404 0.102102 0.103817 0.103866 0.103781 0.103706 0.103648 0.103601 0.103563 
0.103532 0.103508 0.103489 0.103476 0.103467 0.103462 0.103462 0.103467 0.103476 
0.103489 0.103508 0.103532 0.103563 0.103601 0.103648 0.103706 0.103781 0.103866 
0.103817 0.102102 0.0886404 0.0890335 0.102175 0.103793 0.103827 0.103741 0.103666 
0.103608 0.10356 0.103523 0.103492 0.103468 0.103449 0.103435 0.103426 0.103422 
0.103422 0.103426 0.103435 0.103449 0.103468 0.103492 0.103523 0.10356 0.103608 
0.103666 0.103741 0.103827 0.103793 0.102175 0.0890335 0.0894314 0.102246 0.103768 
0.103788 0.1037 0.103625 0.103567 0.103519 0.103482 0.103451 0.103427 0.103408 
0.103395 0.103386 0.103382 0.103382 0.103386 0.103395 0.103408 0.103427 0.103451 
0.103482 0.103519 0.103567 0.103625 0.1037 0.103788 0.103768 0.102246 0.0894314 
0.0898342 0.102315 0.103742 0.103748 0.103659 0.103584 0.103526 0.103479 0.103441 
0.103411 0.103387 0.103368 0.103355 0.103346 0.103341 0.103341 0.103346 0.103355 