# vtk DataFile Version 5.1
vtk output
ASCII
DATASET UNSTRUCTURED_GRID
POINTS 4929 double
0.1016 1.5 0 0.1016 1.45 0 0.1016 1.4 0 
0.1016 1.35 0 0.1016 1.3 0 0.1016 1.25 0 
0.1016 1.2 0 0.1016 1.15 0 0.1016 1.1 0 
0.1016 1.05 0 0.1016 1 0 0.1016 0.95 0 
0.1016 0.9 0 0.1016 0.85 0 0.1016 0.8 0 
0.1016 0.75 0 0.1016 0.7 0 0.1016 0.65 0 
0.1016 0.6 0 0.1016 0.55 0 0.1016 0.5 0 
0.1016 0.45 0 0.1016 0.4 0 0.1016 0.35 0 
0.1016 0.3 0 0.1016 0.25 0 0.1016 0.2 0 
0.1016 0.15 0 0.1016 0.1 0 0.1016 0.05 0 
0.1016 0 0 5.08 1.5 0 5.08 1.45 0 
5.08 1.4 0 5.08 1.35 0 5.08 1.3 0 
5.08 1.25 0 5.08 1.2 0 5.08 1.15 0 
5.08 1.1 0 5.08 1.05 0 5.08 1 0 
5.08 0.95 0 5.08 0.9 0 5.08 0.85 0 
5.08 0.8 0 5.08 0.75 0 5.08 0.7 0 
5.08 0.65 0 5.08 0.6 0 5.08 0.55 0 
5.08 0.5 0 5.08 0.45 0 5.08 0.4 0 
5.08 0.35 0 5.08 0.3 0 5.08 0.25 0 
5.08 0.2 0 5.08 0.15 0 5.08 0.1 0 
5.08 0.05 0 5.08 0 0 0.12737462728 1.5 0 
0.12737462728 1.45 0 0.12737462728 1.4 0 0.12737462728 1.35 0 
0.12737462728 1.3 0 0.12737462728 1.25 0 0.12737462728 1.2 0 
0.12737462728 1.15 0 0.12737462728 1.1 0 0.12737462728 1.05 0 
0.12737462728 1 0 0.12737462728 0.95 0 0.12737462728 0.9 0 
0.12737462728 0.85 0 0.12737462728 0.8 0 0.12737462728 0.75 0 
0.12737462728 0.7 0 0.12737462728 0.65 0 0.12737462728 0.6 0 
0.12737462728 0.55 0 0.12737462728 0.5 0 0.12737462728 0.45 0 
0.12737462728 0.4 0 0.12737462728 0.35 0 0.12737462728 0.3 0 
0.12737462728 0.25 0 0.12737462728 0.2 0 0.12737462728 0.15 0 
0.12737462728 0.1 0 0.12737462728 0.05 0 0.12737462728 0 0 
0.15441581276 1.5 0 0.15441581276 1.45 0 0.15441581276 1.4 0 
0.15441581276 1.35 0 0.15441581276 1.3 0 0.15441581276 1.25 0 
0.15441581276 1.2 0 0.15441581276 1.15 0 0.15441581276 1.1 0 
0.15441581276 1.05 0 0.15441581276 1 0 0.15441581276 0.95 0 
0.15441581276 0.9 0 0.15441581276 0.85 0 0.15441581276 0.8 0 
0.15441581276 0.75 0 0.15441581276 0.7 0 0.15441581276 0.65 0 
0.15441581276 0.6 0 0.15441581276 0.55 0 0.15441581276 0.5 0 
0.15441581276 0.45 0 0.15441581276 0.4 0 0.15441581276 0.35 0 
0.15441581276 0.3 0 0.15441581276 0.25 0 0.15441581276 0.2 0 
0.15441581276 0.15 0 0.15441581276 0.1 0 0.15441581276 0.05 0 
0.15441581276 0 0 0.18278579477 1.5 0 0.18278579477 1.45 0 
0.18278579477 1.4 0 0.18278579477 1.35 0 0.18278579477 1.3 0 
0.18278579477 1.25 0 0.18278579477 1.2 0 0.18278579477 1.15 0 
0.18278579477 1.1 0 0.18278579477 1.05 0 0.18278579477 1 0 
0.18278579477 0.95 0 0.18278579477 0.9 0 0.18278579477 0.85 0 
0.18278579477 0.8 0 0.18278579477 0.75 0 0.18278579477 0.7 0 
0.18278579477 0.65 0 0.18278579477 0.6 0 0.18278579477 0.55 0 
0.18278579477 0.5 0 0.18278579477 0.45 0 0.18278579477 0.4 0 
0.18278579477 0.35 0 0.18278579477 0.3 0 0.18278579477 0.25 0 
0.18278579477 0.2 0 0.18278579477 0.15 0 0.18278579477 0.1 0 
0.18278579477 0.05 0 0.18278579477 0 0 0.21254987001 1.5 0 
0.21254987001 1.45 0 0.21254987001 1.4 0 0.21254987001 1.35 0 
0.21254987001 1.3 0 0.21254987001 1.25 0 0.21254987001 1.2 0 
0.21254987001 1.15 0 0.21254987001 1.1 0 0.21254987001 1.05 0 
0.21254987001 1 0 0.21254987001 0.95 0 0.21254987001 0.9 0 
0.21254987001 0.85 0 0.21254987001 0.8 0 0.21254987001 0.75 0 
0.21254987001 0.7 0 0.21254987001 0.65 0 0.21254987001 0.6 0 
0.21254987001 0.55 0 0.21254987001 0.5 0 0.21254987001 0.45 0 
0.21254987001 0.4 0 0.21254987001 0.35 0 0.21254987001 0.3 0 
0.21254987001 0.25 0 0.21254987001 0.2 0 0.21254987001 0.15 0 
0.21254987001 0.1 0 0.21254987001 0.05 0 0.21254987001 0 0 
0.24377654385 1.5 0 0.24377654385 1.45 0 0.24377654385 1.4 0 
0.24377654385 1.35 0 0.24377654385 1.3 0 0.24377654385 1.25 0 
0.24377654385 1.2 0 0.24377654385 1.15 0 0.24377654385 1.1 0 
0.24377654385 1.05 0 0.24377654385 1 0 0.24377654385 0.95 0 
0.24377654385 0.9 0 0.24377654385 0.85 0 0.24377654385 0.8 0 
0.24377654385 0.75 0 0.24377654385 0.7 0 0.24377654385 0.65 0 
0.24377654385 0.6 0 0.24377654385 0.55 0 0.24377654385 0.5 0 
0.24377654385 0.45 0 0.24377654385 0.4 0 0.24377654385 0.35 0 
0.24377654385 0.3 0 0.24377654385 0.25 0 0.24377654385 0.2 0 
0.24377654385 0.15 0 0.24377654385 0.1 0 0.24377654385 0.05 0 
0.24377654385 0 0 0.27653768798 1.5 0 0.27653768798 1.45 0 
0.27653768798 1.4 0 0.27653768798 1.35 0 0.27653768798 1.3 0 
0.27653768798 1.25 0 0.27653768798 1.2 0 0.27653768798 1.15 0 
0.27653768798 1.1 0 0.27653768798 1.05 0 0.27653768798 1 0 
0.27653768798 0.95 0 0.27653768798 0.9 0 0.27653768798 0.85 0 
0.27653768798 0.8 0 0.27653768798 0.75 0 0.27653768798 0.7 0 
0.27653768798 0.65 0 0.27653768798 0.6 0 0.27653768798 0.55 0 
0.27653768798 0.5 0 0.27653768798 0.45 0 0.27653768798 0.4 0 
0.27653768798 0.35 0 0.27653768798 0.3 0 0.27653768798 0.25 0 
0.27653768798 0.2 0 0.27653768798 0.15 0 0.27653768798 0.1 0 
0.27653768798 0.05 0 0.27653768798 0 0 0.31090870586 1.5 0 
0.31090870586 1.45 0 0.31090870586 1.4 0 0.31090870586 1.35 0 
0.31090870586 1.3 0 0.31090870586 1.25 0 0.31090870586 1.2 0 
0.31090870586 1.15 0 0.31090870586 1.1 0 0.31090870586 1.05 0 
0.31090870586 1 0 0.31090870586 0.95 0 0.31090870586 0.9 0 
0.31090870586 0.85 0 0.31090870586 0.8 0 0.31090870586 0.75 0 
0.31090870586 0.7 0 0.31090870586 0.65 0 0.31090870586 0.6 0 
0.31090870586 0.55 0 0.31090870586 0.5 0 0.31090870586 0.45 0 
0.31090870586 0.4 0 0.31090870586 0.35 0 0.31090870586 0.3 0 
0.31090870586 0.25 0 0.31090870586 0.2 0 0.31090870586 0.15 0 
0.31090870586 0.1 0 0.31090870586 0.05 0 0.31090870586 0 0 
0.34696870625 1.5 0 0.34696870625 1.45 0 0.34696870625 1.4 0 
0.34696870625 1.35 0 0.34696870625 1.3 0 0.34696870625 1.25 0 
0.34696870625 1.2 0 0.34696870625 1.15 0 0.34696870625 1.1 0 
0.34696870625 1.05 0 0.34696870625 1 0 0.34696870625 0.95 0 
0.34696870625 0.9 0 0.34696870625 0.85 0 0.34696870625 0.8 0 
0.34696870625 0.75 0 0.34696870625 0.7 0 0.34696870625 0.65 0 
0.34696870625 0.6 0 0.34696870625 0.55 0 0.34696870625 0.5 0 
0.34696870625 0.45 0 0.34696870625 0.4 0 0.34696870625 0.35 0 
0.34696870625 0.3 0 0.34696870625 0.25 0 0.34696870625 0.2 0 
0.34696870625 0.15 0 0.34696870625 0.1 0 0.34696870625 0.05 0 
0.34696870625 0 0 0.3848006853 1.5 0 0.3848006853 1.45 0 
0.3848006853 1.4 0 0.3848006853 1.35 0 0.3848006853 1.3 0 
0.3848006853 1.25 0 0.3848006853 1.2 0 0.3848006853 1.15 0 
0.3848006853 1.1 0 0.3848006853 1.05 0 0.3848006853 1 0 
0.3848006853 0.95 0 0.3848006853 0.9 0 0.3848006853 0.85 0 
0.3848006853 0.8 0 0.3848006853 0.75 0 0.3848006853 0.7 0 
0.3848006853 0.65 0 0.3848006853 0.6 0 0.3848006853 0.55 0 
0.3848006853 0.5 0 0.3848006853 0.45 0 0.3848006853 0.4 0 
0.3848006853 0.35 0 0.3848006853 0.3 0 0.3848006853 0.25 0 
0.3848006853 0.2 0 0.3848006853 0.15 0 0.3848006853 0.1 0 
0.3848006853 0.05 0 0.3848006853 0 0 0.42449171754 1.5 0 
0.42449171754 1.45 0 0.42449171754 1.4 0 0.42449171754 1.35 0 
0.42449171754 1.3 0 0.42449171754 1.25 0 0.42449171754 1.2 0 
0.42449171754 1.15 0 0.42449171754 1.1 0 0.42449171754 1.05 0 
0.42449171754 1 0 0.42449171754 0.95 0 0.42449171754 0.9 0 
0.42449171754 0.85 0 0.42449171754 0.8 0 0.42449171754 0.75 0 
0.42449171754 0.7 0 0.42449171754 0.65 0 0.42449171754 0.6 0 
0.42449171754 0.55 0 0.42449171754 0.5 0 0.42449171754 0.45 0 
0.42449171754 0.4 0 0.42449171754 0.35 0 0.42449171754 0.3 0 
0.42449171754 0.25 0 0.42449171754 0.2 0 0.42449171754 0.15 0 
0.42449171754 0.1 0 0.42449171754 0.05 0 0.42449171754 0 0 
0.46613315636 1.5 0 0.46613315636 1.45 0 0.46613315636 1.4 0 
0.46613315636 1.35 0 0.46613315636 1.3 0 0.46613315636 1.25 0 
0.46613315636 1.2 0 0.46613315636 1.15 0 0.46613315636 1.1 0 
0.46613315636 1.05 0 0.46613315636 1 0 0.46613315636 0.95 0 
0.46613315636 0.9 0 0.46613315636 0.85 0 0.46613315636 0.8 0 
0.46613315636 0.75 0 0.46613315636 0.7 0 0.46613315636 0.65 0 
0.46613315636 0.6 0 0.46613315636 0.55 0 0.46613315636 0.5 0 
0.46613315636 0.45 0 0.46613315636 0.4 0 0.46613315636 0.35 0 
0.46613315636 0.3 0 0.46613315636 0.25 0 0.46613315636 0.2 0 
0.46613315636 0.15 0 0.46613315636 0.1 0 0.46613315636 0.05 0 
0.46613315636 0 0 0.5098208442 1.5 0 0.5098208442 1.45 0 
0.5098208442 1.4 0 0.5098208442 1.35 0 0.5098208442 1.3 0 
0.5098208442 1.25 0 0.5098208442 1.2 0 0.5098208442 1.15 0 
0.5098208442 1.1 0 0.5098208442 1.05 0 0.5098208442 1 0 
0.5098208442 0.95 0 0.5098208442 0.9 0 0.5098208442 0.85 0 
0.5098208442 0.8 0 0.5098208442 0.75 0 0.5098208442 0.7 0 
0.5098208442 0.65 0 0.5098208442 0.6 0 0.5098208442 0.55 0 
0.5098208442 0.5 0 0.5098208442 0.45 0 0.5098208442 0.4 0 
0.5098208442 0.35 0 0.5098208442 0.3 0 0.5098208442 0.25 0 
0.5098208442 0.2 0 0.5098208442 0.15 0 0.5098208442 0.1 0 
0.5098208442 0.05 0 0.5098208442 0 0 0.55565533319 1.5 0 
0.55565533319 1.45 0 0.55565533319 1.4 0 0.55565533319 1.35 0 
0.55565533319 1.3 0 0.55565533319 1.25 0 0.55565533319 1.2 0 
0.55565533319 1.15 0 0.55565533319 1.1 0 0.55565533319 1.05 0 
0.55565533319 1 0 0.55565533319 0.95 0 0.55565533319 0.9 0 
0.55565533319 0.85 0 0.55565533319 0.8 0 0.55565533319 0.75 0 
0.55565533319 0.7 0 0.55565533319 0.65 0 0.55565533319 0.6 0 
0.55565533319 0.55 0 0.55565533319 0.5 0 0.55565533319 0.45 0 
0.55565533319 0.4 0 0.55565533319 0.35 0 0.55565533319 0.3 0 
0.55565533319 0.25 0 0.55565533319 0.2 0 0.55565533319 0.15 0 
0.55565533319 0.1 0 0.55565533319 0.05 0 0.55565533319 0 0 
0.60374211656 1.5 0 0.60374211656 1.45 0 0.60374211656 1.4 0 
0.60374211656 1.35 0 0.60374211656 1.3 0 0.60374211656 1.25 0 
0.60374211656 1.2 0 0.60374211656 1.15 0 0.60374211656 1.1 0 
0.60374211656 1.05 0 0.60374211656 1 0 0.60374211656 0.95 0 
0.60374211656 0.9 0 0.60374211656 0.85 0 0.60374211656 0.8 0 
0.60374211656 0.75 0 0.60374211656 0.7 0 0.60374211656 0.65 0 
0.60374211656 0.6 0 0.60374211656 0.55 0 0.60374211656 0.5 0 
0.60374211656 0.45 0 0.60374211656 0.4 0 0.60374211656 0.35 0 
0.60374211656 0.3 0 0.60374211656 0.25 0 0.60374211656 0.2 0 
0.60374211656 0.15 0 0.60374211656 0.1 0 0.60374211656 0.05 0 
0.60374211656 0 0 0.65419187143 1.5 0 0.65419187143 1.45 0 
0.65419187143 1.4 0 0.65419187143 1.35 0 0.65419187143 1.3 0 
0.65419187143 1.25 0 0.65419187143 1.2 0 0.65419187143 1.15 0 
[...]
CELL_DATA 4740
FIELD FieldData 7
B_Stress_n_p_m2 1 4740 float
0.0786303 0.0949322 0.0969117 0.105389 0.109861 0.112075 0.113134 0.11349 0.113506 
0.113382 0.113223 0.113079 0.112968 0.112895 0.112859 0.112859 0.112895 0.112968 
0.113079 0.113223 0.113382 0.113506 0.11349 0.113134 0.112075 0.109861 0.105389 
0.0969117 0.0949322 0.0786303 0.19548 0.0392017 0.0785637 0.096521 0.103799 0.10959 
0.113188 0.115372 0.11665 0.117344 0.117691 0.117844 0.117898 0.11791 0.11791 
0.11791 0.11791 0.117898 0.117844 0.117691 0.117344 0.11665 0.115372 0.113188 
0.10959 0.103799 0.096521 0.0785637 0.0392017 0.19548 0.110443 0.0620122 0.0826326 
0.0957249 0.10198 0.106054 0.108459 0.109816 0.110549 0.110914 0.111075 0.111132 
0.111142 0.111137 0.111131 0.111131 0.111137 0.111142 0.111132 0.111075 0.110914 
0.110549 0.109816 0.108459 0.106054 0.10198 0.0957249 0.0826326 0.0620122 0.110443 
0.0917714 0.0745468 0.0850945 0.0948344 0.100666 0.104479 0.106852 0.108277 0.109111 
0.10958 0.109835 0.109967 0.110032 0.110063 0.110074 0.110074 0.110063 0.110032 
0.109967 0.109835 0.10958 0.109111 0.108277 0.106852 0.104479 0.100666 0.0948344 
0.0850945 0.0745468 0.0917714 0.0916355 0.0816988 0.0875007 0.0945928 0.0997076 0.103382 
0.105874 0.107505 0.10855 0.109204 0.109607 0.10985 0.109992 0.110071 0.110105 
0.110105 0.110071 0.109992 0.10985 0.109607 0.109204 0.10855 0.107505 0.105874 
0.103382 0.0997076 0.0945928 0.0875007 0.0816988 0.0916355 0.0907062 0.0865918 0.0900939 
0.0950541 0.0992321 0.102519 0.104925 0.106614 0.10777 0.108546 0.109058 0.109389 
0.109597 0.109718 0.109774 0.109774 0.109718 0.109597 0.109389 0.109058 0.108546 
0.10777 0.106614 0.104925 0.102519 0.0992321 0.0950541 0.0900939 0.0865918 0.0907062 
0.0902391 0.0896603 0.0921541 0.0957236 0.0990842 0.101928 0.104149 0.105804 0.107002 
0.10785 0.108439 0.108838 0.109099 0.109256 0.109329 0.109329 0.109256 0.109099 
0.108838 0.108439 0.10785 0.107002 0.105804 0.104149 0.101928 0.0990842 0.0957236 
0.0921541 0.0896603 0.0902391 0.0907977 0.0915864 0.0936314 0.0963722 0.0991139 0.101558 
0.103571 0.105149 0.106344 0.107227 0.107865 0.108313 0.108615 0.1088 0.108888 
0.108888 0.1088 0.108615 0.108313 0.107865 0.107227 0.106344 0.105149 0.103571 
0.101558 0.0991139 0.0963722 0.0936314 0.0915864 0.0907977 0.0917887 0.0929365 0.0947304 
0.0969583 0.0992405 0.101347 0.103153 0.104627 0.105787 0.106675 0.107337 0.107816 
0.108145 0.108351 0.10845 0.10845 0.108351 0.108145 0.107816 0.107337 0.106675 
0.105787 0.104627 0.103153 0.101347 0.0992405 0.0969583 0.0947304 0.0929365 0.0917887 
0.0928056 0.0939905 0.0956011 0.0974843 0.0994209 0.101247 0.102859 0.104217 0.10532 
0.10619 0.106855 0.107348 0.107693 0.107911 0.108017 0.108017 0.107911 0.107693 
0.107348 0.106855 0.10619 0.10532 0.104217 0.102859 0.101247 0.0994209 0.0974843 
0.0956011 0.0939905 0.0928056 0.0937102 0.094861 0.0963219 0.0979568 0.0996289 0.101224 
0.102662 0.103903 0.104936 0.10577 0.106422 0.106914 0.107264 0.107489 0.107598 
0.107598 0.107489 0.107264 0.106914 0.106422 0.10577 0.104936 0.103903 0.102662 
0.101224 0.0996289 0.0979568 0.0963219 0.094861 0.0937102 0.0944753 0.0955924 0.0969316 
0.0983802 0.0998471 0.101253 0.102538 0.103666 0.104624 0.105412 0.106039 0.106519 
0.106865 0.107089 0.107199 0.107199 0.107089 0.106865 0.106519 0.106039 0.105412 
0.104624 0.103666 0.102538 0.101253 0.0998471 0.0983802 0.0969316 0.0955924 0.0944753 
0.0951106 0.0962065 0.0974503 0.0987566 0.100063 0.101315 0.102467 0.103491 0.104373 
0.105109 0.105704 0.106164 0.1065 0.106718 0.106826 0.106826 0.106718 0.1065 
0.106164 0.105704 0.105109 0.104373 0.103491 0.102467 0.101315 0.100063 0.0987566 
0.0974503 0.0962065 0.0951106 0.0956352 0.0967191 0.0978902 0.0990877 0.100268 0.101395 
0.102434 0.103365 0.104174 0.104857 0.105414 0.105849 0.106169 0.106379 0.106483 
0.106483 0.106379 0.106169 0.105849 0.105414 0.104857 0.104174 0.103365 0.102434 
0.101395 0.100268 0.0990877 0.0978902 0.0967191 0.0956352 0.0960677 0.0971449 0.0982614 
0.0993754 0.100457 0.101482 0.102427 0.103276 0.104017 0.104647 0.105165 0.105573 
0.105874 0.106073 0.106171 0.106171 0.106073 0.105874 0.105573 0.105165 0.104647 
0.104017 0.103276 0.102427 0.101482 0.100457 0.0993754 0.0982614 0.0971449 0.0960677 
0.0964242 0.0974971 0.0985727 0.0996228 0.100628 0.10157 0.102436 0.103213 0.103894 
0.104475 0.104954 0.105333 0.105615 0.105801 0.105893 0.105893 0.105801 0.105615 
0.105333 0.104954 0.104475 0.103894 0.103213 0.102436 0.10157 0.100628 0.0996228 
0.0985727 0.0974971 0.0964242 0.0967174 0.0977876 0.0988324 0.0998332 0.100777 0.101654 
0.102455 0.103171 0.103798 0.104334 0.104776 0.105128 0.105389 0.105562 0.105648 
0.105648 0.105562 0.105389 0.105128 0.104776 0.104334 0.103798 0.103171 0.102455 
0.101654 0.100777 0.0998332 0.0988324 0.0977876 0.0967174 0.0969582 0.0980264 0.0990478 
0.100011 0.100907 0.101731 0.102478 0.103143 0.103724 0.104219 0.104628 0.104953 
0.105194 0.105355 0.105434 0.105434 0.105355 0.105194 0.104953 0.104628 0.104219 
0.103724 0.103143 0.102478 0.101731 0.100907 0.100011 0.0990478 0.0980264 0.0969582 
0.0971556 0.0982223 0.0992259 0.100159 0.101018 0.1018 0.102503 0.103125 0.103666 
0.104125 0.104504 0.104805 0.105029 0.105177 0.105251 0.105251 0.105177 0.105029 
0.104805 0.104504 0.104125 0.103666 0.103125 0.102503 0.1018 0.101018 0.100159 
0.0992259 0.0982223 0.0971556 0.0973171 0.0983826 0.0993724 0.100283 0.101112 0.10186 
0.102527 0.103113 0.10362 0.104049 0.104402 0.104681 0.104889 0.105026 0.105094 
0.105094 0.105026 0.104889 0.104681 0.104402 0.104049 0.10362 0.103113 0.102527 
0.10186 0.101112 0.100283 0.0993724 0.0983826 0.0973171 0.0974494 0.0985139 0.0994929 
0.100385 0.101191 0.101911 0.102549 0.103106 0.103584 0.103987 0.104318 0.104578 
0.104771 0.104898 0.104962 0.104962 0.104898 0.104771 0.104578 0.104318 0.103987 
0.103584 0.103106 0.102549 0.101911 0.101191 0.100385 0.0994929 0.0985139 0.0974494 
0.0975579 0.0986215 0.0995919 0.10047 0.101256 0.101955 0.102569 0.103101 0.103556 
0.103937 0.104248 0.104492 0.104672 0.104791 0.10485 0.10485 0.104791 0.104672 
0.104492 0.104248 0.103937 0.103556 0.103101 0.102569 0.101955 0.101256 0.10047 
0.0995919 0.0986215 0.0975579 0.0976474 0.0987101 0.0996737 0.10054 0.101311 0.101992 
0.102586 0.103098 0.103533 0.103895 0.10419 0.10442 0.104589 0.104701 0.104756 
0.104756 0.104701 0.104589 0.10442 0.10419 0.103895 0.103533 0.103098 0.102586 
0.101992 0.101311 0.10054 0.0996737 0.0987101 0.0976474 0.0977221 0.0987839 0.0997418 
0.100598 0.101357 0.102023 0.1026 0.103096 0.103514 0.103861 0.104141 0.104359 
0.104519 0.104624 0.104676 0.104676 0.104624 0.104519 0.104359 0.104141 0.103861 
0.103514 0.103096 0.1026 0.102023 0.101357 0.100598 0.0997418 0.0987839 0.0977221 
0.0977853 0.0988462 0.0997993 0.100648 0.101396 0.102049 0.102613 0.103094 0.103498 
0.103831 0.104099 0.104307 0.104459 0.104559 0.104608 0.104608 0.104559 0.104459 
0.104307 0.104099 0.103831 0.103498 0.103094 0.102613 0.102049 0.101396 0.100648 
0.0997993 0.0988462 0.0977853 0.0978402 0.0989001 0.099849 0.10069 0.10143 0.102072 
0.102624 0.103092 0.103484 0.103806 0.104063 0.104262 0.104407 0.104502 0.104548 
0.104548 0.104502 0.104407 0.104262 0.104063 0.103806 0.103484 0.103092 0.102624 
0.102072 0.10143 0.10069 0.099849 0.0989001 0.0978402 0.0978892 0.098948 0.099893 
0.100728 0.101459 0.102092 0.102633 0.103091 0.103472 0.103783 0.104031 0.104222 
0.10436 0.104451 0.104495 0.104495 0.104451 0.10436 0.104222 0.104031 0.103783 
0.103472 0.103091 0.102633 0.102092 0.101459 0.100728 0.099893 0.098948 0.0978892 
0.0979344 0.0989921 0.0999335 0.100763 0.101486 0.10211 0.102642 0.103089 0.10346 
0.103761 0.104001 0.104184 0.104317 0.104403 0.104446 0.104446 0.104403 0.104317 
0.104184 0.104001 0.103761 0.10346 0.103089 0.102642 0.10211 0.101486 0.100763 
0.0999335 0.0989921 0.0979344 0.0979778 0.0990343 0.0999721 0.100796 0.101512 0.102127 
0.10265 0.103087 0.103448 0.103741 0.103972 0.104149 0.104276 0.104358 0.104399 
0.104399 0.104358 0.104276 0.104149 0.103972 0.103741 0.103448 0.103087 0.10265 
0.102127 0.101512 0.100796 0.0999721 0.0990343 0.0979778 0.0980209 0.099076 0.10001 
0.100828 0.101537 0.102144 0.102657 0.103085 0.103437 0.10372 0.103943 0.104113 
0.104235 0.104314 0.104353 0.104353 0.104314 0.104235 0.104113 0.103943 0.10372 
0.103437 0.103085 0.102657 0.102144 0.101537 0.100828 0.10001 0.099076 0.0980209 
0.0980651 0.0991186 0.100049 0.100861 0.101563 0.102161 0.102665 0.103083 0.103425 
0.103699 0.103914 0.104077 0.104194 0.104269 0.104306 0.104306 0.104269 0.104194 
0.104077 0.103914 0.103699 0.103425 0.103083 0.102665 0.102161 0.101563 0.100861 
0.100049 0.0991186 0.0980651 0.0981116 0.0991633 0.10009 0.100896 0.101589 0.102178 
0.102672 0.10308 0.103412 0.103677 0.103884 0.104039 0.104151 0.104222 0.104257 
0.104257 0.104222 0.104151 0.104039 0.103884 0.103677 0.103412 0.10308 0.102672 
0.102178 0.101589 0.100896 0.10009 0.0991633 0.0981116 0.0981615 0.0992112 0.100133 
0.100933 0.101618 0.102197 0.10268 0.103077 0.103398 0.103653 0.103851 0.103999 
0.104105 0.104172 0.104205 0.104205 0.104172 0.104105 0.103999 0.103851 0.103653 
0.103398 0.103077 0.10268 0.102197 0.101618 0.100933 0.100133 0.0992112 0.0981615 
0.0982158 0.0992634 0.10018 0.100972 0.101648 0.102217 0.102688 0.103074 0.103383 
0.103628 0.103816 0.103956 0.104055 0.104118 0.104149 0.104149 0.104118 0.104055 
0.103956 0.103816 0.103628 0.103383 0.103074 0.102688 0.102217 0.101648 0.100972 
0.10018 0.0992634 0.0982158 0.0982758 0.0993208 0.100232 0.101016 0.101681 0.102238 
0.102697 0.103069 0.103366 0.103599 0.103777 0.103909 0.104002 0.10406 0.104089 
0.104089 0.10406 0.104002 0.103909 0.103777 0.103599 0.103366 0.103069 0.102697 
0.102238 0.101681 0.101016 0.100232 0.0993208 0.0982758 0.0983425 0.0993847 0.10029 
0.101064 0.101718 0.102261 0.102706 0.103064 0.103348 0.103568 0.103735 0.103857 
0.103943 0.103997 0.104023 0.104023 0.103997 0.103943 0.103857 0.103735 0.103568 
0.103348 0.103064 0.102706 0.102261 0.101718 0.101064 0.10029 0.0993847 0.0983425 
0.0984173 0.0994563 0.100354 0.101118 0.101759 0.102287 0.102716 0.103058 0.103326 
0.103532 0.103687 0.1038 0.103878 0.103927 0.10395 0.10395 0.103927 0.103878 
0.1038 0.103687 0.103532 0.103326 0.103058 0.102716 0.102287 0.101759 0.101118 
0.100354 0.0994563 0.0984173 0.0985018 0.0995369 0.100426 0.101178 0.101804 0.102315 
0.102726 0.10305 0.103302 0.103493 0.103634 0.103736 0.103806 0.103849 0.10387 
0.10387 0.103849 0.103806 0.103736 0.103634 0.103493 0.103302 0.10305 0.102726 
0.102315 0.101804 0.101178 0.100426 0.0995369 0.0985018 0.0985978 0.0996284 0.100508 
0.101246 0.101854 0.102346 0.102736 0.103041 0.103274 0.103448 0.103575 0.103665 
0.103726 0.103764 0.103781 0.103781 0.103764 0.103726 0.103665 0.103575 0.103448 
0.103274 0.103041 0.102736 0.102346 0.101854 0.101246 0.100508 0.0996284 0.0985978 
0.0987076 0.0997328 0.100601 0.101322 0.10191 0.102379 0.102747 0.103029 0.103241 
0.103396 0.103508 0.103586 0.103638 0.103669 0.103684 0.103684 0.103669 0.103638 
0.103586 0.103508 0.103396 0.103241 0.103029 0.102747 0.102379 0.10191 0.101322 
0.100601 0.0997328 0.0987076 0.0988341 0.0998527 0.100707 0.101408 0.101972 0.102415 
0.102756 0.103013 0.103202 0.103338 0.103433 0.103497 0.103539 0.103564 0.103575 
0.103575 0.103564 0.103539 0.103497 0.103433 0.103338 0.103202 0.103013 0.102756 
0.102415 0.101972 0.101408 0.100707 0.0998527 0.0988341 0.0989811 0.0999916 0.100829 
0.101506 0.102041 0.102454 0.102764 0.102992 0.103156 0.10327 0.103347 0.103397 
0.103429 0.103447 0.103456 0.103456 0.103447 0.103429 0.103397 0.103347 0.10327 
0.103156 0.102992 0.102764 0.102454 0.102041 0.101506 0.100829 0.0999916 0.0989811 
0.0991536 0.100154 0.10097 0.101617 0.102118 0.102494 0.102769 0.102965 0.1031 
0.10319 0.103249 0.103285 0.103307 0.103318 0.103323 0.103323 0.103318 0.103307 
0.103285 0.103249 0.10319 0.1031 0.102965 0.102769 0.102494 0.102118 0.101617 
0.10097 0.100154 0.0991536 0.0993585 0.100345 0.101133 0.101744 0.102201 0.102534 
0.102768 0.102928 0.103032 0.103098 0.103137 0.103159 0.103171 0.103176 0.103178 
0.103178 0.103176 0.103171 0.103159 0.103137 0.103098 0.103032 0.102928 0.102768 
0.102534 0.102201 0.101744 0.101133 0.100345 0.0993585 0.0996057 0.100574 0.101325 
0.101886 0.10229 0.102571 0.102757 0.102876 0.102948 0.102989 0.103009 0.103018 
0.103021 0.10302 0.10302 0.10302 0.10302 0.103021 0.103018 0.103009 0.102989 
0.102948 0.102876 0.102757 0.102571 0.10229 0.101886 0.101325 0.100574 0.0996057 
0.0999086 0.100849 0.101548 0.102044 0.10238 0.102597 0.10273 0.102806 0.102845 
0.102861 0.102865 0.102862 0.102857 0.102853 0.10285 0.10285 0.102853 0.102857 
0.102862 0.102865 0.102861 0.102845 0.102806 0.10273 0.102597 0.10238 0.102044 
0.101548 0.100849 0.0999086 0.100293 0.101189 0.101809 0.102212 0.10246 0.102603 
0.102677 0.102709 0.102717 0.102713 0.102703 0.102692 0.102682 0.102675 0.102672 
0.102672 0.102675 0.102682 0.102692 0.102703 0.102713 0.102717 0.102709 0.102677 
0.102603 0.10246 0.102212 0.101809 0.101189 0.100293 0.100814 0.101621 0.102103 
0.102369 0.102504 0.102561 0.102577 0.102571 0.102557 0.102539 0.102523 0.102509 
0.102498 0.102491 0.102487 0.102487 0.102491 0.102498 0.102509 0.102523 0.102539 
0.102557 0.102571 0.102577 0.102561 0.102504 0.102369 0.102103 0.101621 0.100814 
0.101459 0.102048 0.102318 0.102428 0.102461 0.102461 0.102446 0.102428 0.10241 
0.102395 0.102383 0.102374 0.102368 0.102364 0.102362 0.102362 0.102364 0.102368 
0.102374 0.102383 0.102395 0.10241 0.102428 0.102446 0.102461 0.102461 0.102428 
0.102318 0.102048 0.101459 948.022 1682.93 1888 2028.72 2108.56 2145.71 
2160.88 2164.36 2162.48 2158.81 2155.06 2151.95 2149.68 2148.24 2147.55 
2147.55 2148.24 2149.68 2151.95 2155.06 2158.81 2162.48 2164.36 2160.88 
2145.71 2108.56 2028.72 1888 1682.93 948.022 793.736 1541.48 1800.47 
1943.34 2021.54 2056.21 2068.61 2069.95 2066.58 2061.91 2057.54 2054.06 
2051.58 2050.02 2049.28 2049.28 2050.02 2051.58 2054.06 2057.54 2061.91 
2066.58 2069.95 2068.61 2056.21 2021.54 1943.34 1800.47 1541.48 793.736 
770.523 1415.58 1700.3 1851.46 1929.74 1963.1 1973.82 1973.77 1969.4 
1964.06 1959.26 1955.51 1952.87 1951.24 1950.46 1950.46 1951.24 1952.87 
1955.51 1959.26 1964.06 1969.4 1973.77 1973.82 1963.1 1929.74 1851.46 
1700.3 1415.58 770.523 781.933 1325.26 1611.02 1764.26 1842.23 1875.49 
1886.09 1886.03 1881.71 1876.44 1871.69 1867.99 1865.39 1863.77 1863 
1863 1863.77 1865.39 1867.99 1871.69 1876.44 1881.71 1886.03 1886.09 
1875.49 1842.23 1764.26 1611.02 1325.26 781.933 784.821 1274.95 1540.35 
1685.43 1760.82 1794.19 1805.65 1806.55 1803.08 1798.46 1794.18 1790.78 
1788.36 1786.85 1786.13 1786.13 1786.85 1788.36 1790.78 1794.18 1798.46 
1803.08 1806.55 1805.65 1794.19 1760.82 1685.43 1540.35 1274.95 784.821 
761.931 1243.74 1480.4 1612.47 1684.34 1718.28 1731.42 1734.06 1732.04 
1728.5 1724.97 1722.05 1719.94 1718.59 1717.94 1717.94 1718.59 1719.94 
1722.05 1724.97 1728.5 1732.04 1734.06 1731.42 1718.28 1684.34 1612.47 
1480.4 1243.74 761.931 712.914 1207.3 1422.76 1546.02 1615.73 1650.98 
1666.33 1671.06 1670.71 1668.39 1665.67 1663.29 1661.49 1660.32 1659.75 
1659.75 1660.32 1661.49 1663.29 1665.67 1668.39 1670.71 1671.06 1666.33 
1650.98 1615.73 1546.02 1422.76 1207.3 712.914 718.92 1193.15 1382.77 
1504.98 1573.22 1608.63 1624.98 1630.69 1631.14 1629.41 1627.11 1624.98 
1623.34 1622.26 1621.73 1621.73 1622.26 1623.34 1624.98 1627.11 1629.41 
1631.14 1630.69 1624.98 1608.63 1573.22 1504.98 1382.77 1193.15 718.92 
0.142949 0.144706 0.146319 0.147794 0.149134 0.150342 0.151422 0.152375 0.153205 
0.153913 0.154501 0.154969 0.15532 0.155553 0.15567 0.15567 0.155553 0.15532 
0.154969 0.154501 0.153913 0.153205 0.152375 0.151422 0.150342 0.149134 0.147794 
0.146319 0.144706 0.142949 0.142929 0.144685 0.146299 0.147774 0.149114 0.150323 
0.151403 0.152357 0.153188 0.153896 0.154485 0.154954 0.155305 0.155538 0.155655 
0.155655 0.155538 0.155305 0.154954 0.154485 0.153896 0.153188 0.152357 0.151403 
0.150323 0.149114 0.147774 0.146299 0.144685 0.142929 0.142919 0.144676 0.14629 
0.147765 0.149106 0.150315 0.151396 0.152351 0.153182 0.153891 0.15448 0.15495 
0.155301 0.155535 0.155652 0.155652 0.155535 0.155301 0.15495 0.15448 0.153891 
0.153182 0.152351 0.151396 0.150315 0.149106 0.147765 0.14629 0.144676 0.142919 
0.142907 0.144663 0.146277 0.147753 0.149094 0.150304 0.151386 0.152341 0.153173 
0.153883 0.154473 0.154943 0.155295 0.155529 0.155646 0.155646 0.155529 0.155295 
0.154943 0.154473 0.153883 0.153173 0.152341 0.151386 0.150304 0.149094 0.147753 
0.146277 0.144663 0.142907 0.142895 0.144651 0.146265 0.147741 0.149083 0.150294 
0.151376 0.152333 0.153166 0.153876 0.154467 0.154937 0.15529 0.155524 0.155642 
0.155642 0.155524 0.15529 0.154937 0.154467 0.153876 0.153166 0.152333 0.151376 
0.150294 0.149083 0.147741 0.146265 0.144651 0.142895 0.142882 0.144639 0.146253 
0.14773 0.149072 0.150284 0.151367 0.152324 0.153158 0.15387 0.154461 0.154932 
0.155285 0.15552 0.155637 0.155637 0.15552 0.155285 0.154932 0.154461 0.15387 
0.153158 0.152324 0.151367 0.150284 0.149072 0.14773 0.146253 0.144639 0.142882 
0.14287 0.144626 0.146241 0.147718 0.149061 0.150273 0.151358 0.152316 0.153151 
0.153863 0.154455 0.154927 0.155281 0.155516 0.155634 0.155634 0.155516 0.155281 
0.154927 0.154455 0.153863 0.153151 0.152316 0.151358 0.150273 0.149061 0.147718 
0.146241 0.144626 0.14287 0.142857 0.144614 0.146229 0.147706 0.14905 0.150263 
0.151348 0.152308 0.153143 0.153857 0.15445 0.154923 0.155277 0.155513 0.155631 
0.155631 0.155513 0.155277 0.154923 0.15445 0.153857 0.153143 0.152308 0.151348 
0.150263 0.14905 0.147706 0.146229 0.144614 0.142857 0.142844 0.144601 0.146216 
0.147695 0.149039 0.150253 0.151339 0.1523 0.153137 0.153851 0.154445 0.154919 
0.155274 0.15551 0.155629 0.155629 0.15551 0.155274 0.154919 0.154445 0.153851 
0.153137 0.1523 0.151339 0.150253 0.149039 0.147695 0.146216 0.144601 0.142844 
0.142831 0.144588 0.146204 0.147683 0.149028 0.150243 0.15133 0.152292 0.15313 
0.153846 0.154441 0.154916 0.155272 0.155508 0.155627 0.155627 0.155508 0.155272 
0.154916 0.154441 0.153846 0.15313 0.152292 0.15133 0.150243 0.149028 0.147683 
0.146204 0.144588 0.142831 0.142818 0.144575 0.146191 0.147671 0.149017 0.150233 
0.151321 0.152284 0.153124 0.153841 0.154437 0.154913 0.155269 0.155507 0.155625 
0.155625 0.155507 0.155269 0.154913 0.154437 0.153841 0.153124 0.152284 0.151321 
0.150233 0.149017 0.147671 0.146191 0.144575 0.142818 0.142805 0.144562 0.146178 
0.147658 0.149006 0.150223 0.151313 0.152277 0.153118 0.153836 0.154434 0.154911 
0.155268 0.155506 0.155625 0.155625 0.155506 0.155268 0.154911 0.154434 0.153836 
0.153118 0.152277 0.151313 0.150223 0.149006 0.147658 0.146178 0.144562 0.142805 
0.142791 0.144548 0.146165 0.147646 0.148994 0.150213 0.151304 0.15227 0.153112 
0.153832 0.154431 0.154909 0.155267 0.155506 0.155625 0.155625 0.155506 0.155267 
0.154909 0.154431 0.153832 0.153112 0.15227 0.151304 0.150213 0.148994 0.147646 
0.146165 0.144548 0.142791 0.142777 0.144535 0.146152 0.147634 0.148983 0.150203 
0.151295 0.152262 0.153106 0.153828 0.154428 0.154907 0.155266 0.155506 0.155625 
0.155625 0.155506 0.155266 0.154907 0.154428 0.153828 0.153106 0.152262 0.151295 
0.150203 0.148983 0.147634 0.146152 0.144535 0.142777 0.142763 0.144521 0.146139 
0.147621 0.148971 0.150192 0.151286 0.152255 0.153101 0.153824 0.154426 0.154906 
0.155267 0.155507 0.155627 0.155627 0.155507 0.155267 0.154906 0.154426 0.153824 
0.153101 0.152255 0.151286 0.150192 0.148971 0.147621 0.146139 0.144521 0.142763 
0.142749 0.144507 0.146125 0.147608 0.14896 0.150182 0.151278 0.152249 0.153096 
0.153821 0.154424 0.154906 0.155267 0.155508 0.155628 0.155628 0.155508 0.155267 
0.154906 0.154424 0.153821 0.153096 0.152249 0.151278 0.150182 0.14896 0.147608 
0.146125 0.144507 0.142749 0.142734 0.144492 0.146111 0.147595 0.148948 0.150172 
0.151269 0.152242 0.153091 0.153818 0.154422 0.154906 0.155269 0.15551 0.155631 