# vtk DataFile Version 5.1
vtk output
ASCII
DATASET UNSTRUCTURED_GRID
POINTS 9610 double
0.1016 1.5 0 0.1016 1.45 0 0.1016 1.4 0 
0.1016 1.35 0 0.1016 1.3 0 0.1016 1.25 0 
0.1016 1.2 0 0.1016 1.15 0 0.1016 1.1 0 
0.1016 1.05 0 0.1016 1 0 0.1016 0.95 0 
0.1016 0.9 0 0.1016 0.85 0 0.1016 0.8 0 
0.1016 0.75 0 0.1016 0.7 0 0.1016 0.65 0 
0.1016 0.6 0 0.1016 0.55 0 0.1016 0.5 0 
0.1016 0.45 0 0.1016 0.4 0 0.1016 0.35 0 
0.1016 0.3 0 0.1016 0.25 0 0.1016 0.2 0 
0.1016 0.15 0 0.1016 0.1 0 0.1016 0.05 0 
0.1016 0 0 5.08 1.5 0 5.08 1.45 0 
5.08 1.4 0 5.08 1.35 0 5.08 1.3 0 
5.08 1.25 0 5.08 1.2 0 5.08 1.15 0 
5.08 1.1 0 5.08 1.05 0 5.08 1 0 
5.08 0.95 0 5.08 0.9 0 5.08 0.85 0 
5.08 0.8 0 5.08 0.75 0 5.08 0.7 0 
5.08 0.65 0 5.08 0.6 0 5.08 0.55 0 
5.08 0.5 0 5.08 0.45 0 5.08 0.4 0 
5.08 0.35 0 5.08 0.3 0 5.08 0.25 0 
5.08 0.2 0 5.08 0.15 0 5.08 0.1 0 
5.08 0.05 0 5.08 0 0 0.151384 1.5 0 
0.151384 1.45 0 0.151384 1.4 0 0.151384 1.35 0 
0.151384 1.3 0 0.151384 1.25 0 0.151384 1.2 0 
0.151384 1.15 0 0.151384 1.1 0 0.151384 1.05 0 
0.151384 1 0 0.151384 0.95 0 0.151384 0.9 0 
0.151384 0.85 0 0.151384 0.8 0 0.151384 0.75 0 
0.151384 0.7 0 0.151384 0.65 0 0.151384 0.6 0 
0.151384 0.55 0 0.151384 0.5 0 0.151384 0.45 0 
0.151384 0.4 0 0.151384 0.35 0 0.151384 0.3 0 
0.151384 0.25 0 0.151384 0.2 0 0.151384 0.15 0 
0.151384 0.1 0 0.151384 0.05 0 0.151384 0 0 
0.201168 1.5 0 0.201168 1.45 0 0.201168 1.4 0 
0.201168 1.35 0 0.201168 1.3 0 0.201168 1.25 0 
0.201168 1.2 0 0.201168 1.15 0 0.201168 1.1 0 
0.201168 1.05 0 0.201168 1 0 0.201168 0.95 0 
0.201168 0.9 0 0.201168 0.85 0 0.201168 0.8 0 
0.201168 0.75 0 0.201168 0.7 0 0.201168 0.65 0 
0.201168 0.6 0 0.201168 0.55 0 0.201168 0.5 0 
0.201168 0.45 0 0.201168 0.4 0 0.201168 0.35 0 
0.201168 0.3 0 0.201168 0.25 0 0.201168 0.2 0 
0.201168 0.15 0 0.201168 0.1 0 0.201168 0.05 0 
0.201168 0 0 0.250952 1.5 0 0.250952 1.45 0 
0.250952 1.4 0 0.250952 1.35 0 0.250952 1.3 0 
0.250952 1.25 0 0.250952 1.2 0 0.250952 1.15 0 
0.250952 1.1 0 0.250952 1.05 0 0.250952 1 0 
0.250952 0.95 0 0.250952 0.9 0 0.250952 0.85 0 
0.250952 0.8 0 0.250952 0.75 0 0.250952 0.7 0 
0.250952 0.65 0 0.250952 0.6 0 0.250952 0.55 0 
0.250952 0.5 0 0.250952 0.45 0 0.250952 0.4 0 
0.250952 0.35 0 0.250952 0.3 0 0.250952 0.25 0 
0.250952 0.2 0 0.250952 0.15 0 0.250952 0.1 0 
0.250952 0.05 0 0.250952 0 0 0.300736 1.5 0 
0.300736 1.45 0 0.300736 1.4 0 0.300736 1.35 0 
0.300736 1.3 0 0.300736 1.25 0 0.300736 1.2 0 
0.300736 1.15 0 0.300736 1.1 0 0.300736 1.05 0 
0.300736 1 0 0.300736 0.95 0 0.300736 0.9 0 
0.300736 0.85 0 0.300736 0.8 0 0.300736 0.75 0 
0.300736 0.7 0 0.300736 0.65 0 0.300736 0.6 0 
0.300736 0.55 0 0.300736 0.5 0 0.300736 0.45 0 
0.300736 0.4 0 0.300736 0.35 0 0.300736 0.3 0 
0.300736 0.25 0 0.300736 0.2 0 0.300736 0.15 0 
0.300736 0.1 0 0.300736 0.05 0 0.300736 0 0 
0.35052 1.5 0 0.35052 1.45 0 0.35052 1.4 0 
0.35052 1.35 0 0.35052 1.3 0 0.35052 1.25 0 
0.35052 1.2 0 0.35052 1.15 0 0.35052 1.1 0 
0.35052 1.05 0 0.35052 1 0 0.35052 0.95 0 
0.35052 0.9 0 0.35052 0.85 0 0.35052 0.8 0 
0.35052 0.75 0 0.35052 0.7 0 0.35052 0.65 0 
0.35052 0.6 0 0.35052 0.55 0 0.35052 0.5 0 
0.35052 0.45 0 0.35052 0.4 0 0.35052 0.35 0 
0.35052 0.3 0 0.35052 0.25 0 0.35052 0.2 0 
0.35052 0.15 0 0.35052 0.1 0 0.35052 0.05 0 
0.35052 0 0 0.400304 1.5 0 0.400304 1.45 0 
0.400304 1.4 0 0.400304 1.35 0 0.400304 1.3 0 
0.400304 1.25 0 0.400304 1.2 0 0.400304 1.15 0 
0.400304 1.1 0 0.400304 1.05 0 0.400304 1 0 
0.400304 0.95 0 0.400304 0.9 0 0.400304 0.85 0 
0.400304 0.8 0 0.400304 0.75 0 0.400304 0.7 0 
0.400304 0.65 0 0.400304 0.6 0 0.400304 0.55 0 
0.400304 0.5 0 0.400304 0.45 0 0.400304 0.4 0 
0.400304 0.35 0 0.400304 0.3 0 0.400304 0.25 0 
0.400304 0.2 0 0.400304 0.15 0 0.400304 0.1 0 
0.400304 0.05 0 0.400304 0 0 0.450088 1.5 0 
0.450088 1.45 0 0.450088 1.4 0 0.450088 1.35 0 
0.450088 1.3 0 0.450088 1.25 0 0.450088 1.2 0 
0.450088 1.15 0 0.450088 1.1 0 0.450088 1.05 0 
0.450088 1 0 0.450088 0.95 0 0.450088 0.9 0 
0.450088 0.85 0 0.450088 0.8 0 0.450088 0.75 0 
0.450088 0.7 0 0.450088 0.65 0 0.450088 0.6 0 
0.450088 0.55 0 0.450088 0.5 0 0.450088 0.45 0 
0.450088 0.4 0 0.450088 0.35 0 0.450088 0.3 0 
0.450088 0.25 0 0.450088 0.2 0 0.450088 0.15 0 
0.450088 0.1 0 0.450088 0.05 0 0.450088 0 0 
0.499872 1.5 0 0.499872 1.45 0 0.499872 1.4 0 
0.499872 1.35 0 0.499872 1.3 0 0.499872 1.25 0 
0.499872 1.2 0 0.499872 1.15 0 0.499872 1.1 0 
0.499872 1.05 0 0.499872 1 0 0.499872 0.95 0 
0.499872 0.9 0 0.499872 0.85 0 0.499872 0.8 0 
0.499872 0.75 0 0.499872 0.7 0 0.499872 0.65 0 
0.499872 0.6 0 0.499872 0.55 0 0.499872 0.5 0 
0.499872 0.45 0 0.499872 0.4 0 0.499872 0.35 0 
0.499872 0.3 0 0.499872 0.25 0 0.499872 0.2 0 
0.499872 0.15 0 0.499872 0.1 0 0.499872 0.05 0 
0.499872 0 0 0.549656 1.5 0 0.549656 1.45 0 
0.549656 1.4 0 0.549656 1.35 0 0.549656 1.3 0 
0.549656 1.25 0 0.549656 1.2 0 0.549656 1.15 0 
0.549656 1.1 0 0.549656 1.05 0 0.549656 1 0 
0.549656 0.95 0 0.549656 0.9 0 0.549656 0.85 0 
0.549656 0.8 0 0.549656 0.75 0 0.549656 0.7 0 
0.549656 0.65 0 0.549656 0.6 0 0.549656 0.55 0 
0.549656 0.5 0 0.549656 0.45 0 0.549656 0.4 0 
0.549656 0.35 0 0.549656 0.3 0 0.549656 0.25 0 
0.549656 0.2 0 0.549656 0.15 0 0.549656 0.1 0 
0.549656 0.05 0 0.549656 0 0 0.59944 1.5 0 
0.59944 1.45 0 0.59944 1.4 0 0.59944 1.35 0 
0.59944 1.3 0 0.59944 1.25 0 0.59944 1.2 0 
0.59944 1.15 0 0.59944 1.1 0 0.59944 1.05 0 
0.59944 1 0 0.59944 0.95 0 0.59944 0.9 0 
0.59944 0.85 0 0.59944 0.8 0 0.59944 0.75 0 
0.59944 0.7 0 0.59944 0.65 0 0.59944 0.6 0 
0.59944 0.55 0 0.59944 0.5 0 0.59944 0.45 0 
0.59944 0.4 0 0.59944 0.35 0 0.59944 0.3 0 
0.59944 0.25 0 0.59944 0.2 0 0.59944 0.15 0 
0.59944 0.1 0 0.59944 0.05 0 0.59944 0 0 
0.649224 1.5 0 0.649224 1.45 0 0.649224 1.4 0 
0.649224 1.35 0 0.649224 1.3 0 0.649224 1.25 0 
0.649224 1.2 0 0.649224 1.15 0 0.649224 1.1 0 
0.649224 1.05 0 0.649224 1 0 0.649224 0.95 0 
0.649224 0.9 0 0.649224 0.85 0 0.649224 0.8 0 
0.649224 0.75 0 0.649224 0.7 0 0.649224 0.65 0 
0.649224 0.6 0 0.649224 0.55 0 0.649224 0.5 0 
0.649224 0.45 0 0.649224 0.4 0 0.649224 0.35 0 
0.649224 0.3 0 0.649224 0.25 0 0.649224 0.2 0 
0.649224 0.15 0 0.649224 0.1 0 0.649224 0.05 0 
0.649224 0 0 0.699008 1.5 0 0.699008 1.45 0 
0.699008 1.4 0 0.699008 1.35 0 0.699008 1.3 0 
0.699008 1.25 0 0.699008 1.2 0 0.699008 1.15 0 
0.699008 1.1 0 0.699008 1.05 0 0.699008 1 0 
0.699008 0.95 0 0.699008 0.9 0 0.699008 0.85 0 
0.699008 0.8 0 0.699008 0.75 0 0.699008 0.7 0 
0.699008 0.65 0 0.699008 0.6 0 0.699008 0.55 0 
0.699008 0.5 0 0.699008 0.45 0 0.699008 0.4 0 
0.699008 0.35 0 0.699008 0.3 0 0.699008 0.25 0 
0.699008 0.2 0 0.699008 0.15 0 0.699008 0.1 0 
0.699008 0.05 0 0.699008 0 0 0.748792 1.5 0 
0.748792 1.45 0 0.748792 1.4 0 0.748792 1.35 0 
0.748792 1.3 0 0.748792 1.25 0 0.748792 1.2 0 
0.748792 1.15 0 0.748792 1.1 0 0.748792 1.05 0 
0.748792 1 0 0.748792 0.95 0 0.748792 0.9 0 
0.748792 0.85 0 0.748792 0.8 0 0.748792 0.75 0 
0.748792 0.7 0 0.748792 0.65 0 0.748792 0.6 0 
0.748792 0.55 0 0.748792 0.5 0 0.748792 0.45 0 
0.748792 0.4 0 0.748792 0.35 0 0.748792 0.3 0 
0.748792 0.25 0 0.748792 0.2 0 0.748792 0.15 0 
0.748792 0.1 0 0.748792 0.05 0 0.748792 0 0 
0.798576 1.5 0 0.798576 1.45 0 0.798576 1.4 0 
0.798576 1.35 0 0.798576 1.3 0 0.798576 1.25 0 
0.798576 1.2 0 0.798576 1.15 0 0.798576 1.1 0 
0.798576 1.05 0 0.798576 1 0 0.798576 0.95 0 
0.798576 0.9 0 0.798576 0.85 0 0.798576 0.8 0 
0.798576 0.75 0 0.798576 0.7 0 0.798576 0.65 0 
0.798576 0.6 0 0.798576 0.55 0 0.798576 0.5 0 
0.798576 0.45 0 0.798576 0.4 0 0.798576 0.35 0 
0.798576 0.3 0 0.798576 0.25 0 0.798576 0.2 0 
0.798576 0.15 0 0.798576 0.1 0 0.798576 0.05 0 
0.798576 0 0 0.84836 1.5 0 0.84836 1.45 0 
0.84836 1.4 0 0.84836 1.35 0 0.84836 1.3 0 
0.84836 1.25 0 0.84836 1.2 0 0.84836 1.15 0 
0.84836 1.1 0 0.84836 1.05 0 0.84836 1 0 
0.84836 0.95 0 0.84836 0.9 0 0.84836 0.85 0 
0.84836 0.8 0 0.84836 0.75 0 0.84836 0.7 0 
0.84836 0.65 0 0.84836 0.6 0 0.84836 0.55 0 
0.84836 0.5 0 0.84836 0.45 0 0.84836 0.4 0 
0.84836 0.35 0 0.84836 0.3 0 0.84836 0.25 0 
0.84836 0.2 0 0.84836 0.15 0 0.84836 0.1 0 
0.84836 0.05 0 0.84836 0 0 0.898144 1.5 0 
0.898144 1.45 0 0.898144 1.4 0 0.898144 1.35 0 
0.898144 1.3 0 0.898144 1.25 0 0.898144 1.2 0 
0.898144 1.15 0 0.898144 1.1 0 0.898144 1.05 0 
0.898144 1 0 0.898144 0.95 0 0.898144 0.9 0 
0.898144 0.85 0 0.898144 0.8 0 0.898144 0.75 0 
0.898144 0.7 0 0.898144 0.65 0 0.898144 0.6 0 
0.898144 0.55 0 0.898144 0.5 0 0.898144 0.45 0 
0.898144 0.4 0 0.898144 0.35 0 0.898144 0.3 0 
0.898144 0.25 0 0.898144 0.2 0 0.898144 0.15 0 
0.898144 0.1 0 0.898144 0.05 0 0.898144 0 0 
0.947928 1.5 0 0.947928 1.45 0 0.947928 1.4 0 
0.947928 1.35 0 0.947928 1.3 0 0.947928 1.25 0 
0.947928 1.2 0 0.947928 1.15 0 0.947928 1.1 0 
0.947928 1.05 0 0.947928 1 0 0.947928 0.95 0 
0.947928 0.9 0 0.947928 0.85 0 0.947928 0.8 0 
0.947928 0.75 0 0.947928 0.7 0 0.947928 0.65 0 
0.947928 0.6 0 0.947928 0.55 0 0.947928 0.5 0 
0.947928 0.45 0 0.947928 0.4 0 0.947928 0.35 0 
0.947928 0.3 0 0.947928 0.25 0 0.947928 0.2 0 
0.947928 0.15 0 0.947928 0.1 0 0.947928 0.05 0 
0.947928 0 0 0.997712 1.5 0 0.997712 1.45 0 
0.997712 1.4 0 0.997712 1.35 0 0.997712 1.3 0 
0.997712 1.25 0 0.997712 1.2 0 0.997712 1.15 0 
0.997712 1.1 0 0.997712 1.05 0 0.997712 1 0 
0.997712 0.95 0 0.997712 0.9 0 0.997712 0.85 0 
0.997712 0.8 0 0.997712 0.75 0 0.997712 0.7 0 
0.997712 0.65 0 0.997712 0.6 0 0.997712 0.55 0 
0.997712 0.5 0 0.997712 0.45 0 0.997712 0.4 0 
0.997712 0.35 0 0.997712 0.3 0 0.997712 0.25 0 
0.997712 0.2 0 0.997712 0.15 0 0.997712 0.1 0 
0.997712 0.05 0 0.997712 0 0 1.047496 1.5 0 
1.047496 1.45 0 1.047496 1.4 0 1.047496 1.35 0 
1.047496 1.3 0 1.047496 1.25 0 1.047496 1.2 0 
1.047496 1.15 0 1.047496 1.1 0 1.047496 1.05 0 
1.047496 1 0 1.047496 0.95 0 1.047496 0.9 0 
1.047496 0.85 0 1.047496 0.8 0 1.047496 0.75 0 
1.047496 0.7 0 1.047496 0.65 0 1.047496 0.6 0 
1.047496 0.55 0 1.047496 0.5 0 1.047496 0.45 0 
1.047496 0.4 0 1.047496 0.35 0 1.047496 0.3 0 
1.047496 0.25 0 1.047496 0.2 0 1.047496 0.15 0 
[...]
CELL_DATA 9270
FIELD FieldData 7
B_Stress_n_p_m2 1 9270 float
0.465739 0.484259 0.486713 0.486191 0.485469 0.485102 0.484938 0.4849 0.484917 
0.484966 0.485029 0.4851 0.485176 0.485254 0.48533 0.48533 0.485254 0.485176 
0.4851 0.485029 0.484966 0.484917 0.4849 0.484938 0.485102 0.485469 0.486191 
0.486713 0.484259 0.465739 0.0994368 0.132675 0.137642 0.136747 0.135074 0.133951 
0.133199 0.13273 0.132413 0.132205 0.132061 0.131966 0.131905 0.131871 0.131857 
0.131857 0.131871 0.131905 0.131966 0.132061 0.132205 0.132413 0.13273 0.133199 
0.133951 0.135074 0.136747 0.137642 0.132675 0.0994368 0.137435 0.176185 0.183691 
0.183512 0.181886 0.180595 0.179638 0.178981 0.178506 0.178169 0.177924 0.177749 
0.177626 0.177546 0.177504 0.177504 0.177546 0.177626 0.177749 0.177924 0.178169 
0.178506 0.178981 0.179638 0.180595 0.181886 0.183512 0.183691 0.176185 0.137435 
0.124972 0.165878 0.175075 0.17563 0.174333 0.173143 0.172198 0.171512 0.170999 
0.170625 0.170348 0.170151 0.170013 0.169927 0.169886 0.169886 0.169927 0.170013 
0.170151 0.170348 0.170625 0.170999 0.171512 0.172198 0.173143 0.174333 0.17563 
0.175075 0.165878 0.124972 0.124219 0.16574 0.175849 0.17693 0.175964 0.174931 
0.174055 0.173385 0.172864 0.17247 0.172171 0.171953 0.171798 0.1717 0.171652 
0.171652 0.1717 0.171798 0.171953 0.172171 0.17247 0.172864 0.173385 0.174055 
0.174931 0.175964 0.17693 0.175849 0.16574 0.124219 0.122524 0.164331 0.175004 
0.176461 0.175779 0.174911 0.174136 0.173515 0.173017 0.172629 0.172329 0.172105 
0.171946 0.171844 0.171794 0.171794 0.171844 0.171946 0.172105 0.172329 0.172629 
0.173017 0.173515 0.174136 0.174911 0.175779 0.176461 0.175004 0.164331 0.122524 
0.121692 0.163523 0.174499 0.176208 0.175748 0.175033 0.174362 0.173805 0.173346 
0.172978 0.172689 0.17247 0.172311 0.172209 0.172159 0.172159 0.172209 0.172311 
0.17247 0.172689 0.172978 0.173346 0.173805 0.174362 0.175033 0.175748 0.176208 
0.174499 0.163523 0.121692 0.121148 0.162897 0.17403 0.175905 0.175614 0.175028 
0.174456 0.173966 0.173551 0.173213 0.172942 0.172734 0.172582 0.172484 0.172435 
0.172435 0.172484 0.172582 0.172734 0.172942 0.173213 0.173551 0.173966 0.174456 
0.175028 0.175614 0.175905 0.17403 0.162897 0.121148 0.120851 0.162452 0.173649 
0.175629 0.175465 0.174984 0.174498 0.174071 0.173704 0.173399 0.17315 0.172957 
0.172815 0.172722 0.172676 0.172676 0.172722 0.172815 0.172957 0.17315 0.173399 
0.173704 0.174071 0.174498 0.174984 0.175465 0.175629 0.173649 0.162452 0.120851 
0.120719 0.162134 0.173336 0.17538 0.175309 0.174913 0.174499 0.17413 0.173807 
0.173535 0.173311 0.173135 0.173004 0.172918 0.172875 0.172875 0.172918 0.173004 
0.173135 0.173311 0.173535 0.173807 0.17413 0.174499 0.174913 0.175309 0.17538 
0.173336 0.162134 0.120719 0.120709 0.161913 0.173082 0.175161 0.175158 0.174828 
0.174475 0.174156 0.173874 0.173634 0.173433 0.173275 0.173156 0.173078 0.173039 
0.173039 0.173078 0.173156 0.173275 0.173433 0.173634 0.173874 0.174156 0.174475 
0.174828 0.175158 0.175161 0.173082 0.161913 0.120709 0.120786 0.16177 0.172875 
0.174969 0.175015 0.174738 0.174435 0.174159 0.173913 0.173701 0.173524 0.173382 
0.173276 0.173205 0.173169 0.173169 0.173205 0.173276 0.173382 0.173524 0.173701 
0.173913 0.174159 0.174435 0.174738 0.175015 0.174969 0.172875 0.16177 0.120786 
0.120924 0.161693 0.172708 0.174801 0.174883 0.174648 0.174385 0.174145 0.17393 
0.173744 0.173587 0.173461 0.173366 0.173303 0.173271 0.173271 0.173303 0.173366 
0.173461 0.173587 0.173744 0.17393 0.174145 0.174385 0.174648 0.174883 0.174801 
0.172708 0.161693 0.120924 0.12111 0.161665 0.172576 0.174655 0.174762 0.174559 
0.174329 0.174119 0.173931 0.173767 0.173629 0.173517 0.173433 0.173377 0.173348 
0.173348 0.173377 0.173433 0.173517 0.173629 0.173767 0.173931 0.174119 0.174329 
0.174559 0.174762 0.174655 0.172576 0.161665 0.12111 0.121333 0.161675 0.17247 
0.174526 0.174651 0.174473 0.17427 0.174085 0.173919 0.173774 0.173652 0.173553 
0.173479 0.173429 0.173403 0.173403 0.173429 0.173479 0.173553 0.173652 0.173774 
0.173919 0.174085 0.17427 0.174473 0.174651 0.174526 0.17247 0.161675 0.121333 
0.121585 0.161714 0.172386 0.174413 0.174548 0.17439 0.174209 0.174044 0.173897 
0.173769 0.173661 0.173573 0.173507 0.173462 0.17344 0.17344 0.173462 0.173507 
0.173573 0.173661 0.173769 0.173897 0.174044 0.174209 0.17439 0.174548 0.174413 
0.172386 0.161714 0.121585 0.121862 0.161778 0.17232 0.174313 0.174454 0.174311 
0.174148 0.174 0.173868 0.173754 0.173658 0.17358 0.17352 0.173481 0.173461 
0.173461 0.173481 0.17352 0.17358 0.173658 0.173754 0.173868 0.174 0.174148 
0.174311 0.174454 0.174313 0.17232 0.161778 0.121862 0.122158 0.16186 0.172268 
0.174223 0.174366 0.174235 0.174086 0.173952 0.173833 0.173731 0.173644 0.173575 
0.173522 0.173486 0.173469 0.173469 0.173486 0.173522 0.173575 0.173644 0.173731 
0.173833 0.173952 0.174086 0.174235 0.174366 0.174223 0.172268 0.16186 0.122158 
0.122471 0.161957 0.172228 0.174141 0.174283 0.174162 0.174024 0.173901 0.173793 
0.173701 0.173623 0.17356 0.173513 0.173481 0.173465 0.173465 0.173481 0.173513 
0.17356 0.173623 0.173701 0.173793 0.173901 0.174024 0.174162 0.174283 0.174141 
0.172228 0.161957 0.122471 0.122798 0.162066 0.172196 0.174066 0.174206 0.174092 
0.173963 0.173849 0.17375 0.173666 0.173595 0.173538 0.173495 0.173467 0.173452 
0.173452 0.173467 0.173495 0.173538 0.173595 0.173666 0.17375 0.173849 0.173963 
0.174092 0.174206 0.174066 0.172196 0.162066 0.122798 0.123137 0.162184 0.172171 
0.173997 0.174132 0.174023 0.173902 0.173796 0.173704 0.173627 0.173562 0.17351 
0.173471 0.173444 0.173431 0.173431 0.173444 0.173471 0.17351 0.173562 0.173627 
0.173704 0.173796 0.173902 0.174023 0.174132 0.173997 0.172171 0.162184 0.123137 
0.123487 0.16231 0.172151 0.173932 0.174061 0.173957 0.173842 0.173742 0.173656 
0.173584 0.173524 0.173476 0.17344 0.173416 0.173404 0.173404 0.173416 0.17344 
0.173476 0.173524 0.173584 0.173656 0.173742 0.173842 0.173957 0.174061 0.173932 
0.172151 0.16231 0.123487 0.123845 0.162442 0.172136 0.17387 0.173994 0.173892 
0.173782 0.173687 0.173606 0.173538 0.173483 0.173438 0.173405 0.173383 0.173371 
0.173371 0.173383 0.173405 0.173438 0.173483 0.173538 0.173606 0.173687 0.173782 
0.173892 0.173994 0.17387 0.172136 0.162442 0.123845 0.124212 0.16258 0.172125 
0.173812 0.173928 0.173828 0.173722 0.173631 0.173555 0.173491 0.173438 0.173396 
0.173365 0.173345 0.173334 0.173334 0.173345 0.173365 0.173396 0.173438 0.173491 
0.173555 0.173631 0.173722 0.173828 0.173928 0.173812 0.172125 0.16258 0.124212 
0.124587 0.162721 0.172116 0.173755 0.173864 0.173766 0.173663 0.173575 0.173502 
0.173441 0.173391 0.173352 0.173322 0.173303 0.173293 0.173293 0.173303 0.173322 
0.173352 0.173391 0.173441 0.173502 0.173575 0.173663 0.173766 0.173864 0.173755 
0.172116 0.162721 0.124587 0.124968 0.162865 0.172109 0.173701 0.173801 0.173704 
0.173603 0.173519 0.173448 0.17339 0.173342 0.173305 0.173277 0.173258 0.173249 
0.173249 0.173258 0.173277 0.173305 0.173342 0.17339 0.173448 0.173519 0.173603 
0.173704 0.173801 0.173701 0.172109 0.162865 0.124968 0.125355 0.163011 0.172103 
0.173648 0.173739 0.173643 0.173544 0.173462 0.173393 0.173337 0.173291 0.173256 
0.173229 0.173211 0.173203 0.173203 0.173211 0.173229 0.173256 0.173291 0.173337 
0.173393 0.173462 0.173544 0.173643 0.173739 0.173648 0.172103 0.163011 0.125355 
0.125748 0.163159 0.172098 0.173595 0.173679 0.173582 0.173485 0.173405 0.173338 
0.173283 0.173239 0.173205 0.173179 0.173162 0.173154 0.173154 0.173162 0.173179 
0.173205 0.173239 0.173283 0.173338 0.173405 0.173485 0.173582 0.173679 0.173595 
0.172098 0.163159 0.125748 0.126147 0.163309 0.172094 0.173544 0.173618 0.173522 
0.173426 0.173347 0.173282 0.173229 0.173186 0.173152 0.173128 0.173111 0.173103 
0.173103 0.173111 0.173128 0.173152 0.173186 0.173229 0.173282 0.173347 0.173426 
0.173522 0.173618 0.173544 0.172094 0.163309 0.126147 0.126552 0.16346 0.17209 
0.173493 0.173559 0.173462 0.173367 0.173289 0.173226 0.173173 0.173132 0.173099 
0.173075 0.173059 0.173051 0.173051 0.173059 0.173075 0.173099 0.173132 0.173173 
0.173226 0.173289 0.173367 0.173462 0.173559 0.173493 0.17209 0.16346 0.126552 
0.126961 0.163612 0.172086 0.173442 0.1735 0.173402 0.173309 0.173232 0.173169 
0.173117 0.173076 0.173044 0.173021 0.173005 0.172998 0.172998 0.173005 0.173021 
0.173044 0.173076 0.173117 0.173169 0.173232 0.173309 0.173402 0.1735 0.173442 
0.172086 0.163612 0.126961 0.127376 0.163764 0.172081 0.173392 0.173441 0.173343 
0.17325 0.173173 0.173111 0.173061 0.17302 0.172989 0.172966 0.172951 0.172943 
0.172943 0.172951 0.172966 0.172989 0.17302 0.173061 0.173111 0.173173 0.17325 
0.173343 0.173441 0.173392 0.172081 0.163764 0.127376 0.127795 0.163916 0.172077 
0.173341 0.173382 0.173283 0.173191 0.173115 0.173053 0.173004 0.172964 0.172933 
0.17291 0.172895 0.172888 0.172888 0.172895 0.17291 0.172933 0.172964 0.173004 
0.173053 0.173115 0.173191 0.173283 0.173382 0.173341 0.172077 0.163916 0.127795 
0.12822 0.164069 0.172072 0.173291 0.173323 0.173224 0.173131 0.173056 0.172995 
0.172946 0.172907 0.172876 0.172854 0.172839 0.172832 0.172832 0.172839 0.172854 
0.172876 0.172907 0.172946 0.172995 0.173056 0.173131 0.173224 0.173323 0.173291 
0.172072 0.164069 0.12822 0.128649 0.164221 0.172067 0.17324 0.173264 0.173164 
0.173072 0.172998 0.172937 0.172888 0.172849 0.172819 0.172797 0.172782 0.172775 
0.172775 0.172782 0.172797 0.172819 0.172849 0.172888 0.172937 0.172998 0.173072 
0.173164 0.173264 0.17324 0.172067 0.164221 0.128649 0.129083 0.164373 0.172061 
0.17319 0.173206 0.173105 0.173013 0.172939 0.172878 0.17283 0.172791 0.172761 
0.172739 0.172725 0.172718 0.172718 0.172725 0.172739 0.172761 0.172791 0.17283 
0.172878 0.172939 0.173013 0.173105 0.173206 0.17319 0.172061 0.164373 0.129083 
0.129521 0.164525 0.172054 0.173139 0.173147 0.173045 0.172954 0.172879 0.17282 
0.172771 0.172733 0.172703 0.172681 0.172667 0.17266 0.17266 0.172667 0.172681 
0.172703 0.172733 0.172771 0.17282 0.172879 0.172954 0.173045 0.173147 0.173139 
0.172054 0.164525 0.129521 0.129965 0.164677 0.172046 0.173088 0.173088 0.172985 
0.172894 0.17282 0.17276 0.172712 0.172674 0.172644 0.172623 0.172608 0.172601 
0.172601 0.172608 0.172623 0.172644 0.172674 0.172712 0.17276 0.17282 0.172894 
0.172985 0.173088 0.173088 0.172046 0.164677 0.129965 0.130413 0.164828 0.172038 
0.173036 0.173029 0.172926 0.172834 0.172761 0.172701 0.172653 0.172615 0.172585 
0.172564 0.17255 0.172543 0.172543 0.17255 0.172564 0.172585 0.172615 0.172653 
0.172701 0.172761 0.172834 0.172926 0.173029 0.173036 0.172038 0.164828 0.130413 
0.130866 0.164978 0.172029 0.172984 0.17297 0.172866 0.172775 0.172701 0.172642 
0.172594 0.172556 0.172526 0.172505 0.172491 0.172484 0.172484 0.172491 0.172505 
0.172526 0.172556 0.172594 0.172642 0.172701 0.172775 0.172866 0.17297 0.172984 
0.172029 0.164978 0.130866 0.131324 0.165128 0.172019 0.172932 0.172911 0.172806 
0.172715 0.172641 0.172582 0.172534 0.172496 0.172467 0.172445 0.172431 0.172424 
0.172424 0.172431 0.172445 0.172467 0.172496 0.172534 0.172582 0.172641 0.172715 
0.172806 0.172911 0.172932 0.172019 0.165128 0.131324 0.131787 0.165276 0.172007 
0.17288 0.172851 0.172746 0.172654 0.172581 0.172522 0.172474 0.172436 0.172407 
0.172386 0.172372 0.172365 0.172365 0.172372 0.172386 0.172407 0.172436 0.172474 
0.172522 0.172581 0.172654 0.172746 0.172851 0.17288 0.172007 0.165276 0.131787 
0.132255 0.165424 0.171995 0.172827 0.172792 0.172685 0.172594 0.172521 0.172462 
0.172414 0.172376 0.172347 0.172326 0.172312 0.172305 0.172305 0.172312 0.172326 
0.172347 0.172376 0.172414 0.172462 0.172521 0.172594 0.172685 0.172792 0.172827 
0.171995 0.165424 0.132255 0.132728 0.165572 0.171982 0.172774 0.172732 0.172625 
0.172534 0.17246 0.172401 0.172354 0.172316 0.172287 0.172265 0.172251 0.172245 
0.172245 0.172251 0.172265 0.172287 0.172316 0.172354 0.172401 0.17246 0.172534 
0.172625 0.172732 0.172774 0.171982 0.165572 0.132728 0.133205 0.165718 0.171968 
0.17272 0.172672 0.172564 0.172473 0.1724 0.172341 0.172293 0.172255 0.172226 
0.172205 0.172191 0.172184 0.172184 0.172191 0.172205 0.172226 0.172255 0.172293 
0.172341 0.1724 0.172473 0.172564 0.172672 0.17272 0.171968 0.165718 0.133205 
0.133688 0.165863 0.171953 0.172666 0.172612 0.172503 0.172412 0.172339 0.17228 
0.172232 0.172195 0.172166 0.172144 0.17213 0.172124 0.172124 0.17213 0.172144 
0.172166 0.172195 0.172232 0.17228 0.172339 0.172412 0.172503 0.172612 0.172666 
0.171953 0.165863 0.133688 0.134176 0.166007 0.171936 0.172611 0.172552 0.172443 
0.172352 0.172278 0.172219 0.172171 0.172134 0.172105 0.172084 0.17207 0.172063 
0.172063 0.17207 0.172084 0.172105 0.172134 0.172171 0.172219 0.172278 0.172352 
0.172443 0.172552 0.172611 0.171936 0.166007 0.134176 0.134669 0.16615 0.171919 
0.172557 0.172492 0.172382 0.17229 0.172217 0.172158 0.17211 0.172073 0.172044 
0.172023 0.172009 0.172002 0.172002 0.172009 0.172023 0.172044 0.172073 0.17211 
0.172158 0.172217 0.17229 0.172382 0.172492 0.172557 0.171919 0.16615 0.134669 
0.135168 0.166292 0.1719 0.172501 0.172431 0.17232 0.172229 0.172156 0.172097 
0.172049 0.172012 0.171982 0.171961 0.171947 0.17194 0.17194 0.171947 0.171961 
0.171982 0.172012 0.172049 0.172097 0.172156 0.172229 0.17232 0.172431 0.172501 
0.1719 0.166292 0.135168 0.135671 0.166432 0.171881 0.172446 0.17237 0.172259 
0.172168 0.172094 0.172036 0.171988 0.17195 0.171921 0.1719 0.171886 0.171879 
0.171879 0.171886 0.1719 0.171921 0.17195 0.171988 0.172036 0.172094 0.172168 
0.172259 0.17237 0.172446 0.171881 0.166432 0.135671 0.136181 0.166571 0.17186 
0.17239 0.172309 0.172197 0.172106 0.172033 0.171974 0.171926 0.171889 0.171859 
0.171838 0.171824 0.171817 0.171817 0.171824 0.171838 0.171859 0.171889 0.171926 
0.171974 0.172033 0.172106 0.172197 0.172309 0.17239 0.17186 0.166571 0.136181 
0.136695 0.166709 0.171838 0.172333 0.172248 0.172136 0.172045 0.171971 0.171912 
0.171864 0.171827 0.171798 0.171776 0.171762 0.171756 0.171756 0.171762 0.171776 
0.171798 0.171827 0.171864 0.171912 0.171971 0.172045 0.172136 0.172248 0.172333 
0.171838 0.166709 0.136695 0.137216 0.166845 0.171815 0.172276 0.172186 0.172074 
0.171983 0.171909 0.17185 0.171802 0.171765 0.171736 0.171714 0.1717 0.171694 
0.171694 0.1717 0.171714 0.171736 0.171765 0.171802 0.17185 0.171909 0.171983 
0.172074 0.172186 0.172276 0.171815 0.166845 0.137216 0.137741 0.166979 0.171791 
0.172219 0.172125 0.172012 0.171921 0.171847 0.171788 0.17174 0.171703 0.171673 
0.171652 0.171638 0.171631 0.171631 0.171638 0.171652 0.171673 0.171703 0.17174 
0.171788 0.171847 0.171921 0.172012 0.172125 0.172219 0.171791 0.166979 0.137741 
0.138273 0.167112 0.171765 0.172162 0.172063 0.171949 0.171858 0.171785 0.171726 
0.171678 0.171641 0.171611 0.17159 0.171576 0.171569 0.171569 0.171576 0.17159 
0.171611 0.171641 0.171678 0.171726 0.171785 0.171858 0.171949 0.172063 0.172162 
0.171765 0.167112 0.138273 0.13881 0.167243 0.171739 0.172104 0.172001 0.171887 
0.171796 0.171722 0.171664 0.171616 0.171578 0.171549 0.171528 0.171514 0.171507 
0.171507 0.171514 0.171528 0.171549 0.171578 0.171616 0.171664 0.171722 0.171796 
0.171887 0.172001 0.172104 0.171739 0.167243 0.13881 0.139354 0.167373 0.171711 
0.172045 0.171939 0.171824 0.171734 0.17166 0.171601 0.171553 0.171515 0.171486 
0.171465 0.171451 0.171444 0.171444 0.171451 0.171465 0.171486 0.171515 0.171553 
0.171601 0.17166 0.171734 0.171824 0.171939 0.172045 0.171711 0.167373 0.139354 
0.139903 0.167501 0.171682 0.171986 0.171877 0.171762 0.171671 0.171597 0.171538 
0.17149 0.171453 0.171423 0.171402 0.171388 0.171381 0.171381 0.171388 0.171402 
0.171423 0.171453 0.17149 0.171538 0.171597 0.171671 0.171762 0.171877 0.171986 
0.171682 0.167501 0.139903 0.140458 0.167626 0.171652 0.171927 0.171814 0.171699 
0.171608 0.171534 0.171475 0.171427 0.17139 0.17136 0.171339 0.171325 0.171318 
0.171318 0.171325 0.171339 0.17136 0.17139 0.171427 0.171475 0.171534 0.171608 
0.171699 0.171814 0.171927 0.171652 0.167626 0.140458 0.141019 0.16775 0.171621 
0.171868 0.171751 0.171636 0.171545 0.171471 0.171412 0.171364 0.171327 0.171297 
0.171276 0.171262 0.171255 0.171255 0.171262 0.171276 0.171297 0.171327 0.171364 
0.171412 0.171471 0.171545 0.171636 0.171751 0.171868 0.171621 0.16775 0.141019 
0.141587 0.167872 0.171588 0.171808 0.171688 0.171573 0.171482 0.171408 0.171349 
0.171301 0.171263 0.171234 0.171213 0.171199 0.171192 0.171192 0.171199 0.171213 
0.171234 0.171263 0.171301 0.171349 0.171408 0.171482 0.171573 0.171688 0.171808 
0.171588 0.167872 0.141587 0.142161 0.167991 0.171555 0.171748 0.171625 0.171509 
0.171418 0.171344 0.171286 0.171237 0.1712 0.17117 0.171149 0.171135 0.171128 
0.171128 0.171135 0.171149 0.17117 0.1712 0.171237 0.171286 0.171344 0.171418 
0.171509 0.171625 0.171748 0.171555 0.167991 0.142161 0.142741 0.168109 0.17152 
0.171687 0.171562 0.171446 0.171355 0.171281 0.171222 0.171174 0.171136 0.171107 
0.171086 0.171072 0.171065 0.171065 0.171072 0.171086 0.171107 0.171136 0.171174 
0.171222 0.171281 0.171355 0.171446 0.171562 0.171687 0.17152 0.168109 0.142741 
0.143327 0.168224 0.171484 0.171626 0.171498 0.171382 0.171291 0.171217 0.171158 
0.17111 0.171073 0.171043 0.171022 0.171008 0.171001 0.171001 0.171008 0.171022 
0.171043 0.171073 0.17111 0.171158 0.171217 0.171291 0.171382 0.171498 0.171626 
0.171484 0.168224 0.143327 0.143921 0.168336 0.171447 0.171565 0.171435 0.171318 
0.171227 0.171153 0.171095 0.171046 0.171009 0.170979 0.170958 0.170944 0.170937 
0.170937 0.170944 0.170958 0.170979 0.171009 0.171046 0.171095 0.171153 0.171227 
0.171318 0.171435 0.171565 0.171447 0.168336 0.143921 0.144521 0.168446 0.171408 
0.171503 0.171371 0.171254 0.171163 0.171089 0.171031 0.170982 0.170945 0.170915 
0.170894 0.17088 0.170873 0.170873 0.17088 0.170894 0.170915 0.170945 0.170982 
0.171031 0.171089 0.171163 0.171254 0.171371 0.171503 0.171408 0.168446 0.144521 
0.145127 0.168554 0.171368 0.171441 0.171307 0.17119 0.171099 0.171025 0.170966 
0.170918 0.170881 0.170851 0.17083 0.170816 0.170809 0.170809 0.170816 0.17083 
0.170851 0.170881 0.170918 0.170966 0.171025 0.171099 0.17119 0.171307 0.171441 
0.171368 0.168554 0.145127 0.145741 0.168658 0.171328 0.171379 0.171243 0.171125 
0.171035 0.170961 0.170902 0.170854 0.170816 0.170787 0.170766 0.170752 0.170745 
0.170745 0.170752 0.170766 0.170787 0.170816 0.170854 0.170902 0.170961 0.171035 
0.171125 0.171243 0.171379 0.171328 0.168658 0.145741 0.146361 0.16876 0.171286 
0.171316 0.171178 0.171061 0.170971 0.170896 0.170838 0.170789 0.170752 0.170723 
0.170701 0.170687 0.170681 0.170681 0.170687 0.170701 0.170723 0.170752 0.170789 
0.170838 0.170896 0.170971 0.171061 0.171178 0.171316 0.171286 0.16876 0.146361 
0.146989 0.168859 0.171242 0.171253 0.171114 0.170996 0.170906 0.170832 0.170773 
0.170725 0.170687 0.170658 0.170637 0.170623 0.170616 0.170616 0.170623 0.170637 
0.170658 0.170687 0.170725 0.170773 0.170832 0.170906 0.170996 0.171114 0.171253 
0.171242 0.168859 0.146989 0.147623 0.168955 0.171198 0.171189 0.171049 0.170931 
0.170841 0.170767 0.170708 0.17066 0.170623 0.170593 0.170572 0.170558 0.170551 
0.170551 0.170558 0.170572 0.170593 0.170623 0.17066 0.170708 0.170767 0.170841 
0.170931 0.171049 0.171189 0.171198 0.168955 0.147623 0.148265 0.169047 0.171152 
0.171126 0.170984 0.170866 0.170776 0.170702 0.170644 0.170595 0.170558 0.170529 
0.170508 0.170494 0.170487 0.170487 0.170494 0.170508 0.170529 0.170558 0.170595 
0.170644 0.170702 0.170776 0.170866 0.170984 0.171126 0.171152 0.169047 0.148265 
0.148914 0.169137 0.171105 0.171062 0.170919 0.170801 0.170711 0.170637 0.170579 
0.170531 0.170493 0.170464 0.170443 0.170429 0.170422 0.170422 0.170429 0.170443 
0.170464 0.170493 0.170531 0.170579 0.170637 0.170711 0.170801 0.170919 0.171062 
0.171105 0.169137 0.148914 0.149571 0.169223 0.171057 0.170997 0.170854 0.170736 
0.170646 0.170572 0.170514 0.170465 0.170428 0.170399 0.170378 0.170364 0.170357 