# vtk DataFile Version 5.1
vtk output
ASCII
DATASET UNSTRUCTURED_GRID
POINTS 4929 double
0.1016 1.5 0 0.1016 1.45 0 0.1016 1.4 0 
0.1016 1.35 0 0.1016 1.3 0 0.1016 1.25 0 
0.1016 1.2 0 0.1016 1.15 0 0.1016 1.1 0 
0.1016 1.05 0 0.1016 1 0 0.1016 0.95 0 
0.1016 0.9 0 0.1016 0.85 0 0.1016 0.8 0 
0.1016 0.75 0 0.1016 0.7 0 0.1016 0.65 0 
0.1016 0.6 0 0.1016 0.55 0 0.1016 0.5 0 
0.1016 0.45 0 0.1016 0.4 0 0.1016 0.35 0 
0.1016 0.3 0 0.1016 0.25 0 0.1016 0.2 0 
0.1016 0.15 0 0.1016 0.1 0 0.1016 0.05 0 
0.1016 0 0 5.08 1.5 0 5.08 1.45 0 
5.08 1.4 0 5.08 1.35 0 5.08 1.3 0 
5.08 1.25 0 5.08 1.2 0 5.08 1.15 0 
5.08 1.1 0 5.08 1.05 0 5.08 1 0 
5.08 0.95 0 5.08 0.9 0 5.08 0.85 0 
5.08 0.8 0 5.08 0.75 0 5.08 0.7 0 
5.08 0.65 0 5.08 0.6 0 5.08 0.55 0 
5.08 0.5 0 5.08 0.45 0 5.08 0.4 0 
5.08 0.35 0 5.08 0.3 0 5.08 0.25 0 
5.08 0.2 0 5.08 0.15 0 5.08 0.1 0 
5.08 0.05 0 5.08 0 0 0.12737462728 1.5 0 
0.12737462728 1.45 0 0.12737462728 1.4 0 0.12737462728 1.35 0 
0.12737462728 1.3 0 0.12737462728 1.25 0 0.12737462728 1.2 0 
0.12737462728 1.15 0 0.12737462728 1.1 0 0.12737462728 1.05 0 
0.12737462728 1 0 0.12737462728 0.95 0 0.12737462728 0.9 0 
0.12737462728 0.85 0 0.12737462728 0.8 0 0.12737462728 0.75 0 
0.12737462728 0.7 0 0.12737462728 0.65 0 0.12737462728 0.6 0 
0.12737462728 0.55 0 0.12737462728 0.5 0 0.12737462728 0.45 0 
0.12737462728 0.4 0 0.12737462728 0.35 0 0.12737462728 0.3 0 
0.12737462728 0.25 0 0.12737462728 0.2 0 0.12737462728 0.15 0 
0.12737462728 0.1 0 0.12737462728 0.05 0 0.12737462728 0 0 
0.15441581276 1.5 0 0.15441581276 1.45 0 0.15441581276 1.4 0 
0.15441581276 1.35 0 0.15441581276 1.3 0 0.15441581276 1.25 0 
0.15441581276 1.2 0 0.15441581276 1.15 0 0.15441581276 1.1 0 
0.15441581276 1.05 0 0.15441581276 1 0 0.15441581276 0.95 0 
0.15441581276 0.9 0 0.15441581276 0.85 0 0.15441581276 0.8 0 
0.15441581276 0.75 0 0.15441581276 0.7 0 0.15441581276 0.65 0 
0.15441581276 0.6 0 0.15441581276 0.55 0 0.15441581276 0.5 0 
0.15441581276 0.45 0 0.15441581276 0.4 0 0.15441581276 0.35 0 
0.15441581276 0.3 0 0.15441581276 0.25 0 0.15441581276 0.2 0 
0.15441581276 0.15 0 0.15441581276 0.1 0 0.15441581276 0.05 0 
0.15441581276 0 0 0.18278579477 1.5 0 0.18278579477 1.45 0 
0.18278579477 1.4 0 0.18278579477 1.35 0 0.18278579477 1.3 0 
0.18278579477 1.25 0 0.18278579477 1.2 0 0.18278579477 1.15 0 
0.18278579477 1.1 0 0.18278579477 1.05 0 0.18278579477 1 0 
0.18278579477 0.95 0 0.18278579477 0.9 0 0.18278579477 0.85 0 
0.18278579477 0.8 0 0.18278579477 0.75 0 0.18278579477 0.7 0 
0.18278579477 0.65 0 0.18278579477 0.6 0 0.18278579477 0.55 0 
0.18278579477 0.5 0 0.18278579477 0.45 0 0.18278579477 0.4 0 
0.18278579477 0.35 0 0.18278579477 0.3 0 0.18278579477 0.25 0 
0.18278579477 0.2 0 0.18278579477 0.15 0 0.18278579477 0.1 0 
0.18278579477 0.05 0 0.18278579477 0 0 0.21254987001 1.5 0 
0.21254987001 1.45 0 0.21254987001 1.4 0 0.21254987001 1.35 0 
0.21254987001 1.3 0 0.21254987001 1.25 0 0.21254987001 1.2 0 
0.21254987001 1.15 0 0.21254987001 1.1 0 0.21254987001 1.05 0 
0.21254987001 1 0 0.21254987001 0.95 0 0.21254987001 0.9 0 
0.21254987001 0.85 0 0.21254987001 0.8 0 0.21254987001 0.75 0 
0.21254987001 0.7 0 0.21254987001 0.65 0 0.21254987001 0.6 0 
0.21254987001 0.55 0 0.21254987001 0.5 0 0.21254987001 0.45 0 
0.21254987001 0.4 0 0.21254987001 0.35 0 0.21254987001 0.3 0 
0.21254987001 0.25 0 0.21254987001 0.2 0 0.21254987001 0.15 0 
0.21254987001 0.1 0 0.21254987001 0.05 0 0.21254987001 0 0 
0.24377654385 1.5 0 0.24377654385 1.45 0 0.24377654385 1.4 0 
0.24377654385 1.35 0 0.24377654385 1.3 0 0.24377654385 1.25 0 
0.24377654385 1.2 0 0.24377654385 1.15 0 0.24377654385 1.1 0 
0.24377654385 1.05 0 0.24377654385 1 0 0.24377654385 0.95 0 
0.24377654385 0.9 0 0.24377654385 0.85 0 0.24377654385 0.8 0 
0.24377654385 0.75 0 0.24377654385 0.7 0 0.24377654385 0.65 0 
0.24377654385 0.6 0 0.24377654385 0.55 0 0.24377654385 0.5 0 
0.24377654385 0.45 0 0.24377654385 0.4 0 0.24377654385 0.35 0 
0.24377654385 0.3 0 0.24377654385 0.25 0 0.24377654385 0.2 0 
0.24377654385 0.15 0 0.24377654385 0.1 0 0.24377654385 0.05 0 
0.24377654385 0 0 0.27653768798 1.5 0 0.27653768798 1.45 0 
0.27653768798 1.4 0 0.27653768798 1.35 0 0.27653768798 1.3 0 
0.27653768798 1.25 0 0.27653768798 1.2 0 0.27653768798 1.15 0 
0.27653768798 1.1 0 0.27653768798 1.05 0 0.27653768798 1 0 
0.27653768798 0.95 0 0.27653768798 0.9 0 0.27653768798 0.85 0 
0.27653768798 0.8 0 0.27653768798 0.75 0 0.27653768798 0.7 0 
0.27653768798 0.65 0 0.27653768798 0.6 0 0.27653768798 0.55 0 
0.27653768798 0.5 0 0.27653768798 0.45 0 0.27653768798 0.4 0 
0.27653768798 0.35 0 0.27653768798 0.3 0 0.27653768798 0.25 0 
0.27653768798 0.2 0 0.27653768798 0.15 0 0.27653768798 0.1 0 
0.27653768798 0.05 0 0.27653768798 0 0 0.31090870586 1.5 0 
0.31090870586 1.45 0 0.31090870586 1.4 0 0.31090870586 1.35 0 
0.31090870586 1.3 0 0.31090870586 1.25 0 0.31090870586 1.2 0 
0.31090870586 1.15 0 0.31090870586 1.1 0 0.31090870586 1.05 0 
0.31090870586 1 0 0.31090870586 0.95 0 0.31090870586 0.9 0 
0.31090870586 0.85 0 0.31090870586 0.8 0 0.31090870586 0.75 0 
0.31090870586 0.7 0 0.31090870586 0.65 0 0.31090870586 0.6 0 
0.31090870586 0.55 0 0.31090870586 0.5 0 0.31090870586 0.45 0 
0.31090870586 0.4 0 0.31090870586 0.35 0 0.31090870586 0.3 0 
0.31090870586 0.25 0 0.31090870586 0.2 0 0.31090870586 0.15 0 
0.31090870586 0.1 0 0.31090870586 0.05 0 0.31090870586 0 0 
0.34696870625 1.5 0 0.34696870625 1.45 0 0.34696870625 1.4 0 
0.34696870625 1.35 0 0.34696870625 1.3 0 0.34696870625 1.25 0 
0.34696870625 1.2 0 0.34696870625 1.15 0 0.34696870625 1.1 0 
0.34696870625 1.05 0 0.34696870625 1 0 0.34696870625 0.95 0 
0.34696870625 0.9 0 0.34696870625 0.85 0 0.34696870625 0.8 0 
0.34696870625 0.75 0 0.34696870625 0.7 0 0.34696870625 0.65 0 
0.34696870625 0.6 0 0.34696870625 0.55 0 0.34696870625 0.5 0 
0.34696870625 0.45 0 0.34696870625 0.4 0 0.34696870625 0.35 0 
0.34696870625 0.3 0 0.34696870625 0.25 0 0.34696870625 0.2 0 
0.34696870625 0.15 0 0.34696870625 0.1 0 0.34696870625 0.05 0 
0.34696870625 0 0 0.3848006853 1.5 0 0.3848006853 1.45 0 
0.3848006853 1.4 0 0.3848006853 1.35 0 0.3848006853 1.3 0 
0.3848006853 1.25 0 0.3848006853 1.2 0 0.3848006853 1.15 0 
0.3848006853 1.1 0 0.3848006853 1.05 0 0.3848006853 1 0 
0.3848006853 0.95 0 0.3848006853 0.9 0 0.3848006853 0.85 0 
0.3848006853 0.8 0 0.3848006853 0.75 0 0.3848006853 0.7 0 
0.3848006853 0.65 0 0.3848006853 0.6 0 0.3848006853 0.55 0 
0.3848006853 0.5 0 0.3848006853 0.45 0 0.3848006853 0.4 0 
0.3848006853 0.35 0 0.3848006853 0.3 0 0.3848006853 0.25 0 
0.3848006853 0.2 0 0.3848006853 0.15 0 0.3848006853 0.1 0 
0.3848006853 0.05 0 0.3848006853 0 0 0.42449171754 1.5 0 
0.42449171754 1.45 0 0.42449171754 1.4 0 0.42449171754 1.35 0 
0.42449171754 1.3 0 0.42449171754 1.25 0 0.42449171754 1.2 0 
0.42449171754 1.15 0 0.42449171754 1.1 0 0.42449171754 1.05 0 
0.42449171754 1 0 0.42449171754 0.95 0 0.42449171754 0.9 0 
0.42449171754 0.85 0 0.42449171754 0.8 0 0.42449171754 0.75 0 
0.42449171754 0.7 0 0.42449171754 0.65 0 0.42449171754 0.6 0 
0.42449171754 0.55 0 0.42449171754 0.5 0 0.42449171754 0.45 0 
0.42449171754 0.4 0 0.42449171754 0.35 0 0.42449171754 0.3 0 
0.42449171754 0.25 0 0.42449171754 0.2 0 0.42449171754 0.15 0 
0.42449171754 0.1 0 0.42449171754 0.05 0 0.42449171754 0 0 
0.46613315636 1.5 0 0.46613315636 1.45 0 0.46613315636 1.4 0 
0.46613315636 1.35 0 0.46613315636 1.3 0 0.46613315636 1.25 0 
0.46613315636 1.2 0 0.46613315636 1.15 0 0.46613315636 1.1 0 
0.46613315636 1.05 0 0.46613315636 1 0 0.46613315636 0.95 0 
0.46613315636 0.9 0 0.46613315636 0.85 0 0.46613315636 0.8 0 
0.46613315636 0.75 0 0.46613315636 0.7 0 0.46613315636 0.65 0 
0.46613315636 0.6 0 0.46613315636 0.55 0 0.46613315636 0.5 0 
0.46613315636 0.45 0 0.46613315636 0.4 0 0.46613315636 0.35 0 
0.46613315636 0.3 0 0.46613315636 0.25 0 0.46613315636 0.2 0 
0.46613315636 0.15 0 0.46613315636 0.1 0 0.46613315636 0.05 0 
0.46613315636 0 0 0.5098208442 1.5 0 0.5098208442 1.45 0 
0.5098208442 1.4 0 0.5098208442 1.35 0 0.5098208442 1.3 0 
0.5098208442 1.25 0 0.5098208442 1.2 0 0.5098208442 1.15 0 
0.5098208442 1.1 0 0.5098208442 1.05 0 0.5098208442 1 0 
0.5098208442 0.95 0 0.5098208442 0.9 0 0.5098208442 0.85 0 
0.5098208442 0.8 0 0.5098208442 0.75 0 0.5098208442 0.7 0 
0.5098208442 0.65 0 0.5098208442 0.6 0 0.5098208442 0.55 0 
0.5098208442 0.5 0 0.5098208442 0.45 0 0.5098208442 0.4 0 
0.5098208442 0.35 0 0.5098208442 0.3 0 0.5098208442 0.25 0 
0.5098208442 0.2 0 0.5098208442 0.15 0 0.5098208442 0.1 0 
0.5098208442 0.05 0 0.5098208442 0 0 0.55565533319 1.5 0 
0.55565533319 1.45 0 0.55565533319 1.4 0 0.55565533319 1.35 0 
0.55565533319 1.3 0 0.55565533319 1.25 0 0.55565533319 1.2 0 
0.55565533319 1.15 0 0.55565533319 1.1 0 0.55565533319 1.05 0 
0.55565533319 1 0 0.55565533319 0.95 0 0.55565533319 0.9 0 
0.55565533319 0.85 0 0.55565533319 0.8 0 0.55565533319 0.75 0 
0.55565533319 0.7 0 0.55565533319 0.65 0 0.55565533319 0.6 0 
0.55565533319 0.55 0 0.55565533319 0.5 0 0.55565533319 0.45 0 
0.55565533319 0.4 0 0.55565533319 0.35 0 0.55565533319 0.3 0 
0.55565533319 0.25 0 0.55565533319 0.2 0 0.55565533319 0.15 0 
0.55565533319 0.1 0 0.55565533319 0.05 0 0.55565533319 0 0 
0.60374211656 1.5 0 0.60374211656 1.45 0 0.60374211656 1.4 0 
0.60374211656 1.35 0 0.60374211656 1.3 0 0.60374211656 1.25 0 
0.60374211656 1.2 0 0.60374211656 1.15 0 0.60374211656 1.1 0 
0.60374211656 1.05 0 0.60374211656 1 0 0.60374211656 0.95 0 
0.60374211656 0.9 0 0.60374211656 0.85 0 0.60374211656 0.8 0 
0.60374211656 0.75 0 0.60374211656 0.7 0 0.60374211656 0.65 0 
0.60374211656 0.6 0 0.60374211656 0.55 0 0.60374211656 0.5 0 
0.60374211656 0.45 0 0.60374211656 0.4 0 0.60374211656 0.35 0 
0.60374211656 0.3 0 0.60374211656 0.25 0 0.60374211656 0.2 0 
0.60374211656 0.15 0 0.60374211656 0.1 0 0.60374211656 0.05 0 
0.60374211656 0 0 0.65419187143 1.5 0 0.65419187143 1.45 0 
0.65419187143 1.4 0 0.65419187143 1.35 0 0.65419187143 1.3 0 
0.65419187143 1.25 0 0.65419187143 1.2 0 0.65419187143 1.15 0 
[...]
CELL_DATA 4740
FIELD FieldData 7
B_Stress_n_p_m2 1 4740 float
0.234814 0.234976 0.234878 0.234935 0.235006 0.235067 0.235117 0.235156 0.235186 
0.23521 0.235227 0.235241 0.235252 0.235261 0.235267 0.235267 0.235261 0.235252 
0.235241 0.235227 0.23521 0.235186 0.235156 0.235117 0.235067 0.235006 0.234935 
0.234878 0.234976 0.234814 0.173127 0.17391 0.17413 0.17436 0.17454 0.174675 
0.174776 0.17485 0.174903 0.174942 0.17497 0.17499 0.175003 0.175013 0.175018 
0.175018 0.175013 0.175003 0.17499 0.17497 0.174942 0.174903 0.17485 0.174776 
0.174675 0.17454 0.17436 0.17413 0.17391 0.173127 0.160986 0.162922 0.163644 
0.164117 0.164445 0.164681 0.164853 0.164977 0.165065 0.165128 0.16517 0.165199 
0.165217 0.165227 0.165231 0.165231 0.165227 0.165217 0.165199 0.16517 0.165128 
0.165065 0.164977 0.164853 0.164681 0.164445 0.164117 0.163644 0.162922 0.160986 
0.163422 0.165431 0.166448 0.167129 0.167603 0.167946 0.168196 0.168379 0.168511 
0.168604 0.16867 0.168713 0.168742 0.168758 0.168765 0.168765 0.168758 0.168742 
0.168713 0.16867 0.168604 0.168511 0.168379 0.168196 0.167946 0.167603 0.167129 
0.166448 0.165431 0.163422 0.163714 0.165622 0.166813 0.16766 0.16827 0.168718 
0.169049 0.169293 0.169472 0.169601 0.169692 0.169754 0.169795 0.16982 0.169831 
0.169831 0.16982 0.169795 0.169754 0.169692 0.169601 0.169472 0.169293 0.169049 
0.168718 0.16827 0.16766 0.166813 0.165622 0.163714 0.163017 0.164941 0.16627 
0.167256 0.167987 0.168535 0.168946 0.169253 0.16948 0.169646 0.169765 0.169847 
0.169902 0.169935 0.16995 0.16995 0.169935 0.169902 0.169847 0.169765 0.169646 
0.16948 0.169253 0.168946 0.168535 0.167987 0.167256 0.16627 0.164941 0.163017 
0.16247 0.164428 0.165866 0.166966 0.167805 0.168445 0.168932 0.169301 0.169577 
0.16978 0.169927 0.170031 0.1701 0.170143 0.170163 0.170163 0.170143 0.1701 
0.170031 0.169927 0.16978 0.169577 0.169301 0.168932 0.168445 0.167805 0.166966 
0.165866 0.164428 0.16247 0.162061 0.164037 0.165555 0.166748 0.167678 0.168401 
0.16896 0.169388 0.169711 0.169953 0.170129 0.170254 0.170339 0.170391 0.170416 
0.170416 0.170391 0.170339 0.170254 0.170129 0.169953 0.169711 0.169388 0.16896 
0.168401 0.167678 0.166748 0.165555 0.164037 0.162061 0.161712 0.163697 0.165275 
0.166542 0.167551 0.168347 0.16897 0.169453 0.169823 0.170101 0.170306 0.170453 
0.170554 0.170616 0.170646 0.170646 0.170616 0.170554 0.170453 0.170306 0.170101 
0.169823 0.169453 0.16897 0.168347 0.167551 0.166542 0.165275 0.163697 0.161712 
0.161413 0.163403 0.165026 0.166353 0.167427 0.168286 0.168968 0.169501 0.169914 
0.170227 0.170461 0.170629 0.170745 0.170817 0.170852 0.170852 0.170817 0.170745 
0.170629 0.170461 0.170227 0.169914 0.169501 0.168968 0.168286 0.167427 0.166353 
0.165026 0.163403 0.161413 0.161159 0.163153 0.16481 0.166185 0.167312 0.168226 
0.168958 0.169538 0.16999 0.170336 0.170596 0.170785 0.170916 0.170998 0.171038 
0.171038 0.170998 0.170916 0.170785 0.170596 0.170336 0.16999 0.169538 0.168958 
0.168226 0.167312 0.166185 0.16481 0.163153 0.161159 0.160946 0.162942 0.164625 
0.166037 0.167209 0.168168 0.168945 0.169564 0.170052 0.170428 0.170713 0.170922 
0.171067 0.171159 0.171203 0.171203 0.171159 0.171067 0.170922 0.170713 0.170428 
0.170052 0.169564 0.168945 0.168168 0.167209 0.166037 0.164625 0.162942 0.160946 
0.160768 0.162765 0.164468 0.16591 0.167117 0.168115 0.168928 0.169583 0.170102 
0.170506 0.170813 0.17104 0.171198 0.171298 0.171347 0.171347 0.171298 0.171198 
0.17104 0.170813 0.170506 0.170102 0.169583 0.168928 0.168115 0.167117 0.16591 
0.164468 0.162765 0.160768 0.160621 0.162619 0.164337 0.165802 0.167038 0.168066 
0.168911 0.169596 0.170142 0.170569 0.170896 0.171139 0.171309 0.171418 0.17147 
0.17147 0.171418 0.171309 0.171139 0.170896 0.170569 0.170142 0.169596 0.168911 
0.168066 0.167038 0.165802 0.164337 0.162619 0.160621 0.160501 0.162499 0.164228 
0.165712 0.16697 0.168024 0.168894 0.169604 0.170172 0.17062 0.170965 0.171221 
0.171402 0.171517 0.171573 0.171573 0.171517 0.171402 0.171221 0.170965 0.17062 
0.170172 0.169604 0.168894 0.168024 0.16697 0.165712 0.164228 0.162499 0.160501 
0.160406 0.162403 0.164141 0.165639 0.166914 0.167988 0.168879 0.169608 0.170195 
0.17066 0.171019 0.171287 0.171477 0.171598 0.171657 0.171657 0.171598 0.171477 
0.171287 0.171019 0.17066 0.170195 0.169608 0.168879 0.167988 0.166914 0.165639 
0.164141 0.162403 0.160406 0.160332 0.162329 0.164073 0.16558 0.166869 0.167958 
0.168864 0.169609 0.170212 0.17069 0.171061 0.171338 0.171535 0.171662 0.171723 
0.171723 0.171662 0.171535 0.171338 0.171061 0.17069 0.170212 0.169609 0.168864 
0.167958 0.166869 0.16558 0.164073 0.162329 0.160332 0.160276 0.162273 0.164021 
0.165536 0.166834 0.167934 0.168852 0.169609 0.170223 0.170711 0.171091 0.171376 
0.171579 0.171709 0.171772 0.171772 0.171709 0.171579 0.171376 0.171091 0.170711 
0.170223 0.169609 0.168852 0.167934 0.166834 0.165536 0.164021 0.162273 0.160276 
0.160237 0.162233 0.163984 0.165504 0.166809 0.167916 0.168842 0.169607 0.170229 
0.170725 0.171111 0.171401 0.171608 0.171741 0.171806 0.171806 0.171741 0.171608 
0.171401 0.171111 0.170725 0.170229 0.169607 0.168842 0.167916 0.166809 0.165504 
0.163984 0.162233 0.160237 0.160213 0.162208 0.16396 0.165482 0.166791 0.167903 
0.168834 0.169605 0.170231 0.170731 0.171121 0.171415 0.171625 0.171759 0.171825 
0.171825 0.171759 0.171625 0.171415 0.171121 0.170731 0.170231 0.169605 0.168834 
0.167903 0.166791 0.165482 0.16396 0.162208 0.160213 0.160202 0.162196 0.163947 
0.165471 0.166782 0.167895 0.168829 0.169601 0.17023 0.170732 0.171124 0.171419 
0.17163 0.171765 0.171831 0.171831 0.171765 0.17163 0.171419 0.171124 0.170732 
0.17023 0.169601 0.168829 0.167895 0.166782 0.165471 0.163947 0.162196 0.160202 
0.160202 0.162194 0.163945 0.165469 0.166778 0.167891 0.168825 0.169597 0.170225 
0.170727 0.171119 0.171414 0.171625 0.17176 0.171826 0.171826 0.17176 0.171625 
0.171414 0.171119 0.170727 0.170225 0.169597 0.168825 0.167891 0.166778 0.165469 
0.163945 0.162194 0.160202 0.160212 0.162203 0.163952 0.165474 0.166781 0.167892 
0.168823 0.169592 0.170218 0.170718 0.171107 0.171401 0.17161 0.171745 0.17181 
0.17181 0.171745 0.17161 0.171401 0.171107 0.170718 0.170218 0.169592 0.168823 
0.167892 0.166781 0.165474 0.163952 0.162203 0.160212 0.160231 0.16222 0.163968 
0.165486 0.16679 0.167896 0.168822 0.169587 0.170208 0.170704 0.17109 0.171381 
0.171588 0.17172 0.171785 0.171785 0.17172 0.171588 0.171381 0.17109 0.170704 
0.170208 0.169587 0.168822 0.167896 0.16679 0.165486 0.163968 0.16222 0.160231 
0.160259 0.162246 0.16399 0.165504 0.166803 0.167903 0.168823 0.169582 0.170197 
0.170686 0.171067 0.171353 0.171557 0.171688 0.171751 0.171751 0.171688 0.171557 
0.171353 0.171067 0.170686 0.170197 0.169582 0.168823 0.167903 0.166803 0.165504 
0.16399 0.162246 0.160259 0.160294 0.162279 0.164019 0.165528 0.166821 0.167913 
0.168825 0.169576 0.170183 0.170665 0.171039 0.17132 0.17152 0.171647 0.171709 
0.171709 0.171647 0.17152 0.17132 0.171039 0.170665 0.170183 0.169576 0.168825 
0.167913 0.166821 0.165528 0.164019 0.162279 0.160294 0.160336 0.162319 0.164055 
0.165558 0.166842 0.167926 0.168829 0.169569 0.170167 0.170641 0.171007 0.171281 
0.171476 0.1716 0.17166 0.17166 0.1716 0.171476 0.171281 0.171007 0.170641 
0.170167 0.169569 0.168829 0.167926 0.166842 0.165558 0.164055 0.162319 0.160336 
0.160385 0.162365 0.164097 0.165592 0.166868 0.167942 0.168833 0.169562 0.170149 
0.170612 0.17097 0.171237 0.171425 0.171545 0.171604 0.171604 0.171545 0.171425 
0.171237 0.17097 0.170612 0.170149 0.169562 0.168833 0.167942 0.166868 0.165592 
0.164097 0.162365 0.160385 0.160441 0.162419 0.164145 0.165632 0.166897 0.16796 
0.168838 0.169555 0.170129 0.170581 0.170928 0.171186 0.171368 0.171484 0.17154 
0.17154 0.171484 0.171368 0.171186 0.170928 0.170581 0.170129 0.169555 0.168838 
0.16796 0.166897 0.165632 0.164145 0.162419 0.160441 0.160504 0.162479 0.164199 
0.165677 0.166931 0.16798 0.168844 0.169546 0.170107 0.170546 0.170882 0.171131 
0.171305 0.171416 0.17147 0.17147 0.171416 0.171305 0.171131 0.170882 0.170546 
0.170107 0.169546 0.168844 0.16798 0.166931 0.165677 0.164199 0.162479 0.160504 
0.160574 0.162546 0.164259 0.165727 0.166968 0.168002 0.168851 0.169537 0.170083 
0.170507 0.170831 0.171069 0.171236 0.171341 0.171392 0.171392 0.171341 0.171236 
0.171069 0.170831 0.170507 0.170083 0.169537 0.168851 0.168002 0.166968 0.165727 
0.164259 0.162546 0.160574 0.160653 0.162621 0.164326 0.165783 0.16701 0.168027 
0.168859 0.169527 0.170055 0.170465 0.170774 0.171001 0.171159 0.171259 0.171307 
0.171307 0.171259 0.171159 0.171001 0.170774 0.170465 0.170055 0.169527 0.168859 
0.168027 0.16701 0.165783 0.164326 0.162621 0.160653 0.160741 0.162705 0.164401 
0.165845 0.167056 0.168055 0.168867 0.169516 0.170026 0.170418 0.170712 0.170927 
0.171075 0.171168 0.171213 0.171213 0.171168 0.171075 0.170927 0.170712 0.170418 
0.170026 0.169516 0.168867 0.168055 0.167056 0.165845 0.164401 0.162705 0.160741 
0.160838 0.162798 0.164485 0.165914 0.167106 0.168086 0.168876 0.169503 0.169992 
0.170366 0.170644 0.170845 0.170984 0.17107 0.171111 0.171111 0.17107 0.170984 
0.170845 0.170644 0.170366 0.169992 0.169503 0.168876 0.168086 0.167106 0.165914 
0.164485 0.162798 0.160838 0.160947 0.162902 0.164577 0.16599 0.167163 0.168119 
0.168885 0.169489 0.169955 0.170308 0.170569 0.170756 0.170883 0.170962 0.171 
0.171 0.170962 0.170883 0.170756 0.170569 0.170308 0.169955 0.169489 0.168885 
0.168119 0.167163 0.16599 0.164577 0.162902 0.160947 0.161069 0.163018 0.16468 
0.166075 0.167224 0.168155 0.168895 0.169472 0.169914 0.170245 0.170486 0.170658 
0.170774 0.170845 0.170878 0.170878 0.170845 0.170774 0.170658 0.170486 0.170245 
0.169914 0.169472 0.168895 0.168155 0.167224 0.166075 0.16468 0.163018 0.161069 
0.161205 0.163148 0.164796 0.166169 0.167293 0.168195 0.168905 0.169453 0.169867 
0.170174 0.170395 0.17055 0.170653 0.170716 0.170746 0.170746 0.170716 0.170653 
0.17055 0.170395 0.170174 0.169867 0.169453 0.168905 0.168195 0.167293 0.166169 
0.164796 0.163148 0.161205 0.161359 0.163294 0.164925 0.166274 0.167368 0.168237 
0.168914 0.16943 0.169814 0.170095 0.170294 0.170431 0.170521 0.170575 0.170601 
0.170601 0.170575 0.170521 0.170431 0.170294 0.170095 0.169814 0.16943 0.168914 
0.168237 0.167368 0.166274 0.164925 0.163294 0.161359 0.161533 0.163459 0.16507 
0.166391 0.167451 0.168284 0.168922 0.169402 0.169754 0.170006 0.170181 0.1703 
0.170376 0.170422 0.170443 0.170443 0.170422 0.170376 0.1703 0.170181 0.170006 
0.169754 0.169402 0.168922 0.168284 0.167451 0.166391 0.16507 0.163459 0.161533 
0.161732 0.163646 0.165234 0.166523 0.167543 0.168333 0.168929 0.169369 0.169684 
0.169905 0.170056 0.170155 0.170217 0.170253 0.17027 0.17027 0.170253 0.170217 
0.170155 0.170056 0.169905 0.169684 0.169369 0.168929 0.168333 0.167543 0.166523 
0.165234 0.163646 0.161732 0.161959 0.16386 0.165421 0.16667 0.167644 0.168384 
0.168932 0.169327 0.169604 0.169792 0.169916 0.169995 0.170043 0.170069 0.170081 
0.170081 0.170069 0.170043 0.169995 0.169916 0.169792 0.169604 0.169327 0.168932 
0.168384 0.167644 0.16667 0.165421 0.16386 0.161959 0.162222 0.164107 0.165633 
0.166835 0.167754 0.168437 0.16893 0.169275 0.169509 0.169663 0.169759 0.169817 
0.169851 0.169868 0.169876 0.169876 0.169868 0.169851 0.169817 0.169759 0.169663 
0.169509 0.169275 0.16893 0.168437 0.167754 0.166835 0.165633 0.164107 0.162222 
0.162529 0.164393 0.165877 0.16702 0.167873 0.16849 0.16892 0.16921 0.169398 
0.169514 0.169583 0.169621 0.16964 0.169649 0.169652 0.169652 0.169649 0.16964 
0.169621 0.169583 0.169514 0.169398 0.16921 0.16892 0.16849 0.167873 0.16702 
0.165877 0.164393 0.162529 0.162892 0.164728 0.166157 0.167227 0.168 0.168538 
0.168897 0.169126 0.169265 0.169344 0.169385 0.169404 0.16941 0.169411 0.16941 
0.16941 0.169411 0.16941 0.169404 0.169385 0.169344 0.169265 0.169126 0.168897 
0.168538 0.168 0.167227 0.166157 0.164728 0.162892 0.163328 0.165126 0.16648 
0.167457 0.16813 0.168574 0.168853 0.169017 0.169106 0.169149 0.169164 0.169164 
0.169159 0.169153 0.16915 0.16915 0.169153 0.169159 0.169164 0.169164 0.169149 
0.169106 0.169017 0.168853 0.168574 0.16813 0.167457 0.16648 0.165126 0.163328 
0.163859 0.165601 0.166853 0.167704 0.168254 0.168589 0.168779 0.168876 0.168916 
0.168925 0.168917 0.168904 0.16889 0.16888 0.168874 0.168874 0.16888 0.16889 
0.168904 0.168917 0.168925 0.168916 0.168876 0.168779 0.168589 0.168254 0.167704 
0.166853 0.165601 0.163859 0.16453 0.166182 0.167279 0.167959 0.168354 0.168563 
0.168659 0.168691 0.168688 0.16867 0.168647 0.168624 0.168605 0.168592 0.168586 
0.168586 0.168592 0.168605 0.168624 0.168647 0.16867 0.168688 0.168691 0.168659 
0.168563 0.168354 0.167959 0.167279 0.166182 0.16453 0.165433 0.166905 0.167743 
0.168179 0.168382 0.168456 0.168465 0.168444 0.168412 0.168379 0.16835 0.168326 
0.168309 0.168297 0.168291 0.168291 0.168297 0.168309 0.168326 0.16835 0.168379 
0.168412 0.168444 0.168465 0.168456 0.168382 0.168179 0.167743 0.166905 0.165433 
0.166543 0.167602 0.16806 0.168231 0.168274 0.168263 0.168234 0.168201 0.168171 
0.168146 0.168127 0.168112 0.168102 0.168096 0.168093 0.168093 0.168096 0.168102 
0.168112 0.168127 0.168146 0.168171 0.168201 0.168234 0.168263 0.168274 0.168231 
0.16806 0.167602 0.166543 0.229471 0.229174 0.229334 0.229432 0.229491 0.229536 
0.229571 0.229599 0.229622 0.22964 0.229655 0.229666 0.229675 0.22968 0.229683 
0.229683 0.22968 0.229675 0.229666 0.229655 0.22964 0.229622 0.229599 0.229571 
0.229536 0.229491 0.229432 0.229334 0.229174 0.229471 0.26821 0.268339 0.268406 
0.268483 0.268538 0.268582 0.268618 0.268648 0.268672 0.268692 0.268708 0.26872 
0.268729 0.268735 0.268737 0.268737 0.268735 0.268729 0.26872 0.268708 0.268692 
0.268672 0.268648 0.268618 0.268582 0.268538 0.268483 0.268406 0.268339 0.26821 
0.250443 0.250513 0.250478 0.250511 0.250547 0.250581 0.250609 0.250633 0.250653 
0.250669 0.250683 0.250693 0.2507 0.250705 0.250707 0.250707 0.250705 0.2507 
0.250693 0.250683 0.250669 0.250653 0.250633 0.250609 0.250581 0.250547 0.250511 
0.250478 0.250513 0.250443 0.2257 0.225893 0.225836 0.225848 0.225871 0.225894 
0.225915 0.225934 0.22595 0.225963 0.225973 0.225981 0.225987 0.225991 0.225993 
0.225993 0.225991 0.225987 0.225981 0.225973 0.225963 0.22595 0.225934 0.225915 
0.225894 0.225871 0.225848 0.225836 0.225893 0.2257 0.20612 0.206416 0.206387 
0.206399 0.206416 0.206434 0.20645 0.206465 0.206477 0.206488 0.206496 0.206503 
0.206507 0.206511 0.206512 0.206512 0.206511 0.206507 0.206503 0.206496 0.206488 
0.206477 0.206465 0.20645 0.206434 0.206416 0.206399 0.206387 0.206416 0.20612 
0.189663 0.19013 0.190145 0.190162 0.190178 0.190192 0.190205 0.190217 0.190227 
0.190236 0.190243 0.190248 0.190252 0.190254 0.190255 0.190255 0.190254 0.190252 
0.190248 0.190243 0.190236 0.190227 0.190217 0.190205 0.190192 0.190178 0.190162 
0.190145 0.19013 0.189663 0.167827 0.168606 0.16865 0.168664 0.168677 0.168689 
0.1687 0.16871 0.168719 0.168726 0.168731 0.168735 0.168738 0.16874 0.168741 
0.168741 0.16874 0.168738 0.168735 0.168731 0.168726 0.168719 0.16871 0.1687 
0.168689 0.168677 0.168664 0.16865 0.168606 0.167827 0.139112 0.139744 0.139741 
0.139749 0.139764 0.139779 0.139792 0.139804 0.139813 0.13982 0.139826 0.139831 
0.139834 0.139836 0.139837 0.139837 0.139836 0.139834 0.139831 0.139826 0.13982 
0.139813 0.139804 0.139792 0.139779 0.139764 0.139749 0.139741 0.139744 0.139112 
0.354798 0.360314 0.365261 0.369677 0.373595 0.377047 0.380063 0.38267 0.384893 
0.386756 0.388276 0.389472 0.390357 0.390941 0.391231 0.391231 0.390941 0.390357 
0.389472 0.388276 0.386756 0.384893 0.38267 0.380063 0.377047 0.373595 0.369677 
0.365261 0.360314 0.354798 0.35464 0.360151 0.365092 0.369498 0.373405 0.376845 
0.379847 0.38244 0.384649 0.386498 0.388007 0.389193 0.390069 0.390648 0.390935 
0.390935 0.390648 0.390069 0.389193 0.388007 0.386498 0.384649 0.38244 0.379847 
0.376845 0.373405 0.369498 0.365092 0.360151 0.35464 0.354611 0.360119 0.365055 
0.369454 0.373351 0.37678 0.379771 0.382352 0.38455 0.386387 0.387886 0.389062 
0.389932 0.390505 0.39079 0.39079 0.390505 0.389932 0.389062 0.387886 0.386387 
0.38455 0.382352 0.379771 0.37678 0.373351 0.369454 0.365055 0.360119 0.354611 
0.354558 0.360062 0.364991 0.369381 0.373267 0.376684 0.379661 0.382228 0.384412 
0.386236 0.387722 0.388889 0.38975 0.390318 0.3906 0.3906 0.390318 0.38975 
0.388889 0.387722 0.386236 0.384412 0.382228 0.379661 0.376684 0.373267 0.369381 
0.364991 0.360062 0.354558 0.35452 0.36002 0.364942 0.369323 0.373198 0.376601 
0.379565 0.382117 0.384286 0.386096 0.38757 0.388725 0.389578 0.39014 0.390419 
0.390419 0.39014 0.389578 0.388725 0.38757 0.386096 0.384286 0.382117 0.379565 
0.376601 0.373198 0.369323 0.364942 0.36002 0.35452 0.354486 0.359982 0.364896 
0.369268 0.373131 0.376521 0.379469 0.382006 0.384159 0.385955 0.387415 0.388559 
0.389403 0.389959 0.390235 0.390235 0.389959 0.389403 0.388559 0.387415 0.385955 
0.384159 0.382006 0.379469 0.376521 0.373131 0.369268 0.364896 0.359982 0.354486 
0.354458 0.35995 0.364857 0.369219 0.37307 0.376445 0.379377 0.381898 0.384035 
0.385816 0.387262 0.388394 0.389228 0.389777 0.390049 0.390049 0.389777 0.389228 
0.388394 0.387262 0.385816 0.384035 0.381898 0.379377 0.376445 0.37307 0.369219 
0.364857 0.35995 0.354458 0.354437 0.359924 0.364824 0.369174 0.373012 0.376373 
0.379289 0.381793 0.383913 0.385677 0.387108 0.388228 0.389052 0.389594 0.389863 
0.389863 0.389594 0.389052 0.388228 0.387108 0.385677 0.383913 0.381793 0.379289 
0.376373 0.373012 0.369174 0.364824 0.359924 0.354437 0.354421 0.359903 0.364796 
0.369136 0.37296 0.376305 0.379204 0.38169 0.383792 0.385539 0.386955 0.388061 
0.388875 0.38941 0.389675 0.389675 0.38941 0.388875 0.388061 0.386955 0.385539 
0.383792 0.38169 0.379204 0.376305 0.37296 0.369136 0.364796 0.359903 0.354421 
0.354411 0.359889 0.364773 0.369102 0.372912 0.376241 0.379122 0.381589 0.383673 
0.385402 0.386802 0.387895 0.388698 0.389225 0.389487 0.389487 0.389225 0.388698 
0.387895 0.386802 0.385402 0.383673 0.381589 0.379122 0.376241 0.372912 0.369102 
0.364773 0.359889 0.354411 0.354406 0.35988 0.364756 0.369073 0.372869 0.37618 
0.379043 0.381491 0.383556 0.385266 0.38665 0.387728 0.388519 0.389039 0.389296 
0.389296 0.389039 0.388519 0.387728 0.38665 0.385266 0.383556 0.381491 0.379043 
0.37618 0.372869 0.369073 0.364756 0.35988 0.354406 0.354408 0.359877 0.364745 
0.369049 0.37283 0.376124 0.378967 0.381395 0.383439 0.385131 0.386497 0.38756 
0.38834 0.388851 0.389105 0.389105 0.388851 0.38834 0.38756 0.386497 0.385131 
0.383439 0.381395 0.378967 0.376124 0.37283 0.369049 0.364745 0.359877 0.354408 
0.354415 0.35988 0.364738 0.369031 0.372795 0.376071 0.378894 0.381301 0.383325 
0.384996 0.386344 0.387392 0.388159 0.388663 0.388911 0.388911 0.388663 0.388159 
0.387392 0.386344 0.384996 0.383325 0.381301 0.378894 0.376071 0.372795 0.369031 
0.364738 0.35988 0.354415 0.354428 0.359888 0.364738 0.369017 0.372765 0.376022 
0.378824 0.381209 0.383211 0.384862 0.386191 0.387223 0.387978 0.388472 0.388717 
0.388717 0.388472 0.387978 0.387223 0.386191 0.384862 0.383211 0.381209 0.378824 
0.376022 0.372765 0.369017 0.364738 0.359888 0.354428 0.354447 0.359902 0.364742 
0.369008 0.372739 0.375976 0.378757 0.381119 0.383099 0.384729 0.386038 0.387053 
0.387795 0.38828 0.38852 0.38852 0.38828 0.387795 0.387053 0.386038 0.384729 
0.383099 0.381119 0.378757 0.375976 0.372739 0.369008 0.364742 0.359902 0.354447 
0.354472 0.359922 0.364752 0.369004 0.372718 0.375934 0.378693 0.381032 0.382988 
0.384596 0.385885 0.386883 0.387611 0.388087 0.388322 0.388322 0.388087 0.387611 
0.386883 0.385885 0.384596 0.382988 0.381032 0.378693 0.375934 0.372718 0.369004 
0.364752 0.359922 0.354472 0.354503 0.359947 0.364768 0.369005 0.372701 0.375896 
0.378631 0.380946 0.382878 0.384463 0.385732 0.386711 0.387426 0.387892 0.388122 
0.388122 0.387892 0.387426 0.386711 0.385732 0.384463 0.382878 0.380946 0.378631 