# vtk DataFile Version 5.1
vtk output
ASCII
DATASET UNSTRUCTURED_GRID
POINTS 10043 double
-10.1 1.4499999993 0 -10.049999999 1.4499999993 0 -10.049999999 1.5 0 
-9.9999999985 1.4499999993 0 -9.9999999985 1.5 0 -9.9499999978 1.4499999993 0 
-9.9499999978 1.5 0 -9.899999997 1.4499999993 0 -9.899999997 1.5 0 
-9.8499999963 1.4499999993 0 -9.8499999963 1.5 0 -9.7999999955 1.4499999993 0 
-9.7999999955 1.5 0 -9.7499999948 1.4499999993 0 -9.7499999948 1.5 0 
-9.699999994 1.4499999993 0 -9.699999994 1.5 0 -9.6499999933 1.4499999993 0 
-9.6499999933 1.5 0 -9.5999999925 1.4499999993 0 -9.5999999925 1.5 0 
-9.5499999918 1.4499999993 0 -9.5499999918 1.5 0 -9.4999999911 1.4499999993 0 
-9.4999999911 1.5 0 -9.4499999903 1.4499999993 0 -9.4499999903 1.5 0 
-9.3999999896 1.4499999993 0 -9.3999999896 1.5 0 -9.3499999888 1.4499999993 0 
-9.3499999888 1.5 0 -9.2999999881 1.4499999993 0 -9.2999999881 1.5 0 
-9.2499999873 1.4499999993 0 -9.2499999873 1.5 0 -9.1999999866 1.4499999993 0 
-9.1999999866 1.5 0 -9.1499999858 1.4499999993 0 -9.1499999858 1.5 0 
-9.0999999851 1.4499999993 0 -9.0999999851 1.5 0 -9.0499999844 1.4499999993 0 
-9.0499999844 1.5 0 -8.9999999836 1.4499999993 0 -8.9999999836 1.5 0 
-8.9499999829 1.4499999993 0 -8.9499999829 1.5 0 -8.8999999821 1.4499999993 0 
-8.8999999821 1.5 0 -8.8499999814 1.4499999993 0 -8.8499999814 1.5 0 
-8.7999999806 1.4499999993 0 -8.7999999806 1.5 0 -8.7499999799 1.4499999993 0 
-8.7499999799 1.5 0 -8.6999999791 1.4499999993 0 -8.6999999791 1.5 0 
-8.6499999784 1.4499999993 0 -8.6499999784 1.5 0 -8.5999999776 1.4499999993 0 
-8.5999999776 1.5 0 -8.5499999769 1.4499999993 0 -8.5499999769 1.5 0 
-8.4999999762 1.4499999993 0 -8.4999999762 1.5 0 -8.4499999754 1.4499999993 0 
-8.4499999754 1.5 0 -8.3999999747 1.4499999993 0 -8.3999999747 1.5 0 
-8.3499999739 1.4499999993 0 -8.3499999739 1.5 0 -8.2999999732 1.4499999993 0 
-8.2999999732 1.5 0 -8.2499999724 1.4499999993 0 -8.2499999724 1.5 0 
-8.1999999717 1.4499999993 0 -8.1999999717 1.5 0 -8.1499999709 1.4499999993 0 
-8.1499999709 1.5 0 -8.0999999702 1.4499999993 0 -8.0999999702 1.5 0 
-8.0499999695 1.4499999993 0 -8.0499999695 1.5 0 -7.9999999687 1.4499999993 0 
-7.9999999687 1.5 0 -7.949999968 1.4499999993 0 -7.949999968 1.5 0 
-7.8999999672 1.4499999993 0 -7.8999999672 1.5 0 -7.8499999665 1.4499999993 0 
-7.8499999665 1.5 0 -7.7999999657 1.4499999993 0 -7.7999999657 1.5 0 
-7.749999965 1.4499999993 0 -7.749999965 1.5 0 -7.6999999642 1.4499999993 0 
-7.6999999642 1.5 0 -7.6499999635 1.4499999993 0 -7.6499999635 1.5 0 
-7.5999999627 1.4499999993 0 -7.5999999627 1.5 0 -7.549999962 1.4499999993 0 
-7.549999962 1.5 0 -7.4999999613 1.4499999993 0 -7.4999999613 1.5 0 
-7.4499999605 1.4499999993 0 -7.4499999605 1.5 0 -7.3999999598 1.4499999993 0 
-7.3999999598 1.5 0 -7.349999959 1.4499999993 0 -7.349999959 1.5 0 
-7.2999999583 1.4499999993 0 -7.2999999583 1.5 0 -7.2499999575 1.4499999993 0 
-7.2499999575 1.5 0 -7.1999999568 1.4499999993 0 -7.1999999568 1.5 0 
-7.149999956 1.4499999993 0 -7.149999956 1.5 0 -7.0999999553 1.4499999993 0 
-7.0999999553 1.5 0 -7.0499999546 1.4499999993 0 -7.0499999546 1.5 0 
-6.9999999538 1.4499999993 0 -6.9999999538 1.5 0 -6.9499999531 1.4499999993 0 
-6.9499999531 1.5 0 -6.8999999523 1.4499999993 0 -6.8999999523 1.5 0 
-6.8499999516 1.4499999993 0 -6.8499999516 1.5 0 -6.7999999508 1.4499999993 0 
-6.7999999508 1.5 0 -6.7499999501 1.4499999993 0 -6.7499999501 1.5 0 
-6.6999999493 1.4499999993 0 -6.6999999493 1.5 0 -6.6499999486 1.4499999993 0 
-6.6499999486 1.5 0 -6.5999999478 1.4499999993 0 -6.5999999478 1.5 0 
-6.5499999471 1.4499999993 0 -6.5499999471 1.5 0 -6.4999999464 1.4499999993 0 
-6.4999999464 1.5 0 -6.4499999456 1.4499999993 0 -6.4499999456 1.5 0 
-6.3999999449 1.4499999993 0 -6.3999999449 1.5 0 -6.3499999441 1.4499999993 0 
-6.3499999441 1.5 0 -6.2999999434 1.4499999993 0 -6.2999999434 1.5 0 
-6.2499999426 1.4499999993 0 -6.2499999426 1.5 0 -6.1999999419 1.4499999993 0 
-6.1999999419 1.5 0 -6.1499999411 1.4499999993 0 -6.1499999411 1.5 0 
-6.0999999404 1.4499999993 0 -6.0999999404 1.5 0 -6.0499999397 1.4499999993 0 
-6.0499999397 1.5 0 -5.9999999389 1.4499999993 0 -5.9999999389 1.5 0 
-5.9499999382 1.4499999993 0 -5.9499999382 1.5 0 -5.8999999374 1.4499999993 0 
-5.8999999374 1.5 0 -5.8499999367 1.4499999993 0 -5.8499999367 1.5 0 
-5.7999999359 1.4499999993 0 -5.7999999359 1.5 0 -5.7499999352 1.4499999993 0 
-5.7499999352 1.5 0 -5.6999999344 1.4499999993 0 -5.6999999344 1.5 0 
-5.6499999337 1.4499999993 0 -5.6499999337 1.5 0 -5.5999999329 1.4499999993 0 
-5.5999999329 1.5 0 -5.5499999322 1.4499999993 0 -5.5499999322 1.5 0 
-5.4999999315 1.4499999993 0 -5.4999999315 1.5 0 -5.4499999307 1.4499999993 0 
-5.4499999307 1.5 0 -5.39999993 1.4499999993 0 -5.39999993 1.5 0 
-5.3499999292 1.4499999993 0 -5.3499999292 1.5 0 -5.2999999285 1.4499999993 0 
-5.2999999285 1.5 0 -5.2499999277 1.4499999993 0 -5.2499999277 1.5 0 
-5.199999927 1.4499999993 0 -5.199999927 1.5 0 -5.1499999262 1.4499999993 0 
-5.1499999262 1.5 0 -5.0999999255 1.4499999993 0 -5.0999999255 1.5 0 
-5.0499999247 1.4499999993 0 -5.0499999247 1.5 0 -4.999999924 1.4499999993 0 
-4.999999924 1.5 0 -4.9499999233 1.4499999993 0 -4.9499999233 1.5 0 
-4.8999999225 1.4499999993 0 -4.8999999225 1.5 0 -4.8499999218 1.4499999993 0 
-4.8499999218 1.5 0 -4.799999921 1.4499999993 0 -4.799999921 1.5 0 
-4.7499999203 1.4499999993 0 -4.7499999203 1.5 0 -4.6999999195 1.4499999993 0 
-4.6999999195 1.5 0 -4.6499999188 1.4499999993 0 -4.6499999188 1.5 0 
-4.599999918 1.4499999993 0 -4.599999918 1.5 0 -4.5499999173 1.4499999993 0 
-4.5499999173 1.5 0 -4.4999999166 1.4499999993 0 -4.4999999166 1.5 0 
-4.4499999158 1.4499999993 0 -4.4499999158 1.5 0 -4.3999999151 1.4499999993 0 
-4.3999999151 1.5 0 -4.3499999143 1.4499999993 0 -4.3499999143 1.5 0 
-4.2999999136 1.4499999993 0 -4.2999999136 1.5 0 -4.2499999128 1.4499999993 0 
-4.2499999128 1.5 0 -4.1999999121 1.4499999993 0 -4.1999999121 1.5 0 
-4.1499999113 1.4499999993 0 -4.1499999113 1.5 0 -4.0999999106 1.4499999993 0 
-4.0999999106 1.5 0 -4.0499999098 1.4499999993 0 -4.0499999098 1.5 0 
-3.9999999091 1.4499999993 0 -3.9999999091 1.5 0 -3.9499999084 1.4499999993 0 
-3.9499999084 1.5 0 -3.8999999076 1.4499999993 0 -3.8999999076 1.5 0 
-3.8499999069 1.4499999993 0 -3.8499999069 1.5 0 -3.7999999061 1.4499999993 0 
-3.7999999061 1.5 0 -3.7499999054 1.4499999993 0 -3.7499999054 1.5 0 
-3.6999999046 1.4499999993 0 -3.6999999046 1.5 0 -3.6499999039 1.4499999993 0 
-3.6499999039 1.5 0 -3.5999999031 1.4499999993 0 -3.5999999031 1.5 0 
-3.5499999024 1.4499999993 0 -3.5499999024 1.5 0 -3.4999999017 1.4499999993 0 
-3.4999999017 1.5 0 -3.4499999009 1.4499999993 0 -3.4499999009 1.5 0 
-3.3999999002 1.4499999993 0 -3.3999999002 1.5 0 -3.3499998994 1.4499999993 0 
-3.3499998994 1.5 0 -3.2999998987 1.4499999993 0 -3.2999998987 1.5 0 
-3.2499998979 1.4499999993 0 -3.2499998979 1.5 0 -3.1999998972 1.4499999993 0 
-3.1999998972 1.5 0 -3.1499998964 1.4499999993 0 -3.1499998964 1.5 0 
-3.0999998957 1.4499999993 0 -3.0999998957 1.5 0 -3.0499998949 1.4499999993 0 
-3.0499998949 1.5 0 -2.9999998942 1.4499999993 0 -2.9999998942 1.5 0 
-2.9499998935 1.4499999993 0 -2.9499998935 1.5 0 -2.8999998927 1.4499999993 0 
-2.8999998927 1.5 0 -2.849999892 1.4499999993 0 -2.849999892 1.5 0 
-2.7999998912 1.4499999993 0 -2.7999998912 1.5 0 -2.7499998905 1.4499999993 0 
-2.7499998905 1.5 0 -2.6999998897 1.4499999993 0 -2.6999998897 1.5 0 
-2.649999889 1.4499999993 0 -2.649999889 1.5 0 -2.5999998882 1.4499999993 0 
-2.5999998882 1.5 0 -2.5499998875 1.4499999993 0 -2.5499998875 1.5 0 
-2.4999998868 1.4499999993 0 -2.4999998868 1.5 0 -2.449999886 1.4499999993 0 
-2.449999886 1.5 0 -2.3999998853 1.4499999993 0 -2.3999998853 1.5 0 
-2.3499998845 1.4499999993 0 -2.3499998845 1.5 0 -2.2999998838 1.4499999993 0 
-2.2999998838 1.5 0 -2.249999883 1.4499999993 0 -2.249999883 1.5 0 
-2.1999998823 1.4499999993 0 -2.1999998823 1.5 0 -2.1499998815 1.4499999993 0 
-2.1499998815 1.5 0 -2.0999998808 1.4499999993 0 -2.0999998808 1.5 0 
-2.04999988 1.4499999993 0 -2.04999988 1.5 0 -1.9999998793 1.4499999993 0 
-1.9999998793 1.5 0 -1.9499998786 1.4499999993 0 -1.9499998786 1.5 0 
-1.8999998778 1.4499999993 0 -1.8999998778 1.5 0 -1.8499998771 1.4499999993 0 
-1.8499998771 1.5 0 -1.7999998763 1.4499999993 0 -1.7999998763 1.5 0 
-1.7499998756 1.4499999993 0 -1.7499998756 1.5 0 -1.6999998748 1.4499999993 0 
-1.6999998748 1.5 0 -1.6499998741 1.4499999993 0 -1.6499998741 1.5 0 
-1.5999998733 1.4499999993 0 -1.5999998733 1.5 0 -1.5499998726 1.4499999993 0 
-1.5499998726 1.5 0 -1.4999998718 1.4499999993 0 -1.4999998718 1.5 0 
-1.4499998711 1.4499999993 0 -1.4499998711 1.5 0 -1.3999998704 1.4499999993 0 
-1.3999998704 1.5 0 -1.3499998696 1.4499999993 0 -1.3499998696 1.5 0 
-1.2999998689 1.4499999993 0 -1.2999998689 1.5 0 -1.2499998681 1.4499999993 0 
-1.2499998681 1.5 0 -1.1999998674 1.4499999993 0 -1.1999998674 1.5 0 
-1.1499998666 1.4499999993 0 -1.1499998666 1.5 0 -1.0999998659 1.4499999993 0 
-1.0999998659 1.5 0 -1.0499998651 1.4499999993 0 -1.0499998651 1.5 0 
-0.9999998644 1.4499999993 0 -0.9999998644 1.5 0 -0.94999986365 1.4499999993 0 
-0.94999986365 1.5 0 -0.89999986291 1.4499999993 0 -0.89999986291 1.5 0 
-0.84999986216 1.4499999993 0 -0.84999986216 1.5 0 -0.79999986142 1.4499999993 0 
-0.79999986142 1.5 0 -0.74999986067 1.4499999993 0 -0.74999986067 1.5 0 
-0.69999985993 1.4499999993 0 -0.69999985993 1.5 0 -0.64999985918 1.4499999993 0 
-0.64999985918 1.5 0 -0.59999985844 1.4499999993 0 -0.59999985844 1.5 0 
-0.54999985769 1.4499999993 0 -0.54999985769 1.5 0 -0.49999985695 1.4499999993 0 
-0.49999985695 1.5 0 -0.4499998562 1.4499999993 0 -0.4499998562 1.5 0 
-0.39999985546 1.4499999993 0 -0.39999985546 1.5 0 -0.34999985471 1.4499999993 0 
-0.34999985471 1.5 0 -0.29999985397 1.4499999993 0 -0.29999985397 1.5 0 
-0.24999985322 1.4499999993 0 -0.24999985322 1.5 0 -0.191663057 1.4499999993 0 
-0.17548248559 1.5 0 0.18862900414 1.4499999993 0 0.25000015423 1.4499999993 0 
[...]
CELL_DATA 9510
FIELD FieldData 4
Water_Depth_m 1 9510 float
0.480047 0.480137 0.480225 0.480311 0.480394 0.480476 0.480556 0.480634 0.48071 
0.480784 0.480856 0.480926 0.480994 0.481059 0.481122 0.481182 0.48124 0.481295 
0.481347 0.481396 0.481443 0.481486 0.481527 0.481564 0.481598 0.481629 0.481657 
0.481682 0.481703 0.48172 0.481734 0.481743 0.481748 0.481748 0.481743 0.481731 
0.481714 0.481689 0.481657 0.481617 0.48157 0.481514 0.481451 0.48138 0.481303 
0.48122 0.481133 0.481043 0.480951 0.48086 0.48077 0.480683 0.4806 0.480523 
0.480451 0.480386 0.480328 0.480278 0.480235 0.4802 0.480173 0.480154 0.480144 
0.480141 0.480147 0.48016 0.480181 0.48021 0.480245 0.480287 0.480334 0.480387 
0.480444 0.480505 0.48057 0.480636 0.480705 0.480774 0.480843 0.480912 0.480979 
0.481044 0.481107 0.481165 0.48122 0.481271 0.481316 0.481356 0.48139 0.481418 
0.481439 0.481454 0.481461 0.481462 0.481455 0.48144 0.481419 0.481391 0.481356 
0.481315 0.481268 0.481218 0.481163 0.481107 0.481049 0.480992 0.480936 0.480884 
0.480836 0.480794 0.480758 0.48073 0.48071 0.480698 0.480695 0.480701 0.480714 
0.480734 0.48076 0.480792 0.480827 0.480865 0.480904 0.480944 0.480983 0.48102 
0.481056 0.481088 0.481119 0.481146 0.481172 0.481197 0.481221 0.481245 0.481271 
0.4813 0.481331 0.481367 0.481406 0.481449 0.481496 0.481547 0.4816 0.481655 
0.48171 0.481766 0.481821 0.481874 0.481926 0.481975 0.482021 0.482066 0.482107 
0.482146 0.482182 0.482217 0.482249 0.482279 0.482308 0.482335 0.482361 0.482386 
0.48241 0.482433 0.482455 0.482476 0.482497 0.482516 0.482534 0.482552 0.482567 
0.482582 0.482596 0.482609 0.482621 0.482633 0.482646 0.482659 0.482673 0.48269 
0.482709 0.482733 0.482762 0.482797 0.48284 0.482891 0.482952 0.483025 0.48311 
0.483208 0.483322 0.483451 0.483597 0.48376 0.48394 0.484137 0.484351 0.484612 
0.486831 0.487081 0.487289 0.487482 0.487659 0.487821 0.487968 0.488101 0.488221 
0.488329 0.488427 0.488515 0.488594 0.488665 0.488729 0.488787 0.48884 0.488887 
0.488931 0.48897 0.489006 0.489039 0.489068 0.489096 0.489121 0.489144 0.489166 
0.489186 0.489204 0.489221 0.489237 0.489252 0.489266 0.48928 0.489292 0.489304 
0.489315 0.489325 0.489335 0.489345 0.489354 0.489363 0.489371 0.489379 0.489387 
0.489394 0.489401 0.489408 0.489415 0.489421 0.489427 0.489433 0.489439 0.489445 
0.489451 0.489456 0.489461 0.489467 0.489472 0.489477 0.489482 0.489486 0.489491 
0.489495 0.4895 0.489504 0.489508 0.489513 0.489517 0.489521 0.489524 0.489528 
0.489532 0.489536 0.489539 0.489543 0.489546 0.489549 0.489552 0.489556 0.489559 
0.489562 0.489565 0.489568 0.48957 0.489573 0.489576 0.489578 0.489581 0.489583 
0.489585 0.489588 0.48959 0.489592 0.489594 0.489596 0.48536 0.480047 0.480137 
0.480224 0.48031 0.480393 0.480475 0.480555 0.480633 0.480709 0.480784 0.480856 
0.480926 0.480994 0.48106 0.481123 0.481183 0.481241 0.481297 0.481349 0.481398 
0.481445 0.481489 0.481529 0.481567 0.481601 0.481632 0.48166 0.481685 0.481706 
0.481724 0.481737 0.481747 0.481752 0.481751 0.481746 0.481734 0.481716 0.481692 
0.481659 0.481619 0.481571 0.481515 0.481451 0.481379 0.481301 0.481217 0.481129 
0.481038 0.480946 0.480854 0.480763 0.480676 0.480593 0.480515 0.480443 0.480378 
0.48032 0.480269 0.480227 0.480192 0.480165 0.480146 0.480136 0.480133 0.480139 
0.480153 0.480174 0.480202 0.480238 0.48028 0.480327 0.480381 0.480438 0.4805 
0.480565 0.480633 0.480702 0.480772 0.480842 0.480912 0.48098 0.481046 0.481109 
0.481168 0.481224 0.481275 0.481321 0.481362 0.481396 0.481424 0.481446 0.481461 
0.481468 0.481468 0.481461 0.481446 0.481425 0.481395 0.48136 0.481318 0.48127 
0.481218 0.481163 0.481105 0.481046 0.480987 0.480931 0.480877 0.480829 0.480786 
0.48075 0.480721 0.480701 0.48069 0.480687 0.480693 0.480707 0.480728 0.480755 
0.480788 0.480824 0.480864 0.480904 0.480945 0.480984 0.481022 0.481058 0.481091 
0.481121 0.481148 0.481173 0.481197 0.48122 0.481244 0.481269 0.481296 0.481327 
0.481362 0.481402 0.481445 0.481493 0.481544 0.481598 0.481654 0.48171 0.481766 
0.481822 0.481876 0.481927 0.481977 0.482024 0.482068 0.482109 0.482148 0.482184 
0.482218 0.48225 0.48228 0.482309 0.482336 0.482362 0.482387 0.482411 0.482434 
0.482456 0.482477 0.482497 0.482517 0.482535 0.482552 0.482568 0.482583 0.482597 
0.48261 0.482622 0.482633 0.482645 0.482657 0.482671 0.482687 0.482705 0.482728 
0.482756 0.48279 0.482831 0.482881 0.482941 0.483012 0.483096 0.483193 0.483305 
0.483433 0.483578 0.483739 0.483918 0.484115 0.48433 0.484592 0.486832 0.487084 
0.487293 0.487488 0.487665 0.487828 0.487975 0.488108 0.488228 0.488336 0.488433 
0.48852 0.488599 0.48867 0.488734 0.488792 0.488844 0.488891 0.488934 0.488973 
0.489008 0.489041 0.489071 0.489098 0.489123 0.489146 0.489167 0.489187 0.489205 
0.489222 0.489238 0.489253 0.489267 0.48928 0.489293 0.489304 0.489315 0.489326 
0.489336 0.489345 0.489354 0.489363 0.489371 0.489379 0.489387 0.489394 0.489401 
0.489408 0.489415 0.489421 0.489427 0.489434 0.489439 0.489445 0.489451 0.489456 
0.489462 0.489467 0.489472 0.489477 0.489482 0.489486 0.489491 0.489495 0.4895 
0.489504 0.489508 0.489513 0.489517 0.489521 0.489524 0.489528 0.489532 0.489536 
0.489539 0.489543 0.489546 0.489549 0.489553 0.489556 0.489559 0.489562 0.489565 
0.489568 0.48957 0.489573 0.489576 0.489578 0.489581 0.489583 0.489585 0.489588 
0.48959 0.489592 0.489594 0.489596 0.48536 0.480046 0.480136 0.480223 0.480308 
0.480392 0.480473 0.480553 0.480631 0.480708 0.480782 0.480855 0.480926 0.480994 
0.48106 0.481124 0.481185 0.481244 0.481299 0.481352 0.481402 0.481449 0.481493 
0.481534 0.481572 0.481607 0.481639 0.481667 0.481692 0.481713 0.481731 0.481744 
0.481754 0.481758 0.481758 0.481752 0.481741 0.481722 0.481697 0.481664 0.481623 
0.481573 0.481516 0.48145 0.481377 0.481297 0.481211 0.481121 0.481029 0.480935 
0.480841 0.48075 0.480661 0.480578 0.480499 0.480427 0.480362 0.480304 0.480253 
0.480211 0.480176 0.480149 0.48013 0.48012 0.480117 0.480123 0.480137 0.480158 
0.480187 0.480223 0.480266 0.480314 0.480368 0.480427 0.48049 0.480556 0.480625 
0.480696 0.480768 0.480839 0.480911 0.48098 0.481048 0.481113 0.481174 0.481231 
0.481284 0.481331 0.481373 0.481408 0.481437 0.481459 0.481474 0.481482 0.481482 
0.481474 0.481459 0.481436 0.481405 0.481368 0.481324 0.481274 0.48122 0.481162 
0.481101 0.48104 0.480979 0.48092 0.480865 0.480814 0.48077 0.480733 0.480704 
0.480683 0.480672 0.48067 0.480677 0.480692 0.480715 0.480745 0.48078 0.480819 
0.48086 0.480903 0.480946 0.480987 0.481027 0.481063 0.481096 0.481126 0.481152 
0.481176 0.481198 0.481219 0.48124 0.481264 0.48129 0.48132 0.481354 0.481393 
0.481437 0.481486 0.481539 0.481594 0.481651 0.481709 0.481767 0.481824 0.481879 
0.481931 0.481981 0.482028 0.482072 0.482114 0.482152 0.482188 0.482222 0.482253 
0.482283 0.482311 0.482338 0.482364 0.482388 0.482412 0.482435 0.482457 0.482478 
0.482499 0.482519 0.482537 0.482554 0.48257 0.482585 0.482599 0.482611 0.482622 
0.482633 0.482644 0.482655 0.482667 0.482681 0.482698 0.482718 0.482744 0.482776 
0.482814 0.482862 0.482919 0.482987 0.483068 0.483162 0.483272 0.483397 0.483539 
0.483698 0.483876 0.484071 0.484286 0.484548 0.486832 0.487089 0.487302 0.487499 
0.487679 0.487842 0.487989 0.488122 0.488242 0.488349 0.488446 0.488532 0.48861 
0.48868 0.488743 0.4888 0.488851 0.488898 0.48894 0.488979 0.489013 0.489045 
0.489075 0.489102 0.489126 0.489149 0.48917 0.48919 0.489208 0.489224 0.48924 
0.489255 0.489269 0.489282 0.489294 0.489305 0.489316 0.489327 0.489336 0.489346 
0.489355 0.489363 0.489372 0.48938 0.489387 0.489395 0.489402 0.489408 0.489415 
0.489421 0.489428 0.489434 0.48944 0.489445 0.489451 0.489456 0.489462 0.489467 
0.489472 0.489477 0.489482 0.489486 0.489491 0.489495 0.4895 0.489504 0.489508 
0.489513 0.489517 0.489521 0.489524 0.489528 0.489532 0.489536 0.489539 0.489543 
0.489546 0.489549 0.489553 0.489556 0.489559 0.489562 0.489565 0.489568 0.48957 
0.489573 0.489576 0.489578 0.489581 0.489583 0.489585 0.489588 0.48959 0.489592 
0.489594 0.489596 0.48536 0.480046 0.480134 0.480221 0.480306 0.480389 0.48047 
0.48055 0.480629 0.480705 0.48078 0.480854 0.480925 0.480994 0.481061 0.481126 
0.481188 0.481247 0.481303 0.481357 0.481408 0.481456 0.4815 0.481542 0.481581 
0.481616 0.481648 0.481676 0.481702 0.481723 0.481741 0.481755 0.481764 0.481768 
0.481768 0.481762 0.48175 0.48173 0.481704 0.48167 0.481627 0.481577 0.481517 
0.481449 0.481373 0.481291 0.481202 0.481109 0.481014 0.480918 0.480822 0.480729 
0.480639 0.480555 0.480476 0.480403 0.480338 0.48028 0.480229 0.480187 0.480152 
0.480125 0.480106 0.480096 0.480093 0.480099 0.480113 0.480135 0.480165 0.480201 
0.480245 0.480294 0.48035 0.48041 0.480475 0.480543 0.480614 0.480687 0.480761 
0.480835 0.480909 0.480981 0.481051 0.481119 0.481182 0.481242 0.481297 0.481346 
0.481389 0.481426 0.481457 0.481479 0.481495 0.481502 0.481502 0.481494 0.481477 
0.481452 0.48142 0.48138 0.481333 0.48128 0.481222 0.48116 0.481096 0.481031 
0.480966 0.480904 0.480845 0.480792 0.480745 0.480707 0.480677 0.480656 0.480645 
0.480644 0.480653 0.48067 0.480696 0.480729 0.480768 0.48081 0.480856 0.480902 
0.480948 0.480992 0.481034 0.481071 0.481104 0.481133 0.481158 0.48118 0.481199 
0.481217 0.481235 0.481256 0.481279 0.481307 0.48134 0.48138 0.481425 0.481475 
0.48153 0.481588 0.481648 0.481709 0.481769 0.481827 0.481883 0.481937 0.481988 
0.482035 0.482079 0.48212 0.482159 0.482194 0.482227 0.482258 0.482287 0.482315 
0.482341 0.482366 0.48239 0.482414 0.482437 0.482459 0.482481 0.482501 0.482521 
0.48254 0.482558 0.482574 0.482588 0.482601 0.482613 0.482623 0.482633 0.482642 
0.482651 0.482661 0.482673 0.482687 0.482704 0.482726 0.482754 0.482789 0.482832 
0.482886 0.48295 0.483026 0.483116 0.483221 0.483342 0.48348 0.483636 0.483811 
0.484005 0.484219 0.484482 0.486833 0.487098 0.487316 0.487517 0.487699 0.487863 
0.488011 0.488144 0.488263 0.488369 0.488464 0.48855 0.488626 0.488695 0.488757 
0.488812 0.488863 0.488908 0.488949 0.488987 0.489021 0.489052 0.489081 0.489107 
0.489131 0.489154 0.489174 0.489193 0.489211 0.489227 0.489243 0.489257 0.489271 
0.489284 0.489296 0.489307 0.489318 0.489328 0.489338 0.489347 0.489356 0.489364 
0.489372 0.48938 0.489388 0.489395 0.489402 0.489409 0.489415 0.489422 0.489428 
0.489434 0.48944 0.489446 0.489451 0.489457 0.489462 0.489467 0.489472 0.489477 
0.489482 0.489486 0.489491 0.489496 0.4895 0.489504 0.489509 0.489513 0.489517 
0.489521 0.489524 0.489528 0.489532 0.489536 0.489539 0.489543 0.489546 0.489549 
0.489553 0.489556 0.489559 0.489562 0.489565 0.489568 0.48957 0.489573 0.489576 
0.489578 0.489581 0.489583 0.489585 0.489588 0.48959 0.489592 0.489594 0.489596 
0.48536 0.480045 0.480132 0.480218 0.480302 0.480385 0.480466 0.480546 0.480625 
0.480702 0.480778 0.480852 0.480924 0.480994 0.481062 0.481128 0.481191 0.481251 
0.481309 0.481363 0.481415 0.481464 0.48151 0.481552 0.481591 0.481627 0.48166 
0.481689 0.481714 0.481736 0.481754 0.481768 0.481777 0.481782 0.481781 0.481774 
0.481761 0.481741 0.481713 0.481678 0.481633 0.48158 0.481518 0.481447 0.481368 
0.481281 0.481189 0.481093 0.480994 0.480894 0.480796 0.480701 0.48061 0.480524 
0.480445 0.480372 0.480306 0.480249 0.480198 0.480156 0.480121 0.480094 0.480075 
0.480065 0.480062 0.480068 0.480083 0.480105 0.480135 0.480173 0.480217 0.480268 
0.480325 0.480388 0.480455 0.480525 0.480599 0.480675 0.480752 0.480829 0.480907 
0.480982 0.481056 0.481127 0.481194 0.481256 0.481314 0.481366 0.481412 0.481451 
0.481482 0.481506 0.481522 0.48153 0.481529 0.48152 0.481501 0.481474 0.481439 
0.481396 0.481345 0.481287 0.481224 0.481158 0.481088 0.481018 0.480948 0.480881 
0.480818 0.480761 0.480712 0.480671 0.480639 0.480618 0.480608 0.480608 0.480619 
0.48064 0.48067 0.480707 0.480751 0.480799 0.48085 0.480902 0.480952 0.481 
0.481044 0.481083 0.481117 0.481145 0.481167 0.481186 0.481201 0.481215 0.481228 
0.481244 0.481264 0.481289 0.481321 0.48136 0.481407 0.48146 0.481518 0.48158 
0.481643 0.481708 0.481771 0.481832 0.48189 0.481945 0.481997 0.482045 0.482089 
0.48213 0.482167 0.482202 0.482235 0.482265 0.482293 0.482319 0.482345 0.482369 
0.482393 0.482416 0.482439 0.482461 0.482483 0.482504 0.482525 0.482544 0.482562 
0.482578 0.482593 0.482605 0.482616 0.482625 0.482633 0.48264 0.482647 0.482654 
0.482662 0.482672 0.482685 0.482703 0.482726 0.482756 0.482794 0.482841 0.4829 
0.48297 0.483055 0.483154 0.483269 0.483402 0.483553 0.483723 0.483914 0.484126 
0.484391 0.486834 0.487111 0.487337 0.487542 0.487727 0.487893 0.488041 0.488174 
0.488291 0.488396 0.48849 0.488573 0.488648 0.488715 0.488775 0.488829 0.488878 
0.488922 0.488962 0.488998 0.489031 0.489061 0.489089 0.489115 0.489138 0.48916 
0.48918 0.489198 0.489215 0.489231 0.489246 0.489261 0.489274 0.489286 0.489298 
0.489309 0.48932 0.48933 0.489339 0.489348 0.489357 0.489365 0.489373 0.489381 
0.489389 0.489396 0.489403 0.489409 0.489416 0.489422 0.489428 0.489434 0.48944 
0.489446 0.489451 0.489457 0.489462 0.489467 0.489472 0.489477 0.489482 0.489487 
0.489491 0.489496 0.4895 0.489504 0.489509 0.489513 0.489517 0.489521 0.489525 
0.489528 0.489532 0.489536 0.489539 0.489543 0.489546 0.489549 0.489553 0.489556 
0.489559 0.489562 0.489565 0.489568 0.48957 0.489573 0.489576 0.489578 0.489581 
0.489583 0.489585 0.489588 0.48959 0.489592 0.489594 0.489596 0.48536 0.480044 
0.48013 0.480215 0.480298 0.48038 0.480461 0.480541 0.48062 0.480698 0.480775 
0.48085 0.480923 0.480994 0.481063 0.48113 0.481195 0.481256 0.481315 0.481371 
0.481424 0.481474 0.481521 0.481564 0.481604 0.481641 0.481674 0.481704 0.48173 
0.481752 0.48177 0.481784 0.481793 0.481797 0.481796 0.481789 0.481775 0.481753 
0.481724 0.481687 0.48164 0.481584 0.481518 0.481443 0.48136 0.481269 0.481172 
0.481071 0.480968 0.480864 0.480763 0.480666 0.480573 0.480486 0.480407 0.480334 
0.480269 0.480211 0.480161 0.480118 0.480084 0.480057 0.480038 0.480027 0.480025 
0.480031 0.480046 0.480068 0.480099 0.480138 0.480183 0.480236 0.480295 0.48036 
0.480429 0.480503 0.48058 0.48066 0.480741 0.480822 0.480903 0.480983 0.481061 
0.481136 0.481207 0.481274 0.481335 0.481391 0.481439 0.481481 0.481515 0.48154 
0.481557 0.481565 0.481563 0.481553 0.481532 0.481503 0.481463 0.481416 0.48136 
0.481296 0.481227 0.481154 0.481078 0.481 0.480924 0.480851 0.480783 0.480721 
0.480668 0.480624 0.480591 0.480569 0.480559 0.480562 0.480576 0.4806 0.480635 
0.480679 0.480729 0.480785 0.480843 0.480901 0.480958 0.481011 0.481059 0.4811 
0.481134 0.481161 0.481181 0.481195 0.481204 0.481212 0.481219 0.481228 0.481242 
0.481264 0.481294 0.481333 0.481382 0.481438 0.481501 0.481569 0.481638 0.481708 
0.481775 0.48184 0.4819 0.481957 0.482009 0.482057 0.482101 0.482142 0.482179 
0.482213 0.482244 0.482273 0.4823 0.482325 0.482349 0.482373 0.482396 0.482419 
0.482441 0.482464 0.482486 0.482508 0.482529 0.482549 0.482567 0.482584 0.482599 
0.482611 0.482621 0.482629 0.482635 0.482639 0.482642 0.482645 0.482649 0.482655 
0.482663 0.482675 0.482691 0.482715 0.482746 0.482786 0.482838 0.482901 0.482978 
0.483069 0.483177 0.483302 0.483446 0.48361 0.483796 0.484006 0.48427 0.486838 
0.487129 0.487364 0.487576 0.487764 0.487932 0.48808 0.488211 0.488327 0.48843 
0.488521 0.488602 0.488675 0.488739 0.488797 0.488849 0.488896 0.488939 0.488977 
0.489012 0.489044 0.489073 0.489099 0.489124 0.489146 0.489167 0.489186 0.489204 
0.489221 0.489236 0.489251 0.489264 0.489277 0.489289 0.489301 0.489312 0.489322 
0.489332 0.489341 0.48935 0.489359 0.489367 0.489375 0.489382 0.48939 0.489397 
0.489404 0.48941 0.489417 0.489423 0.489429 0.489435 0.489441 0.489446 0.489452 
0.489457 0.489462 0.489467 0.489472 0.489477 0.489482 0.489487 0.489491 0.489496 
0.4895 0.489505 0.489509 0.489513 0.489517 0.489521 0.489525 0.489528 0.489532 
0.489536 0.489539 0.489543 0.489546 0.489549 0.489553 0.489556 0.489559 0.489562 
0.489565 0.489568 0.48957 0.489573 0.489576 0.489578 0.489581 0.489583 0.489585 
0.489588 0.48959 0.489592 0.489594 0.489596 0.48536 0.480043 0.480127 0.48021 
0.480293 0.480374 0.480455 0.480536 0.480615 0.480694 0.480771 0.480847 0.480922 
0.480994 0.481065 0.481133 0.481199 0.481262 0.481323 0.48138 0.481434 0.481485 
0.481533 0.481578 0.481619 0.481656 0.48169 0.481721 0.481747 0.48177 0.481788 
0.481802 0.481811 0.481815 0.481813 0.481805 0.48179 0.481767 0.481737 0.481697 
0.481647 0.481587 0.481518 0.481438 0.48135 0.481254 0.481151 0.481045 0.480937 
0.48083 0.480726 0.480626 0.480532 0.480444 0.480364 0.480291 0.480226 0.480169 
0.480119 0.480077 0.480042 0.480015 0.479996 0.479985 0.479983 0.479989 0.480003 
0.480026 0.480058 0.480097 0.480144 0.480199 0.48026 0.480327 0.4804 0.480477 
0.480558 0.480641 0.480727 0.480813 0.480899 0.480984 0.481067 0.481147 0.481223 
0.481295 0.48136 0.48142 0.481472 0.481517 0.481553 0.48158 0.481598 0.481606 
0.481605 0.481592 0.48157 0.481537 0.481493 0.48144 0.481377 0.481307 0.48123 
0.481148 0.481064 0.480978 0.480894 0.480813 0.480738 0.480671 0.480613 0.480565 
0.48053 0.480508 0.480499 0.480503 0.480521 0.480551 0.480592 0.480644 0.480703 
0.480768 0.480835 0.480902 0.480967 0.481027 0.481079 0.481123 0.481158 0.481183 
0.481199 0.481208 0.48121 0.481208 0.481206 0.481207 0.481214 0.48123 0.481258 
0.481297 0.481349 0.48141 0.48148 0.481555 0.481632 0.481708 0.481782 0.48185 
0.481914 0.481972 0.482025 0.482073 0.482117 0.482157 0.482193 0.482225 0.482255 
0.482282 0.482308 0.482332 0.482354 0.482377 0.482399 0.482421 0.482444 0.482466 
0.482489 0.482512 0.482534 0.482555 0.482574 0.482592 0.482607 0.482619 0.482628 
0.482634 0.482637 0.482638 0.482638 0.482637 0.482635 0.482635 0.482636 0.482641 
0.482651 0.482666 0.482689 0.482721 0.482763 0.482818 0.482885 0.482967 0.483065 
0.483181 0.483315 0.483471 0.48365 0.483855 0.484116 0.486845 0.487154 0.487401 
0.487619 0.487812 0.48798 0.488128 0.488258 0.488371 0.488471 0.488559 0.488638 
0.488707 0.488769 0.488824 0.488874 0.488918 0.488958 0.488995 0.489028 0.489058 
0.489086 0.489111 0.489134 0.489156 0.489176 0.489194 0.489211 0.489227 0.489242 
0.489256 0.489269 0.489281 0.489293 0.489304 0.489315 0.489325 0.489334 0.489343 
0.489352 0.48936 0.489368 0.489376 0.489384 0.489391 0.489398 0.489405 0.489411 
0.489417 0.489424 0.48943 0.489435 0.489441 0.489447 0.489452 0.489458 0.489463 
0.489468 0.489473 0.489478 0.489482 0.489487 0.489492 0.489496 0.4895 0.489505 
0.489509 0.489513 0.489517 0.489521 0.489525 0.489528 0.489532 0.489536 0.489539 
0.489543 0.489546 0.489549 0.489553 0.489556 0.489559 0.489562 0.489565 0.489568 
0.48957 0.489573 0.489576 0.489578 0.489581 0.489583 0.489585 0.489588 0.48959 
0.489592 0.489594 0.489596 0.48536 0.480042 0.480124 0.480205 0.480287 0.480368 
0.480448 0.480529 0.480609 0.480688 0.480767 0.480844 0.48092 0.480994 0.481066 
0.481136 0.481204 0.481269 0.481331 0.48139 0.481446 0.481498 0.481547 0.481593 
0.481635 0.481674 0.481709 0.481739 0.481766 0.481789 0.481808 0.481822 0.48183 
0.481834 0.481832 0.481823 0.481807 0.481783 0.48175 0.481707 0.481655 0.481591 
0.481517 0.481433 0.481339 0.481237 0.481129 0.481018 0.480905 0.480794 0.480686 
0.480584 0.480489 0.480401 0.48032 0.480248 0.480183 0.480125 0.480075 0.480032 
0.479997 0.47997 0.479951 0.479939 0.479937 0.479942 0.479957 0.47998 0.480012 
0.480052 0.480101 0.480157 0.480221 0.480291 0.480367 0.480448 0.480532 0.480621 
0.480711 0.480802 0.480894 0.480984 0.481073 0.481159 0.481241 0.481318 0.481389 
0.481453 0.48151 0.481559 0.481598 0.481627 0.481646 0.481655 0.481652 0.481639 
0.481613 0.481576 0.481528 0.481468 0.481398 0.481319 0.481232 0.48114 0.481045 
0.480949 0.480855 0.480766 0.480683 0.480608 0.480545 0.480493 0.480456 0.480433 
0.480425 0.480432 0.480454 0.48049 0.48054 0.480601 0.480671 0.480747 0.480827 
0.480905 0.48098 0.481048 0.481107 0.481154 0.481189 0.481213 0.481224 0.481225 
0.481218 0.481204 0.48119 0.481178 0.481175 0.481184 0.481209 0.481249 0.481305 
0.481374 0.481454 0.48154 0.481627 0.481712 0.481792 0.481865 0.481932 0.481992 