# vtk DataFile Version 5.1
vtk output
ASCII
DATASET UNSTRUCTURED_GRID
POINTS 10043 double
-10.1 1.4499999993 2.6138659237e-08 -10.049999999 1.4499999993 6.6014543165e-08 -10.049999999 1.5 -2.6505426831e-07 
-9.9999999985 1.4499999993 8.0297247962e-08 -9.9999999985 1.5 -3.0927753869e-07 -9.9499999978 1.4499999993 8.627990411e-08 
-9.9499999978 1.5 -3.3100718611e-07 -9.899999997 1.4499999993 8.9823295468e-08 -9.899999997 1.5 -3.4393292481e-07 
-9.8499999963 1.4499999993 9.2322586909e-08 -9.8499999963 1.5 -3.5284051592e-07 -9.7999999955 1.4499999993 9.4079730673e-08 
-9.7999999955 1.5 -3.5961261347e-07 -9.7499999948 1.4499999993 9.5433058789e-08 -9.7499999948 1.5 -3.6483129406e-07 
-9.699999994 1.4499999993 9.6613582912e-08 -9.699999994 1.5 -3.6927872316e-07 -9.6499999933 1.4499999993 9.7741356342e-08 
-9.6499999933 1.5 -3.7328049984e-07 -9.5999999925 1.4499999993 9.8614471256e-08 -9.5999999925 1.5 -3.7698396227e-07 
-9.5499999918 1.4499999993 9.9640381279e-08 -9.5499999918 1.5 -3.8041639527e-07 -9.4999999911 1.4499999993 1.0039344289e-07 
-9.4999999911 1.5 -3.836560154e-07 -9.4499999903 1.4499999993 1.0129202366e-07 -9.4499999903 1.5 -3.8700841287e-07 
-9.3999999896 1.4499999993 1.0208146506e-07 -9.3999999896 1.5 -3.9021529119e-07 -9.3499999888 1.4499999993 1.0304007247e-07 
-9.3499999888 1.5 -3.9336759983e-07 -9.2999999881 1.4499999993 1.038422468e-07 -9.2999999881 1.5 -3.966345048e-07 
-9.2499999873 1.4499999993 1.0462623123e-07 -9.2499999873 1.5 -3.9987048694e-07 -9.1999999866 1.4499999993 1.0554663987e-07 
-9.1999999866 1.5 -4.0324107431e-07 -9.1499999858 1.4499999993 1.063651851e-07 -9.1499999858 1.5 -4.0655163502e-07 
-9.0999999851 1.4499999993 1.0732015454e-07 -9.0999999851 1.5 -4.1005500862e-07 -9.0499999844 1.4499999993 1.0828421892e-07 
-9.0499999844 1.5 -4.1352200242e-07 -8.9999999836 1.4499999993 1.0923918836e-07 -8.9999999836 1.5 -4.1713997234e-07 
-8.9499999829 1.4499999993 1.1010684631e-07 -8.9499999829 1.5 -4.2074702833e-07 -8.8999999821 1.4499999993 1.1112729936e-07 
-8.8999999821 1.5 -4.245978289e-07 -8.8499999814 1.4499999993 1.1212592455e-07 -8.8499999814 1.5 -4.2848682824e-07 
-8.7999999806 1.4499999993 1.1316274851e-07 -8.7999999806 1.5 -4.3236491365e-07 -8.7499999799 1.4499999993 1.1425959912e-07 
-8.7499999799 1.5 -4.3647219172e-07 -8.6999999791 1.4499999993 1.1481257189e-07 -8.6999999791 1.5 -4.3858585741e-07 
-8.6499999784 1.4499999993 1.1585667181e-07 -8.6499999784 1.5 -4.4278954192e-07 -8.5999999776 1.4499999993 1.1690986668e-07 
-8.5999999776 1.5 -4.471187367e-07 -8.5499999769 1.4499999993 1.1820862511e-07 -8.5499999769 1.5 -4.5151159611e-07 
-8.4999999762 1.4499999993 1.193964323e-07 -8.4999999762 1.5 -4.5610454436e-07 -8.4499999754 1.4499999993 1.2061333621e-07 
-8.4499999754 1.5 -4.6073023441e-07 -8.3999999747 1.4499999993 1.2186480092e-07 -8.3999999747 1.5 -4.656760666e-07 
-8.3499999739 1.4499999993 1.2313081754e-07 -8.3499999739 1.5 -4.7048365559e-07 -8.2999999732 1.4499999993 1.244604988e-07 
-8.2999999732 1.5 -4.7568414629e-07 -8.2499999724 1.4499999993 1.258502067e-07 -8.2499999724 1.5 -4.8085553317e-07 
-8.1999999717 1.4499999993 1.2720535381e-07 -8.1999999717 1.5 -4.8612150749e-07 -8.1499999709 1.4499999993 1.2857323384e-07 
-8.1499999709 1.5 -4.9158938964e-07 -8.0999999702 1.4499999993 1.300739001e-07 -8.0999999702 1.5 -4.9720824791e-07 
-8.0499999695 1.4499999993 1.3161094614e-07 -8.0499999695 1.5 -5.0285802899e-07 -7.9999999687 1.4499999993 1.3318255299e-07 
-7.9999999687 1.5 -5.0884978009e-07 -7.949999968 1.4499999993 1.3482691941e-07 -7.949999968 1.5 -5.1491974773e-07 
-7.8999999672 1.4499999993 1.3643672503e-07 -7.8999999672 1.5 -5.2121163208e-07 -7.8499999665 1.4499999993 1.3803197874e-07 
-7.8499999665 1.5 -5.2749987844e-07 -7.7999999657 1.4499999993 1.3977820856e-07 -7.7999999657 1.5 -5.3410099099e-07 
-7.749999965 1.4499999993 1.4149715355e-07 -7.749999965 1.5 -5.4085489865e-07 -7.6999999642 1.4499999993 1.4336161769e-07 
-7.6999999642 1.5 -5.4769884628e-07 -7.6499999635 1.4499999993 1.4520516345e-07 -7.6499999635 1.5 -5.5477289607e-07 
-7.5999999627 1.4499999993 1.4719331887e-07 -7.5999999627 1.5 -5.6206522459e-07 -7.549999962 1.4499999993 1.4905232604e-07 
-7.549999962 1.5 -5.6957128436e-07 -7.4999999613 1.4499999993 1.5107595175e-07 -7.4999999613 1.5 -5.7729744185e-07 
-7.4499999605 1.4499999993 1.531277718e-07 -7.4499999605 1.5 -5.8519094637e-07 -7.3999999598 1.4499999993 1.5525417041e-07 
-7.3999999598 1.5 -5.9328908719e-07 -7.349999959 1.4499999993 1.5744787163e-07 -7.349999959 1.5 -6.0162824411e-07 
-7.2999999583 1.4499999993 1.5965794375e-07 -7.2999999583 1.5 -6.1025480136e-07 -7.2499999575 1.4499999993 1.6201171604e-07 
-7.2499999575 1.5 -6.1906143856e-07 -7.1999999568 1.4499999993 1.6434002248e-07 -7.1999999568 1.5 -6.2811091084e-07 
-7.149999956 1.4499999993 1.6681748605e-07 -7.149999956 1.5 -6.3750508161e-07 -7.0999999553 1.4499999993 1.6807531722e-07 
-7.0999999553 1.5 -6.4226355789e-07 -7.0499999546 1.4499999993 1.7064373026e-07 -7.0499999546 1.5 -6.5196968535e-07 
-6.9999999538 1.4499999993 1.7323669965e-07 -6.9999999538 1.5 -6.6201232585e-07 -6.9499999531 1.4499999993 1.7600702051e-07 
-6.9499999531 1.5 -6.7237874646e-07 -6.8999999523 1.4499999993 1.7878825531e-07 -6.8999999523 1.5 -6.8301346801e-07 
-6.8499999516 1.4499999993 1.816404307e-07 -6.8499999516 1.5 -6.9398652158e-07 -6.7999999508 1.4499999993 1.8455263273e-07 
-6.7999999508 1.5 -7.0527698881e-07 -6.7499999501 1.4499999993 1.8767129006e-07 -6.7499999501 1.5 -7.1699946602e-07 
-6.6999999493 1.4499999993 1.9079904234e-07 -6.6999999493 1.5 -7.290020676e-07 -6.6499999486 1.4499999993 1.9405594287e-07 
-6.6499999486 1.5 -7.4147487794e-07 -6.5999999478 1.4499999993 1.9743835367e-07 -6.5999999478 1.5 -7.5430693869e-07 
-6.5499999471 1.4499999993 2.0094081776e-07 -6.5499999471 1.5 -7.6756555245e-07 -6.4999999464 1.4499999993 2.0450603699e-07 
-6.4999999464 1.5 -7.8124708125e-07 -6.4499999456 1.4499999993 2.0816311519e-07 -6.4499999456 1.5 -7.9547066889e-07 
-6.3999999449 1.4499999993 2.1197026001e-07 -6.3999999449 1.5 -8.1009716268e-07 -6.3499999441 1.4499999993 2.1596476074e-07 
-6.3499999441 1.5 -8.2527390077e-07 -6.2999999434 1.4499999993 2.2013024648e-07 -6.2999999434 1.5 -8.4092994257e-07 
-6.2499999426 1.4499999993 2.2435484937e-07 -6.2499999426 1.5 -8.5725082499e-07 -6.1999999419 1.4499999993 2.2883411077e-07 
-6.1999999419 1.5 -8.740901194e-07 -6.1499999411 1.4499999993 2.3331973864e-07 -6.1499999411 1.5 -8.9162517725e-07 
-6.0999999404 1.4499999993 2.3811095673e-07 -6.0999999404 1.5 -9.0984872259e-07 -6.0499999397 1.4499999993 2.4303403734e-07 
-6.0499999397 1.5 -9.2873528956e-07 -5.9999999389 1.4499999993 2.4822179512e-07 -5.9999999389 1.5 -9.4842857834e-07 
-5.9499999382 1.4499999993 2.5354233912e-07 -5.9499999382 1.5 -9.6889493761e-07 -5.8999999374 1.4499999993 2.5916983759e-07 
-5.8999999374 1.5 -9.901652902e-07 -5.8499999367 1.4499999993 2.6498014449e-07 -5.8499999367 1.5 -1.0124638266e-06 
-5.7999999359 1.4499999993 2.7105011213e-07 -5.7999999359 1.5 -1.03564048e-06 -5.7499999352 1.4499999993 2.7738428798e-07 
-5.7499999352 1.5 -1.0599035249e-06 -5.6999999344 1.4499999993 2.8402405405e-07 -5.6999999344 1.5 -1.0852634205e-06 
-5.6499999337 1.4499999993 2.9100806387e-07 -5.6499999337 1.5 -1.1118474958e-06 -5.5999999329 1.4499999993 2.9827310755e-07 
-5.5999999329 1.5 -1.1397453363e-06 -5.5499999322 1.4499999993 3.0205660551e-07 -5.5499999322 1.5 -1.1542072116e-06 
-5.4999999315 1.4499999993 3.0992055144e-07 -5.4999999315 1.5 -1.1842137155e-06 -5.4499999307 1.4499999993 3.1823060453e-07 
-5.4499999307 1.5 -1.2158291156e-06 -5.39999993 1.4499999993 3.2695083974e-07 -5.39999993 1.5 -1.2491166217e-06 
-5.3499999292 1.4499999993 3.3614264794e-07 -5.3499999292 1.5 -1.2843213426e-06 -5.2999999285 1.4499999993 3.4586832953e-07 
-5.2999999285 1.5 -1.3216028947e-06 -5.2499999277 1.4499999993 3.5622156247e-07 -5.2499999277 1.5 -1.3610695078e-06 
-5.199999927 1.4499999993 3.6722826735e-07 -5.199999927 1.5 -1.4030158582e-06 -5.1499999262 1.4499999993 3.7892800719e-07 
-5.1499999262 1.5 -1.4477079731e-06 -5.0999999255 1.4499999993 3.914244644e-07 -5.0999999255 1.5 -1.4955091956e-06 
-5.0499999247 1.4499999993 4.048217761e-07 -5.0499999247 1.5 -1.5466118839e-06 -4.999999924 1.4499999993 4.1919497562e-07 
-4.999999924 1.5 -1.6015203528e-06 -4.9499999233 1.4499999993 4.34664571e-07 -4.9499999233 1.5 -1.6607211819e-06 
-4.8999999225 1.4499999993 4.5147157834e-07 -4.8999999225 1.5 -1.7247409687e-06 -4.8499999218 1.4499999993 4.6965419642e-07 
-4.8499999218 1.5 -1.7942286377e-06 -4.799999921 1.4499999993 4.8950573728e-07 -4.799999921 1.5 -1.870000915e-06 
-4.7499999203 1.4499999993 5.1126585277e-07 -4.7499999203 1.5 -1.9530014015e-06 -4.6999999195 1.4499999993 5.3518874665e-07 
-4.6999999195 1.5 -2.0443742414e-06 -4.6499999188 1.4499999993 5.6169506024e-07 -4.6499999188 1.5 -2.1454877697e-06 
-4.599999918 1.4499999993 5.9126364249e-07 -4.599999918 1.5 -2.2581350549e-06 -4.5499999173 1.4499999993 6.2431195147e-07 
-4.5499999173 1.5 -2.3844183943e-06 -4.4999999166 1.4499999993 6.6170923674e-07 -4.4999999166 1.5 -2.5269894195e-06 
-4.4499999158 1.4499999993 7.0429882726e-07 -4.4499999158 1.5 -2.6892948881e-06 -4.3999999151 1.4499999993 7.5323896453e-07 
-4.3999999151 1.5 -2.8757635846e-06 -4.3499999143 1.4499999993 8.1001803665e-07 -4.3499999143 1.5 -3.0920498375e-06 
-4.2999999136 1.4499999993 8.7668263404e-07 -4.2999999136 1.5 -3.3458152302e-06 -4.2499999128 1.4499999993 9.5592531579e-07 
-4.2499999128 1.5 -3.6471919884e-06 -4.1999999121 1.4499999993 1.0514247606e-06 -4.1999999121 1.5 -4.0101799641e-06 
-4.1499999113 1.4499999993 1.1684455785e-06 -4.1499999113 1.5 -4.4544253797e-06 -4.0999999106 1.4499999993 1.3144558579e-06 
-4.0999999106 1.5 -5.0080766414e-06 -4.0499999098 1.4499999993 1.5006685317e-06 -4.0499999098 1.5 -5.7128677327e-06 
-3.9999999091 1.4499999993 1.7442566786e-06 -3.9999999091 1.5 -6.6327120294e-06 -3.9499999084 1.4499999993 1.8956432086e-06 
[...]
CELL_DATA 9510
FIELD FieldData 4
Water_Depth_m 1 9510 float
0.759971 0.759913 0.759855 0.7598 0.75975 0.759705 0.759668 0.759637 0.759614 
0.7596 0.759593 0.759595 0.759604 0.759621 0.759644 0.759673 0.759707 0.759746 
0.759789 0.759836 0.759887 0.75994 0.759996 0.760054 0.760115 0.760178 0.760242 
0.760308 0.760375 0.760442 0.760511 0.76058 0.760649 0.760717 0.760784 0.76085 
0.760914 0.760977 0.761036 0.761093 0.761146 0.761196 0.761243 0.761285 0.761324 
0.761359 0.761389 0.761415 0.761438 0.761456 0.761472 0.761484 0.761493 0.7615 
0.761505 0.761509 0.761512 0.761516 0.761519 0.761524 0.76153 0.761538 0.761548 
0.761559 0.761572 0.761585 0.761599 0.761613 0.761626 0.761638 0.761647 0.761655 
0.76166 0.761662 0.761661 0.761659 0.761655 0.76165 0.761646 0.761643 0.761643 
0.761648 0.761658 0.761675 0.7617 0.761732 0.761772 0.76182 0.761873 0.76193 
0.761989 0.762048 0.762106 0.76216 0.76221 0.762254 0.762292 0.762323 0.762346 
0.762362 0.762372 0.762374 0.762369 0.762356 0.762336 0.762308 0.76227 0.762223 
0.762164 0.762094 0.762011 0.761915 0.761807 0.761689 0.761563 0.761434 0.761308 
0.76119 0.761087 0.761005 0.760949 0.760925 0.760934 0.760978 0.761057 0.76117 
0.761315 0.761492 0.761702 0.76198 0.762396 0.762441 0.757083 0.743803 0.724365 
0.700445 0.673344 0.644188 0.614029 0.58387 0.555252 0.529032 0.506253 0.488414 
0.477473 0.475758 0.475904 0.476031 0.476143 0.476239 0.476323 0.476396 0.476459 
0.476513 0.47656 0.4766 0.476635 0.476665 0.476692 0.476715 0.476735 0.476753 
0.476769 0.476783 0.476796 0.476806 0.476816 0.476828 0.47684 0.476879 0.476741 
0.475166 0.474623 0.475068 0.474804 0.474075 0.477141 0.482155 0.486656 0.489472 
0.491991 0.494376 0.496757 0.498335 0.498334 0.497151 0.496775 0.498049 0.502173 
0.50397 0.508636 0.51452 0.514772 0.512121 0.501784 0.496575 0.487798 0.48454 
0.486825 0.488256 0.491417 0.49228 0.492373 0.492491 0.49262 0.492612 0.490664 
0.478891 0.478695 0.478614 0.478619 0.478643 0.478673 0.478703 0.478733 0.478761 
0.478788 0.478812 0.478835 0.478856 0.478876 0.478894 0.478911 0.478927 0.478942 
0.478955 0.478968 0.47898 0.478991 0.479002 0.479011 0.479021 0.47903 0.479038 
0.479046 0.479053 0.479061 0.479067 0.479074 0.47908 0.479086 0.479092 0.479098 
0.479103 0.479108 0.479113 0.479118 0.479123 0.479128 0.479132 0.479137 0.479141 
0.479145 0.479149 0.479153 0.479157 0.479161 0.479165 0.479169 0.479172 0.479176 
0.479179 0.479183 0.479186 0.479189 0.479192 0.479195 0.479199 0.479202 0.479205 
0.479207 0.47921 0.479213 0.479216 0.479218 0.479221 0.479224 0.479226 0.479228 
0.479231 0.479233 0.479236 0.479238 0.47924 0.479242 0.479244 0.479246 0.479248 
0.47925 0.479252 0.479254 0.479256 0.479258 0.479259 0.474904 0.75997 0.75991 
0.759851 0.759795 0.759744 0.759698 0.75966 0.759629 0.759606 0.759592 0.759585 
0.759587 0.759597 0.759614 0.759637 0.759666 0.759701 0.759741 0.759784 0.759831 
0.759882 0.759935 0.759992 0.76005 0.760111 0.760173 0.760238 0.760304 0.760371 
0.760439 0.760508 0.760577 0.760646 0.760715 0.760783 0.760849 0.760914 0.760977 
0.761037 0.761094 0.761148 0.761199 0.761245 0.761288 0.761327 0.761362 0.761392 
0.761419 0.761441 0.761459 0.761474 0.761486 0.761494 0.761501 0.761505 0.761509 
0.761511 0.761514 0.761518 0.761522 0.761528 0.761536 0.761546 0.761557 0.76157 
0.761584 0.761599 0.761613 0.761627 0.761639 0.761649 0.761656 0.761661 0.761663 
0.761662 0.761659 0.761654 0.761648 0.761643 0.761639 0.761638 0.761641 0.76165 
0.761666 0.76169 0.761722 0.761762 0.76181 0.761864 0.761922 0.761982 0.762043 
0.762102 0.762158 0.76221 0.762255 0.762294 0.762326 0.76235 0.762367 0.762377 
0.762379 0.762374 0.762362 0.762341 0.762312 0.762274 0.762225 0.762166 0.762094 
0.762008 0.76191 0.761799 0.761677 0.761547 0.761414 0.761283 0.761161 0.761054 
0.760969 0.760911 0.760885 0.760893 0.760936 0.761014 0.761125 0.761266 0.761435 
0.761629 0.761844 0.762091 0.762207 0.757421 0.744842 0.725869 0.702065 0.674805 
0.64531 0.614704 0.584017 0.554595 0.527579 0.50443 0.486902 0.477157 0.475792 
0.475929 0.476049 0.476157 0.476251 0.476333 0.476403 0.476464 0.476516 0.476561 
0.4766 0.476634 0.476663 0.476689 0.476711 0.476731 0.476748 0.476764 0.476779 
0.476792 0.476805 0.476819 0.476834 0.476856 0.476962 0.476738 0.472155 0.466945 
0.469296 0.471791 0.476389 0.480277 0.483465 0.487444 0.490566 0.49299 0.495567 
0.498216 0.501048 0.503706 0.506612 0.510214 0.51435 0.521881 0.521975 0.530063 
0.533629 0.532427 0.530168 0.518855 0.511156 0.493414 0.485575 0.488693 0.489266 
0.491567 0.492955 0.493504 0.493571 0.495213 0.496009 0.493405 0.479504 0.478455 
0.478509 0.478556 0.4786 0.478641 0.478679 0.478713 0.478744 0.478773 0.4788 
0.478824 0.478847 0.478867 0.478886 0.478904 0.47892 0.478935 0.478949 0.478962 
0.478974 0.478986 0.478997 0.479007 0.479016 0.479025 0.479034 0.479042 0.47905 
0.479057 0.479064 0.479071 0.479077 0.479083 0.479089 0.479095 0.4791 0.479106 
0.479111 0.479116 0.479121 0.479126 0.47913 0.479135 0.479139 0.479143 0.479147 
0.479151 0.479155 0.479159 0.479163 0.479167 0.47917 0.479174 0.479178 0.479181 
0.479184 0.479188 0.479191 0.479194 0.479197 0.4792 0.479203 0.479206 0.479209 
0.479212 0.479214 0.479217 0.47922 0.479222 0.479225 0.479227 0.47923 0.479232 
0.479234 0.479237 0.479239 0.479241 0.479243 0.479245 0.479247 0.479249 0.479251 
0.479253 0.479254 0.479256 0.479258 0.4749 0.759968 0.759905 0.759843 0.759785 
0.759732 0.759685 0.759646 0.759615 0.759592 0.759577 0.759571 0.759573 0.759583 
0.759601 0.759625 0.759655 0.759691 0.759731 0.759775 0.759823 0.759874 0.759928 
0.759984 0.760043 0.760104 0.760167 0.760231 0.760297 0.760365 0.760434 0.760503 
0.760573 0.760643 0.760712 0.760781 0.760849 0.760915 0.760978 0.76104 0.761098 
0.761153 0.761204 0.761252 0.761295 0.761335 0.76137 0.7614 0.761426 0.761448 
0.761466 0.76148 0.761491 0.761499 0.761504 0.761507 0.761509 0.761511 0.761512 
0.761515 0.761519 0.761524 0.761532 0.761542 0.761554 0.761568 0.761583 0.761599 
0.761615 0.76163 0.761643 0.761653 0.761661 0.761666 0.761667 0.761665 0.761661 
0.761654 0.761647 0.761639 0.761632 0.761629 0.76163 0.761636 0.76165 0.761673 
0.761704 0.761745 0.761793 0.761849 0.761909 0.761972 0.762036 0.762098 0.762157 
0.762212 0.76226 0.762301 0.762335 0.762361 0.762379 0.76239 0.762393 0.762388 
0.762375 0.762354 0.762324 0.762285 0.762234 0.762172 0.762097 0.762007 0.761904 
0.761787 0.761658 0.76152 0.761379 0.76124 0.76111 0.760997 0.760906 0.760844 
0.760816 0.760823 0.760867 0.760946 0.76106 0.761204 0.761376 0.761571 0.761791 
0.762086 0.762153 0.757521 0.745292 0.726656 0.703019 0.675734 0.646052 0.615146 
0.584117 0.554275 0.52691 0.503697 0.486481 0.477124 0.4758 0.475947 0.476072 
0.47618 0.476273 0.476352 0.47642 0.476479 0.476529 0.476572 0.47661 0.476642 
0.47667 0.476695 0.476716 0.476735 0.476752 0.476767 0.476781 0.476794 0.476806 
0.476818 0.476831 0.476845 0.476962 0.476741 0.471498 0.467483 0.469907 0.472533 
0.477366 0.481063 0.483501 0.487572 0.490372 0.492255 0.49498 0.498711 0.503312 
0.508473 0.513072 0.518286 0.521707 0.533053 0.533522 0.532979 0.535739 0.534034 
0.529678 0.520572 0.512566 0.505684 0.493065 0.490767 0.491435 0.492918 0.493702 
0.494259 0.494318 0.496307 0.49776 0.495827 0.479202 0.478467 0.47852 0.478565 
0.478608 0.478648 0.478685 0.478719 0.47875 0.478778 0.478804 0.478828 0.47885 
0.47887 0.478889 0.478906 0.478922 0.478937 0.478951 0.478964 0.478976 0.478987 
0.478998 0.479008 0.479017 0.479026 0.479035 0.479043 0.47905 0.479058 0.479065 
0.479071 0.479078 0.479084 0.47909 0.479095 0.479101 0.479106 0.479111 0.479116 
0.479121 0.479126 0.47913 0.479135 0.479139 0.479143 0.479148 0.479152 0.479156 
0.479159 0.479163 0.479167 0.479171 0.479174 0.479178 0.479181 0.479184 0.479188 
0.479191 0.479194 0.479197 0.4792 0.479203 0.479206 0.479209 0.479212 0.479214 
0.479217 0.47922 0.479222 0.479225 0.479227 0.47923 0.479232 0.479234 0.479237 
0.479239 0.479241 0.479243 0.479245 0.479247 0.479249 0.479251 0.479253 0.479254 
0.479256 0.479258 0.474901 0.759965 0.759897 0.759832 0.75977 0.759715 0.759667 
0.759626 0.759594 0.75957 0.759556 0.75955 0.759553 0.759564 0.759583 0.759608 
0.75964 0.759676 0.759717 0.759763 0.759811 0.759863 0.759917 0.759974 0.760033 
0.760094 0.760157 0.760222 0.760289 0.760357 0.760426 0.760496 0.760567 0.760638 
0.760709 0.76078 0.760849 0.760916 0.760981 0.761044 0.761104 0.76116 0.761213 
0.761261 0.761306 0.761346 0.761381 0.761412 0.761438 0.761459 0.761476 0.761489 
0.761498 0.761505 0.761508 0.76151 0.76151 0.76151 0.76151 0.76151 0.761513 
0.761518 0.761526 0.761536 0.761549 0.761565 0.761581 0.761599 0.761617 0.761633 
0.761648 0.76166 0.761668 0.761672 0.761673 0.76167 0.761664 0.761654 0.761644 
0.761633 0.761622 0.761615 0.761612 0.761615 0.761627 0.761647 0.761678 0.761719 
0.761769 0.761827 0.761891 0.761958 0.762026 0.762093 0.762156 0.762215 0.762267 
0.762312 0.762348 0.762377 0.762397 0.762409 0.762413 0.762408 0.762395 0.762373 
0.762342 0.7623 0.762246 0.76218 0.7621 0.762004 0.761893 0.761767 0.761627 
0.761478 0.761324 0.761172 0.76103 0.760906 0.760807 0.76074 0.760708 0.760715 
0.76076 0.760843 0.760961 0.76111 0.761284 0.76148 0.761694 0.761984 0.762068 
0.757508 0.745457 0.727027 0.703528 0.676265 0.646492 0.615411 0.584189 0.554133 
0.526651 0.503469 0.486403 0.477181 0.475855 0.475996 0.476116 0.476219 0.476306 
0.476382 0.476446 0.476501 0.476548 0.476589 0.476624 0.476654 0.47668 0.476703 
0.476723 0.476741 0.476757 0.476771 0.476784 0.476796 0.476808 0.47682 0.476833 
0.47685 0.476968 0.476752 0.471553 0.467194 0.469634 0.472316 0.477393 0.481039 
0.483456 0.487283 0.489972 0.491957 0.49491 0.498527 0.502902 0.507905 0.512347 
0.517485 0.522226 0.527663 0.527796 0.526208 0.5262 0.522934 0.516721 0.514426 
0.511113 0.509284 0.508611 0.492294 0.493714 0.49419 0.494311 0.49477 0.49479 
0.496488 0.498426 0.49643 0.479542 0.478466 0.478521 0.478569 0.478614 0.478654 
0.478691 0.478724 0.478755 0.478783 0.478809 0.478832 0.478854 0.478874 0.478892 
0.478909 0.478925 0.47894 0.478953 0.478966 0.478978 0.478989 0.478999 0.479009 
0.479019 0.479027 0.479036 0.479044 0.479051 0.479058 0.479065 0.479072 0.479078 
0.479084 0.47909 0.479096 0.479101 0.479106 0.479111 0.479116 0.479121 0.479126 
0.47913 0.479135 0.479139 0.479143 0.479148 0.479152 0.479156 0.479159 0.479163 
0.479167 0.479171 0.479174 0.479178 0.479181 0.479184 0.479188 0.479191 0.479194 
0.479197 0.4792 0.479203 0.479206 0.479209 0.479212 0.479214 0.479217 0.47922 
0.479222 0.479225 0.479227 0.47923 0.479232 0.479234 0.479236 0.479239 0.479241 
0.479243 0.479245 0.479247 0.479249 0.479251 0.479252 0.479254 0.479256 0.479258 
0.4749 0.759963 0.759889 0.759819 0.759754 0.759695 0.759645 0.759602 0.759569 
0.759545 0.75953 0.759525 0.759529 0.759541 0.759561 0.759588 0.75962 0.759658 
0.7597 0.759746 0.759796 0.759848 0.759902 0.75996 0.760019 0.76008 0.760144 
0.76021 0.760277 0.760346 0.760416 0.760488 0.76056 0.760633 0.760706 0.760778 
0.760849 0.760918 0.760986 0.76105 0.761112 0.76117 0.761225 0.761275 0.76132 
0.761361 0.761397 0.761427 0.761453 0.761474 0.76149 0.761501 0.761508 0.761513 
0.761514 0.761513 0.76151 0.761508 0.761505 0.761504 0.761505 0.761509 0.761517 
0.761528 0.761542 0.761559 0.761579 0.761599 0.76162 0.761638 0.761655 0.761668 
0.761677 0.761681 0.761681 0.761676 0.761667 0.761655 0.76164 0.761625 0.76161 
0.761599 0.761591 0.76159 0.761598 0.761617 0.761647 0.761688 0.76174 0.761801 
0.761869 0.761941 0.762015 0.762087 0.762157 0.76222 0.762277 0.762326 0.762366 
0.762397 0.762419 0.762433 0.762437 0.762433 0.76242 0.762397 0.762364 0.762319 
0.762261 0.76219 0.762103 0.761999 0.761877 0.761739 0.761584 0.761419 0.761247 
0.761077 0.760918 0.760779 0.760669 0.760595 0.760561 0.760569 0.760618 0.760708 
0.760835 0.760993 0.761173 0.761372 0.761586 0.761875 0.76196 0.757433 0.745472 
0.72716 0.703757 0.676529 0.646724 0.615561 0.584249 0.5541 0.526591 0.503451 
0.486448 0.477257 0.475925 0.476059 0.476173 0.476269 0.476351 0.47642 0.476479 
0.47653 0.476573 0.47661 0.476642 0.47667 0.476694 0.476714 0.476733 0.476749 
0.476763 0.476776 0.476787 0.476798 0.476809 0.47682 0.476832 0.47685 0.476979 
0.476768 0.47158 0.465962 0.467971 0.469964 0.474199 0.476717 0.478737 0.480852 
0.483083 0.485676 0.488787 0.491172 0.493655 0.497054 0.500288 0.504174 0.511246 
0.511245 0.508051 0.508778 0.499339 0.500652 0.502739 0.506727 0.5092 0.509598 
0.509335 0.493832 0.494484 0.495206 0.495787 0.496341 0.496392 0.49819 0.5 
0.497813 0.479482 0.478482 0.478535 0.478582 0.478626 0.478665 0.478701 0.478734 
0.478764 0.478791 0.478816 0.478839 0.47886 0.47888 0.478897 0.478914 0.478929 
0.478943 0.478957 0.478969 0.478981 0.478992 0.479002 0.479011 0.47902 0.479029 
0.479037 0.479045 0.479052 0.479059 0.479066 0.479073 0.479079 0.479085 0.479091 
0.479096 0.479102 0.479107 0.479112 0.479117 0.479121 0.479126 0.479131 0.479135 
0.479139 0.479144 0.479148 0.479152 0.479156 0.47916 0.479163 0.479167 0.479171 
0.479174 0.479178 0.479181 0.479184 0.479188 0.479191 0.479194 0.479197 0.4792 
0.479203 0.479206 0.479209 0.479212 0.479214 0.479217 0.47922 0.479222 0.479225 
0.479227 0.47923 0.479232 0.479234 0.479237 0.479239 0.479241 0.479243 0.479245 
0.479247 0.479249 0.479251 0.479252 0.479254 0.479256 0.479258 0.4749 0.759959 
0.75988 0.759805 0.759736 0.759674 0.75962 0.759576 0.759541 0.759516 0.759502 
0.759497 0.759502 0.759515 0.759537 0.759565 0.759599 0.759638 0.759681 0.759728 
0.759778 0.759831 0.759886 0.759943 0.760002 0.760064 0.760128 0.760194 0.760262 
0.760332 0.760403 0.760476 0.76055 0.760625 0.7607 0.760774 0.760848 0.76092 
0.76099 0.761057 0.761122 0.761182 0.761238 0.76129 0.761337 0.761378 0.761415 
0.761446 0.761471 0.761491 0.761505 0.761515 0.761521 0.761522 0.761521 0.761517 
0.761511 0.761505 0.761499 0.761496 0.761495 0.761498 0.761505 0.761517 0.761532 
0.761552 0.761575 0.761599 0.761622 0.761644 0.761663 0.761678 0.761688 0.761692 
0.761691 0.761684 0.761673 0.761657 0.761638 0.761618 0.761599 0.761582 0.76157 
0.761565 0.761569 0.761585 0.761614 0.761656 0.76171 0.761774 0.761847 0.761925 
0.762004 0.762083 0.762159 0.762228 0.76229 0.762343 0.762386 0.76242 0.762445 
0.76246 0.762466 0.762462 0.762448 0.762424 0.762388 0.76234 0.762278 0.7622 
0.762105 0.76199 0.761855 0.7617 0.761527 0.76134 0.761146 0.760953 0.760773 
0.760617 0.760494 0.760413 0.760379 0.760393 0.760452 0.760555 0.760697 0.760866 
0.761056 0.761257 0.761468 0.761752 0.761837 0.757324 0.745407 0.727161 0.703822 
0.676632 0.646831 0.615648 0.584312 0.554135 0.526633 0.503524 0.486546 0.477358 
0.476015 0.47614 0.476243 0.476331 0.476404 0.476467 0.47652 0.476565 0.476603 
0.476636 0.476664 0.476689 0.47671 0.476728 0.476744 0.476758 0.476771 0.476782 
0.476792 0.476801 0.47681 0.476818 0.476828 0.476844 0.476948 0.476791 0.473633 
0.469086 0.469568 0.469977 0.469987 0.46916 0.468331 0.470549 0.47242 0.473697 
0.477158 0.47859 0.478887 0.480517 0.483186 0.48503 0.485851 0.486739 0.489812 
0.490461 0.492127 0.495607 0.499622 0.502294 0.505907 0.506529 0.508788 0.494686 
0.494834 0.496477 0.497214 0.496814 0.496483 0.499444 0.501492 0.499256 0.479654 
0.4785 0.478552 0.478598 0.478641 0.478679 0.478714 0.478746 0.478775 0.478801 
0.478825 0.478847 0.478868 0.478886 0.478904 0.478919 0.478934 0.478948 0.478961 
0.478973 0.478984 0.478995 0.479004 0.479014 0.479023 0.479031 0.479039 0.479047 
0.479054 0.479061 0.479067 0.479074 0.47908 0.479086 0.479091 0.479097 0.479102 
0.479107 0.479112 0.479117 0.479122 0.479127 0.479131 0.479135 0.47914 0.479144 
0.479148 0.479152 0.479156 0.47916 0.479163 0.479167 0.479171 0.479174 0.479178 
0.479181 0.479184 0.479188 0.479191 0.479194 0.479197 0.4792 0.479203 0.479206 
0.479209 0.479212 0.479214 0.479217 0.47922 0.479222 0.479225 0.479227 0.47923 
0.479232 0.479234 0.479237 0.479239 0.479241 0.479243 0.479245 0.479247 0.479249 
0.479251 0.479252 0.479254 0.479256 0.479258 0.4749 0.759956 0.75987 0.75979 
0.759716 0.759651 0.759594 0.759547 0.759511 0.759486 0.759471 0.759467 0.759473 
0.759488 0.759511 0.759541 0.759577 0.759617 0.759662 0.759709 0.75976 0.759813 
0.759868 0.759925 0.759985 0.760046 0.76011 0.760176 0.760244 0.760315 0.760387 
0.760461 0.760537 0.760614 0.760691 0.760768 0.760844 0.760919 0.760992 0.761062 
0.761129 0.761192 0.761251 0.761305 0.761353 0.761396 0.761434 0.761465 0.76149 
0.761509 0.761522 0.761531 0.761534 0.761533 0.761528 0.761521 0.761512 0.761502 
0.761493 0.761487 0.761484 0.761485 0.761492 0.761504 0.761522 0.761545 0.761571 
0.761598 0.761625 0.76165 0.761672 0.761688 0.761699 0.761703 0.761701 0.761693 
0.761679 0.761661 0.761638 0.761614 0.76159 0.761569 0.761552 0.761543 0.761544 
0.761558 0.761585 0.761627 0.761683 0.761751 0.761828 0.761911 0.761996 0.762081 
0.762163 0.762238 0.762305 0.762362 0.76241 0.762446 0.762473 0.762489 0.762495 
0.762491 0.762477 0.762451 0.762414 0.762362 0.762294 0.762209 0.762104 0.761977 
0.761826 0.761653 0.761457 0.761246 0.761025 0.760807 0.760605 0.760431 0.760298 
0.760214 0.760183 0.760208 0.760284 0.760406 0.760564 0.760748 0.760948 0.761155 
0.761362 0.761637 0.761718 0.757208 0.745309 0.727098 0.703801 0.676648 0.646873 
0.615706 0.584387 0.554218 0.526736 0.503648 0.486678 0.47748 0.476123 0.476234 
0.476326 0.476403 0.476467 0.476521 0.476566 0.476605 0.476638 0.476666 0.47669 
0.47671 0.476728 0.476744 0.476758 0.47677 0.47678 0.476789 0.476797 0.476804 
0.47681 0.476816 0.47682 0.476825 0.476854 0.478811 0.480757 0.480216 0.477112 
0.478639 0.478491 0.476849 0.477171 0.479527 0.48115 0.482283 0.482239 0.482078 
0.483434 0.483733 0.485341 0.487261 0.4873 0.488337 0.48956 0.49162 0.491987 
0.491837 0.494162 0.495948 0.49767 0.501719 0.505299 0.494809 0.495387 0.497493 
0.498215 0.497735 0.497314 0.499787 0.502333 0.500433 0.479773 0.478522 0.478574 
0.478618 0.478659 0.478696 0.47873 0.47876 0.478788 0.478813 0.478836 0.478857 
0.478877 0.478894 0.478911 0.478926 0.47894 0.478953 0.478966 0.478977 0.478988 
0.478998 0.479008 0.479017 0.479025 0.479033 0.479041 0.479048 0.479055 0.479062 
0.479069 0.479075 0.479081 0.479087 0.479092 0.479098 0.479103 0.479108 0.479113 
0.479118 0.479122 0.479127 0.479131 0.479136 0.47914 0.479144 0.479148 0.479152 
0.479156 0.47916 0.479164 0.479167 0.479171 0.479174 0.479178 0.479181 0.479185 
0.479188 0.479191 0.479194 0.479197 0.4792 0.479203 0.479206 0.479209 0.479212 
0.479214 0.479217 0.47922 0.479222 0.479225 0.479227 0.47923 0.479232 0.479234 
0.479237 0.479239 0.479241 0.479243 0.479245 0.479247 0.479249 0.479251 0.479252 
0.479254 0.479256 0.479258 0.4749 0.759953 0.759861 0.759775 0.759697 0.759627 
0.759568 0.759519 0.759481 0.759455 0.759441 0.759437 0.759444 0.759461 0.759486 
0.759518 0.759555 0.759597 0.759642 0.759691 0.759742 0.759795 0.75985 0.759907 
0.759966 0.760027 0.760091 0.760157 0.760225 0.760296 0.76037 0.760445 0.760522 
0.7606 0.760679 0.760758 0.760837 0.760914 0.760989 0.761062 0.761132 0.761198 
0.761259 0.761316 0.761366 0.761411 0.76145 0.761481 0.761507 0.761526 0.761538 
0.761545 0.761547 0.761543 0.761536 0.761525 0.761512 0.761499 0.761487 0.761478 
0.761473 0.761473 0.76148 0.761493 0.761513 0.761538 0.761567 0.761598 0.761628 
0.761656 0.761679 0.761697 0.761709 0.761714 0.761712 0.761703 0.761687 0.761667 
0.761642 0.761615 0.761587 0.761562 0.761542 0.761529 0.761527 0.761539 0.761566 
0.761608 0.761665 0.761735 0.761815 0.761902 0.761992 0.762081 0.762167 0.762247 
0.762319 0.76238 0.762432 0.762472 0.7625 0.762518 0.762524 0.76252 0.762504 
0.762477 0.762437 0.762382 0.762309 0.762216 0.7621 0.761959 0.761792 0.761598 
0.761379 0.761142 0.760896 0.760655 0.760434 0.760248 0.760109 0.760026 0.760002 
0.760038 0.760129 0.760267 0.760442 0.760643 0.760856 0.76107 0.761277 0.761545 
0.761618 0.757108 0.745216 0.727018 0.703747 0.676626 0.646885 0.615755 0.584475 
0.554337 0.526883 0.503812 0.486838 0.477623 0.476248 0.476343 0.476421 0.476484 