# vtk DataFile Version 5.1
vtk output
ASCII
DATASET UNSTRUCTURED_GRID
POINTS 10043 double
-10.1 1.4499999993 2.6138659237e-08 -10.049999999 1.4499999993 6.6014543165e-08 -10.049999999 1.5 -2.6505426831e-07 
-9.9999999985 1.4499999993 8.0297247962e-08 -9.9999999985 1.5 -3.0927753869e-07 -9.9499999978 1.4499999993 8.627990411e-08 
-9.9499999978 1.5 -3.3100718611e-07 -9.899999997 1.4499999993 8.9823295468e-08 -9.899999997 1.5 -3.4393292481e-07 
-9.8499999963 1.4499999993 9.2322586909e-08 -9.8499999963 1.5 -3.5284051592e-07 -9.7999999955 1.4499999993 9.4079730673e-08 
-9.7999999955 1.5 -3.5961261347e-07 -9.7499999948 1.4499999993 9.5433058789e-08 -9.7499999948 1.5 -3.6483129406e-07 
-9.699999994 1.4499999993 9.6613582912e-08 -9.699999994 1.5 -3.6927872316e-07 -9.6499999933 1.4499999993 9.7741356342e-08 
-9.6499999933 1.5 -3.7328049984e-07 -9.5999999925 1.4499999993 9.8614471256e-08 -9.5999999925 1.5 -3.7698396227e-07 
-9.5499999918 1.4499999993 9.9640381279e-08 -9.5499999918 1.5 -3.8041639527e-07 -9.4999999911 1.4499999993 1.0039344289e-07 
-9.4999999911 1.5 -3.836560154e-07 -9.4499999903 1.4499999993 1.0129202366e-07 -9.4499999903 1.5 -3.8700841287e-07 
-9.3999999896 1.4499999993 1.0208146506e-07 -9.3999999896 1.5 -3.9021529119e-07 -9.3499999888 1.4499999993 1.0304007247e-07 
-9.3499999888 1.5 -3.9336759983e-07 -9.2999999881 1.4499999993 1.038422468e-07 -9.2999999881 1.5 -3.966345048e-07 
-9.2499999873 1.4499999993 1.0462623123e-07 -9.2499999873 1.5 -3.9987048694e-07 -9.1999999866 1.4499999993 1.0554663987e-07 
-9.1999999866 1.5 -4.0324107431e-07 -9.1499999858 1.4499999993 1.063651851e-07 -9.1499999858 1.5 -4.0655163502e-07 
-9.0999999851 1.4499999993 1.0732015454e-07 -9.0999999851 1.5 -4.1005500862e-07 -9.0499999844 1.4499999993 1.0828421892e-07 
-9.0499999844 1.5 -4.1352200242e-07 -8.9999999836 1.4499999993 1.0923918836e-07 -8.9999999836 1.5 -4.1713997234e-07 
-8.9499999829 1.4499999993 1.1010684631e-07 -8.9499999829 1.5 -4.2074702833e-07 -8.8999999821 1.4499999993 1.1112729936e-07 
-8.8999999821 1.5 -4.245978289e-07 -8.8499999814 1.4499999993 1.1212592455e-07 -8.8499999814 1.5 -4.2848682824e-07 
-8.7999999806 1.4499999993 1.1316274851e-07 -8.7999999806 1.5 -4.3236491365e-07 -8.7499999799 1.4499999993 1.1425959912e-07 
-8.7499999799 1.5 -4.3647219172e-07 -8.6999999791 1.4499999993 1.1481257189e-07 -8.6999999791 1.5 -4.3858585741e-07 
-8.6499999784 1.4499999993 1.1585667181e-07 -8.6499999784 1.5 -4.4278954192e-07 -8.5999999776 1.4499999993 1.1690986668e-07 
-8.5999999776 1.5 -4.471187367e-07 -8.5499999769 1.4499999993 1.1820862511e-07 -8.5499999769 1.5 -4.5151159611e-07 
-8.4999999762 1.4499999993 1.193964323e-07 -8.4999999762 1.5 -4.5610454436e-07 -8.4499999754 1.4499999993 1.2061333621e-07 
-8.4499999754 1.5 -4.6073023441e-07 -8.3999999747 1.4499999993 1.2186480092e-07 -8.3999999747 1.5 -4.656760666e-07 
-8.3499999739 1.4499999993 1.2313081754e-07 -8.3499999739 1.5 -4.7048365559e-07 -8.2999999732 1.4499999993 1.244604988e-07 
-8.2999999732 1.5 -4.7568414629e-07 -8.2499999724 1.4499999993 1.258502067e-07 -8.2499999724 1.5 -4.8085553317e-07 
-8.1999999717 1.4499999993 1.2720535381e-07 -8.1999999717 1.5 -4.8612150749e-07 -8.1499999709 1.4499999993 1.2857323384e-07 
-8.1499999709 1.5 -4.9158938964e-07 -8.0999999702 1.4499999993 1.300739001e-07 -8.0999999702 1.5 -4.9720824791e-07 
-8.0499999695 1.4499999993 1.3161094614e-07 -8.0499999695 1.5 -5.0285802899e-07 -7.9999999687 1.4499999993 1.3318255299e-07 
-7.9999999687 1.5 -5.0884978009e-07 -7.949999968 1.4499999993 1.3482691941e-07 -7.949999968 1.5 -5.1491974773e-07 
-7.8999999672 1.4499999993 1.3643672503e-07 -7.8999999672 1.5 -5.2121163208e-07 -7.8499999665 1.4499999993 1.3803197874e-07 
-7.8499999665 1.5 -5.2749987844e-07 -7.7999999657 1.4499999993 1.3977820856e-07 -7.7999999657 1.5 -5.3410099099e-07 
-7.749999965 1.4499999993 1.4149715355e-07 -7.749999965 1.5 -5.4085489865e-07 -7.6999999642 1.4499999993 1.4336161769e-07 
-7.6999999642 1.5 -5.4769884628e-07 -7.6499999635 1.4499999993 1.4520516345e-07 -7.6499999635 1.5 -5.5477289607e-07 
-7.5999999627 1.4499999993 1.4719331887e-07 -7.5999999627 1.5 -5.6206522459e-07 -7.549999962 1.4499999993 1.4905232604e-07 
-7.549999962 1.5 -5.6957128436e-07 -7.4999999613 1.4499999993 1.5107595175e-07 -7.4999999613 1.5 -5.7729744185e-07 
-7.4499999605 1.4499999993 1.531277718e-07 -7.4499999605 1.5 -5.8519094637e-07 -7.3999999598 1.4499999993 1.5525417041e-07 
-7.3999999598 1.5 -5.9328908719e-07 -7.349999959 1.4499999993 1.5744787163e-07 -7.349999959 1.5 -6.0162824411e-07 
-7.2999999583 1.4499999993 1.5965794375e-07 -7.2999999583 1.5 -6.1025480136e-07 -7.2499999575 1.4499999993 1.6201171604e-07 
-7.2499999575 1.5 -6.1906143856e-07 -7.1999999568 1.4499999993 1.6434002248e-07 -7.1999999568 1.5 -6.2811091084e-07 
-7.149999956 1.4499999993 1.6681748605e-07 -7.149999956 1.5 -6.3750508161e-07 -7.0999999553 1.4499999993 1.6807531722e-07 
-7.0999999553 1.5 -6.4226355789e-07 -7.0499999546 1.4499999993 1.7064373026e-07 -7.0499999546 1.5 -6.5196968535e-07 
-6.9999999538 1.4499999993 1.7323669965e-07 -6.9999999538 1.5 -6.6201232585e-07 -6.9499999531 1.4499999993 1.7600702051e-07 
-6.9499999531 1.5 -6.7237874646e-07 -6.8999999523 1.4499999993 1.7878825531e-07 -6.8999999523 1.5 -6.8301346801e-07 
-6.8499999516 1.4499999993 1.816404307e-07 -6.8499999516 1.5 -6.9398652158e-07 -6.7999999508 1.4499999993 1.8455263273e-07 
-6.7999999508 1.5 -7.0527698881e-07 -6.7499999501 1.4499999993 1.8767129006e-07 -6.7499999501 1.5 -7.1699946602e-07 
-6.6999999493 1.4499999993 1.9079904234e-07 -6.6999999493 1.5 -7.290020676e-07 -6.6499999486 1.4499999993 1.9405594287e-07 
-6.6499999486 1.5 -7.4147487794e-07 -6.5999999478 1.4499999993 1.9743835367e-07 -6.5999999478 1.5 -7.5430693869e-07 
-6.5499999471 1.4499999993 2.0094081776e-07 -6.5499999471 1.5 -7.6756555245e-07 -6.4999999464 1.4499999993 2.0450603699e-07 
-6.4999999464 1.5 -7.8124708125e-07 -6.4499999456 1.4499999993 2.0816311519e-07 -6.4499999456 1.5 -7.9547066889e-07 
-6.3999999449 1.4499999993 2.1197026001e-07 -6.3999999449 1.5 -8.1009716268e-07 -6.3499999441 1.4499999993 2.1596476074e-07 
-6.3499999441 1.5 -8.2527390077e-07 -6.2999999434 1.4499999993 2.2013024648e-07 -6.2999999434 1.5 -8.4092994257e-07 
-6.2499999426 1.4499999993 2.2435484937e-07 -6.2499999426 1.5 -8.5725082499e-07 -6.1999999419 1.4499999993 2.2883411077e-07 
-6.1999999419 1.5 -8.740901194e-07 -6.1499999411 1.4499999993 2.3331973864e-07 -6.1499999411 1.5 -8.9162517725e-07 
-6.0999999404 1.4499999993 2.3811095673e-07 -6.0999999404 1.5 -9.0984872259e-07 -6.0499999397 1.4499999993 2.4303403734e-07 
-6.0499999397 1.5 -9.2873528956e-07 -5.9999999389 1.4499999993 2.4822179512e-07 -5.9999999389 1.5 -9.4842857834e-07 
-5.9499999382 1.4499999993 2.5354233912e-07 -5.9499999382 1.5 -9.6889493761e-07 -5.8999999374 1.4499999993 2.5916983759e-07 
-5.8999999374 1.5 -9.901652902e-07 -5.8499999367 1.4499999993 2.6498014449e-07 -5.8499999367 1.5 -1.0124638266e-06 
-5.7999999359 1.4499999993 2.7105011213e-07 -5.7999999359 1.5 -1.03564048e-06 -5.7499999352 1.4499999993 2.7738428798e-07 
-5.7499999352 1.5 -1.0599035249e-06 -5.6999999344 1.4499999993 2.8402405405e-07 -5.6999999344 1.5 -1.0852634205e-06 
-5.6499999337 1.4499999993 2.9100806387e-07 -5.6499999337 1.5 -1.1118474958e-06 -5.5999999329 1.4499999993 2.9827310755e-07 
-5.5999999329 1.5 -1.1397453363e-06 -5.5499999322 1.4499999993 3.0205660551e-07 -5.5499999322 1.5 -1.1542072116e-06 
-5.4999999315 1.4499999993 3.0992055144e-07 -5.4999999315 1.5 -1.1842137155e-06 -5.4499999307 1.4499999993 3.1823060453e-07 
-5.4499999307 1.5 -1.2158291156e-06 -5.39999993 1.4499999993 3.2695083974e-07 -5.39999993 1.5 -1.2491166217e-06 
-5.3499999292 1.4499999993 3.3614264794e-07 -5.3499999292 1.5 -1.2843213426e-06 -5.2999999285 1.4499999993 3.4586832953e-07 
-5.2999999285 1.5 -1.3216028947e-06 -5.2499999277 1.4499999993 3.5622156247e-07 -5.2499999277 1.5 -1.3610695078e-06 
-5.199999927 1.4499999993 3.6722826735e-07 -5.199999927 1.5 -1.4030158582e-06 -5.1499999262 1.4499999993 3.7892800719e-07 
-5.1499999262 1.5 -1.4477079731e-06 -5.0999999255 1.4499999993 3.914244644e-07 -5.0999999255 1.5 -1.4955091956e-06 
-5.0499999247 1.4499999993 4.048217761e-07 -5.0499999247 1.5 -1.5466118839e-06 -4.999999924 1.4499999993 4.1919497562e-07 
-4.999999924 1.5 -1.6015203528e-06 -4.9499999233 1.4499999993 4.34664571e-07 -4.9499999233 1.5 -1.6607211819e-06 
-4.8999999225 1.4499999993 4.5147157834e-07 -4.8999999225 1.5 -1.7247409687e-06 -4.8499999218 1.4499999993 4.6965419642e-07 
-4.8499999218 1.5 -1.7942286377e-06 -4.799999921 1.4499999993 4.8950573728e-07 -4.799999921 1.5 -1.870000915e-06 
-4.7499999203 1.4499999993 5.1126585277e-07 -4.7499999203 1.5 -1.9530014015e-06 -4.6999999195 1.4499999993 5.3518874665e-07 
-4.6999999195 1.5 -2.0443742414e-06 -4.6499999188 1.4499999993 5.6169506024e-07 -4.6499999188 1.5 -2.1454877697e-06 
-4.599999918 1.4499999993 5.9126364249e-07 -4.599999918 1.5 -2.2581350549e-06 -4.5499999173 1.4499999993 6.2431195147e-07 
-4.5499999173 1.5 -2.3844183943e-06 -4.4999999166 1.4499999993 6.6170923674e-07 -4.4999999166 1.5 -2.5269894195e-06 
-4.4499999158 1.4499999993 7.0429882726e-07 -4.4499999158 1.5 -2.6892948881e-06 -4.3999999151 1.4499999993 7.5323896453e-07 
-4.3999999151 1.5 -2.8757635846e-06 -4.3499999143 1.4499999993 8.1001803665e-07 -4.3499999143 1.5 -3.0920498375e-06 
-4.2999999136 1.4499999993 8.7668263404e-07 -4.2999999136 1.5 -3.3458152302e-06 -4.2499999128 1.4499999993 9.5592531579e-07 
-4.2499999128 1.5 -3.6471919884e-06 -4.1999999121 1.4499999993 1.0514247606e-06 -4.1999999121 1.5 -4.0101799641e-06 
-4.1499999113 1.4499999993 1.1684455785e-06 -4.1499999113 1.5 -4.4544253797e-06 -4.0999999106 1.4499999993 1.3144558579e-06 
-4.0999999106 1.5 -5.0080766414e-06 -4.0499999098 1.4499999993 1.5006685317e-06 -4.0499999098 1.5 -5.7128677327e-06 
-3.9999999091 1.4499999993 1.7442566786e-06 -3.9999999091 1.5 -6.6327120294e-06 -3.9499999084 1.4499999993 1.8956432086e-06 
[...]
CELL_DATA 9510
FIELD FieldData 4
Water_Depth_m 1 9510 float
0.759987 0.75996 0.759932 0.759903 0.759873 0.759842 0.759811 0.759778 0.759746 
0.759713 0.759681 0.759649 0.759619 0.759589 0.759562 0.759537 0.759515 0.759496 
0.759481 0.759469 0.759462 0.759459 0.75946 0.759466 0.759477 0.759492 0.759512 
0.759537 0.759567 0.7596 0.759639 0.75968 0.759726 0.759775 0.759827 0.759882 
0.759938 0.759996 0.760056 0.760116 0.760176 0.760236 0.760296 0.760353 0.760409 
0.760462 0.760512 0.760559 0.760603 0.760642 0.760678 0.760709 0.760736 0.760758 
0.760776 0.760789 0.760797 0.760801 0.7608 0.760795 0.760785 0.76077 0.76075 
0.760725 0.760696 0.760662 0.760624 0.760582 0.760535 0.760486 0.760433 0.760378 
0.760321 0.760263 0.760204 0.760146 0.760088 0.760031 0.759975 0.759921 0.759869 
0.75982 0.759773 0.75973 0.759689 0.759652 0.759619 0.759589 0.759563 0.759541 
0.759523 0.759508 0.759496 0.759487 0.75948 0.759475 0.759472 0.759471 0.759471 
0.759472 0.759475 0.75948 0.759487 0.759498 0.759514 0.759534 0.759562 0.759595 
0.759636 0.759683 0.759737 0.759795 0.759857 0.75992 0.759983 0.760045 0.760104 
0.760159 0.76021 0.760255 0.760297 0.760334 0.76037 0.760404 0.76044 0.760478 
0.760523 0.760577 0.760649 0.760764 0.760995 0.760874 0.755384 0.741995 0.722461 
0.698456 0.671279 0.642057 0.611842 0.581652 0.553043 0.526885 0.504193 0.48637 
0.475356 0.473561 0.473643 0.473716 0.473783 0.473843 0.473898 0.473947 0.47399 
0.474029 0.474063 0.474094 0.474121 0.474145 0.474167 0.474186 0.474203 0.474218 
0.474231 0.474242 0.474252 0.474259 0.474264 0.474264 0.474238 0.474232 0.474121 
0.4726 0.47206 0.472506 0.472255 0.471529 0.474588 0.479588 0.484078 0.486895 
0.489418 0.491796 0.494162 0.495734 0.495744 0.494567 0.494205 0.495464 0.49957 
0.501407 0.50605 0.51186 0.51208 0.509441 0.499088 0.493918 0.485162 0.481909 
0.48403 0.485449 0.488583 0.489426 0.489505 0.489604 0.489705 0.489667 0.487734 
0.475953 0.475746 0.475654 0.475648 0.475662 0.475681 0.475702 0.475721 0.47574 
0.475757 0.475772 0.475786 0.475799 0.47581 0.47582 0.475829 0.475836 0.475843 
0.475849 0.475854 0.475858 0.475862 0.475865 0.475868 0.475871 0.475873 0.475874 
0.475875 0.475876 0.475877 0.475878 0.475878 0.475878 0.475879 0.475879 0.475878 
0.475878 0.475878 0.475878 0.475877 0.475877 0.475876 0.475876 0.475875 0.475875 
0.475874 0.475874 0.475873 0.475873 0.475872 0.475872 0.475871 0.475871 0.47587 
0.47587 0.47587 0.475869 0.475869 0.475869 0.475869 0.475869 0.475868 0.475868 
0.475868 0.475868 0.475868 0.475868 0.475869 0.475869 0.475869 0.475869 0.47587 
0.47587 0.47587 0.475871 0.475872 0.475872 0.475873 0.475873 0.475874 0.475875 
0.475876 0.475877 0.475878 0.475879 0.475876 0.474491 0.470373 0.759987 0.75996 
0.759931 0.759902 0.759872 0.759841 0.759809 0.759777 0.759744 0.759711 0.759678 
0.759646 0.759615 0.759586 0.759558 0.759533 0.759511 0.759492 0.759476 0.759465 
0.759457 0.759454 0.759455 0.759461 0.759472 0.759487 0.759507 0.759532 0.759561 
0.759595 0.759633 0.759675 0.759721 0.75977 0.759822 0.759876 0.759933 0.759992 
0.760051 0.760112 0.760172 0.760233 0.760292 0.76035 0.760406 0.76046 0.760511 
0.760559 0.760603 0.760643 0.760679 0.76071 0.760738 0.76076 0.760779 0.760792 
0.760801 0.760805 0.760804 0.760799 0.760789 0.760774 0.760754 0.760729 0.7607 
0.760665 0.760627 0.760584 0.760537 0.760486 0.760433 0.760377 0.76032 0.760261 
0.760202 0.760143 0.760085 0.760028 0.759972 0.759917 0.759865 0.759816 0.759769 
0.759725 0.759684 0.759647 0.759614 0.759584 0.759558 0.759536 0.759518 0.759503 
0.759492 0.759483 0.759476 0.759472 0.759469 0.759468 0.759468 0.759469 0.759471 
0.759475 0.759482 0.759492 0.759507 0.759527 0.759552 0.759586 0.759626 0.759674 
0.759728 0.759787 0.75985 0.759914 0.759979 0.760042 0.760102 0.760157 0.760207 
0.760253 0.760293 0.760329 0.760363 0.760394 0.760426 0.76046 0.760498 0.760542 
0.760594 0.760646 0.760708 0.760656 0.755736 0.743044 0.723973 0.700082 0.672744 
0.643179 0.612516 0.581797 0.552383 0.52543 0.502364 0.484848 0.47503 0.473587 
0.47366 0.473727 0.473792 0.47385 0.473903 0.47395 0.473992 0.474029 0.474063 
0.474092 0.474119 0.474142 0.474163 0.474182 0.474198 0.474213 0.474226 0.474238 
0.474249 0.474258 0.474269 0.474274 0.474254 0.474305 0.474115 0.469596 0.464385 
0.466738 0.469243 0.473836 0.477717 0.480897 0.484863 0.487984 0.490413 0.492986 
0.495623 0.498451 0.501114 0.504029 0.507649 0.511747 0.519267 0.519438 0.527454 
0.530967 0.52974 0.527497 0.516156 0.508505 0.49079 0.48294 0.485897 0.486456 
0.488732 0.490101 0.490634 0.49069 0.492303 0.493048 0.49048 0.476568 0.475507 
0.475549 0.475585 0.475619 0.475649 0.475677 0.475701 0.475723 0.475742 0.47576 
0.475775 0.475789 0.475801 0.475812 0.475821 0.475829 0.475836 0.475843 0.475848 
0.475853 0.475857 0.475861 0.475864 0.475866 0.475868 0.47587 0.475872 0.475873 
0.475874 0.475874 0.475875 0.475875 0.475875 0.475876 0.475876 0.475875 0.475875 
0.475875 0.475875 0.475874 0.475874 0.475874 0.475873 0.475873 0.475872 0.475872 
0.475871 0.475871 0.47587 0.47587 0.475869 0.475869 0.475869 0.475868 0.475868 
0.475868 0.475868 0.475867 0.475867 0.475867 0.475867 0.475867 0.475867 0.475867 
0.475867 0.475867 0.475867 0.475868 0.475868 0.475868 0.475868 0.475869 0.475869 
0.47587 0.47587 0.475871 0.475872 0.475872 0.475873 0.475874 0.475874 0.475875 
0.475876 0.475877 0.475875 0.474489 0.47037 0.759987 0.759959 0.759931 0.759901 
0.759871 0.759839 0.759807 0.759774 0.759741 0.759707 0.759674 0.759641 0.75961 
0.75958 0.759552 0.759526 0.759503 0.759484 0.759468 0.759456 0.759448 0.759445 
0.759446 0.759452 0.759462 0.759477 0.759498 0.759522 0.759552 0.759586 0.759624 
0.759666 0.759712 0.759761 0.759813 0.759867 0.759924 0.759983 0.760043 0.760104 
0.760166 0.760226 0.760287 0.760346 0.760403 0.760457 0.760509 0.760558 0.760603 
0.760644 0.760681 0.760714 0.760742 0.760766 0.760785 0.7608 0.760809 0.760814 
0.760814 0.760808 0.760798 0.760783 0.760763 0.760738 0.760708 0.760673 0.760633 
0.760589 0.760541 0.760489 0.760434 0.760377 0.760319 0.760259 0.7602 0.76014 
0.760081 0.760023 0.759966 0.759912 0.759859 0.759809 0.759762 0.759718 0.759677 
0.759639 0.759606 0.759576 0.75955 0.759529 0.759511 0.759496 0.759485 0.759477 
0.759472 0.759468 0.759466 0.759465 0.759464 0.759465 0.759466 0.75947 0.759475 
0.759483 0.759496 0.759515 0.759539 0.759571 0.759612 0.75966 0.759715 0.759776 
0.759841 0.759908 0.759976 0.760041 0.760103 0.76016 0.760212 0.760257 0.760297 
0.760332 0.760363 0.760392 0.76042 0.760451 0.760485 0.760526 0.760576 0.760629 
0.760738 0.760635 0.755863 0.743517 0.724778 0.70105 0.67368 0.643924 0.612956 
0.581891 0.552055 0.52475 0.501614 0.484406 0.474978 0.473578 0.473663 0.473738 
0.473804 0.473862 0.473914 0.47396 0.474001 0.474037 0.47407 0.474099 0.474124 
0.474147 0.474168 0.474186 0.474202 0.474216 0.474229 0.474241 0.474251 0.474261 
0.474271 0.474275 0.474244 0.474301 0.474117 0.468943 0.464925 0.467355 0.469986 
0.474803 0.478497 0.480934 0.48499 0.487786 0.489674 0.492395 0.496121 0.500721 
0.505883 0.510492 0.515715 0.519098 0.530432 0.530964 0.530353 0.533085 0.531382 
0.527017 0.517887 0.50991 0.503063 0.490427 0.487972 0.488623 0.490083 0.490848 
0.491388 0.491441 0.493402 0.494789 0.492902 0.476266 0.475519 0.475561 0.475594 
0.475626 0.475656 0.475683 0.475707 0.475728 0.475747 0.475764 0.475779 0.475792 
0.475804 0.475814 0.475823 0.475831 0.475838 0.475845 0.47585 0.475854 0.475858 
0.475862 0.475865 0.475867 0.475869 0.475871 0.475872 0.475874 0.475874 0.475875 
0.475875 0.475876 0.475876 0.475876 0.475876 0.475876 0.475876 0.475875 0.475875 
0.475875 0.475874 0.475874 0.475873 0.475873 0.475872 0.475872 0.475871 0.475871 
0.47587 0.47587 0.47587 0.475869 0.475869 0.475868 0.475868 0.475868 0.475868 
0.475867 0.475867 0.475867 0.475867 0.475867 0.475867 0.475867 0.475867 0.475867 
0.475867 0.475868 0.475868 0.475868 0.475868 0.475869 0.475869 0.47587 0.47587 
0.475871 0.475872 0.475872 0.475873 0.475874 0.475875 0.475875 0.475876 0.475877 
0.475875 0.474489 0.47037 0.759987 0.759959 0.75993 0.7599 0.759869 0.759837 
0.759804 0.75977 0.759736 0.759701 0.759667 0.759634 0.759601 0.75957 0.759541 
0.759515 0.759492 0.759472 0.759455 0.759443 0.759435 0.759432 0.759433 0.759439 
0.759449 0.759465 0.759485 0.75951 0.759539 0.759573 0.759611 0.759653 0.759699 
0.759748 0.7598 0.759856 0.759913 0.759972 0.760033 0.760094 0.760156 0.760218 
0.760279 0.760339 0.760397 0.760453 0.760507 0.760557 0.760603 0.760646 0.760685 
0.760719 0.760749 0.760774 0.760794 0.76081 0.76082 0.760826 0.760827 0.760822 
0.760812 0.760797 0.760776 0.76075 0.760719 0.760683 0.760642 0.760596 0.760546 
0.760493 0.760436 0.760377 0.760317 0.760256 0.760195 0.760134 0.760074 0.760016 
0.759959 0.759903 0.75985 0.759799 0.759751 0.759706 0.759665 0.759627 0.759593 
0.759563 0.759538 0.759517 0.759499 0.759486 0.759476 0.759469 0.759465 0.759462 
0.75946 0.75946 0.759459 0.759459 0.75946 0.759461 0.759464 0.75947 0.75948 
0.759496 0.759518 0.759548 0.759588 0.759637 0.759694 0.759759 0.759828 0.759899 
0.759971 0.76004 0.760106 0.760165 0.760218 0.760264 0.760302 0.760335 0.760363 
0.760387 0.760411 0.760435 0.760464 0.760498 0.760541 0.760585 0.760687 0.760597 
0.755892 0.743718 0.725177 0.701579 0.674224 0.644369 0.613219 0.581953 0.551898 
0.524469 0.501359 0.484299 0.475007 0.473609 0.473691 0.473762 0.473826 0.473882 
0.473931 0.473975 0.474014 0.474049 0.47408 0.474108 0.474132 0.474155 0.474174 
0.474192 0.474207 0.474221 0.474233 0.474244 0.474254 0.474264 0.474274 0.47428 
0.474253 0.474312 0.474131 0.469001 0.464639 0.46708 0.469764 0.474823 0.478467 
0.480885 0.484702 0.487389 0.489373 0.49232 0.495939 0.500314 0.50532 0.509778 
0.51489 0.519601 0.525073 0.525178 0.523587 0.523563 0.520301 0.514078 0.511762 
0.508458 0.506661 0.505952 0.489498 0.490899 0.491354 0.491457 0.491898 0.491916 
0.493585 0.495449 0.493505 0.476606 0.475518 0.47556 0.475598 0.475632 0.475662 
0.475688 0.475712 0.475733 0.475752 0.475768 0.475783 0.475796 0.475807 0.475817 
0.475826 0.475834 0.475841 0.475846 0.475852 0.475856 0.47586 0.475863 0.475866 
0.475868 0.47587 0.475872 0.475873 0.475874 0.475875 0.475875 0.475876 0.475876 
0.475876 0.475876 0.475876 0.475876 0.475876 0.475875 0.475875 0.475875 0.475874 
0.475874 0.475873 0.475873 0.475872 0.475872 0.475871 0.475871 0.47587 0.47587 
0.47587 0.475869 0.475869 0.475868 0.475868 0.475868 0.475868 0.475867 0.475867 
0.475867 0.475867 0.475867 0.475867 0.475867 0.475867 0.475867 0.475867 0.475868 
0.475868 0.475868 0.475868 0.475869 0.475869 0.47587 0.47587 0.475871 0.475871 
0.475872 0.475873 0.475874 0.475874 0.475875 0.475876 0.475877 0.475875 0.474489 
0.47037 0.759986 0.759958 0.759929 0.759898 0.759866 0.759834 0.7598 0.759765 
0.75973 0.759694 0.759659 0.759624 0.759591 0.759559 0.759529 0.759502 0.759478 
0.759458 0.759441 0.759428 0.75942 0.759417 0.759418 0.759424 0.759435 0.75945 
0.759471 0.759496 0.759526 0.759559 0.759598 0.75964 0.759685 0.759735 0.759787 
0.759842 0.7599 0.75996 0.760021 0.760083 0.760146 0.760209 0.760271 0.760332 
0.760392 0.760449 0.760504 0.760555 0.760604 0.760648 0.760689 0.760725 0.760756 
0.760783 0.760805 0.760822 0.760834 0.760841 0.760842 0.760838 0.760828 0.760813 
0.760792 0.760766 0.760734 0.760697 0.760654 0.760606 0.760553 0.760497 0.760438 
0.760377 0.760315 0.760252 0.760189 0.760127 0.760066 0.760006 0.759948 0.759892 
0.759838 0.759786 0.759737 0.759692 0.759649 0.759611 0.759577 0.759547 0.759521 
0.759501 0.759484 0.759472 0.759463 0.759458 0.759455 0.759454 0.759454 0.759454 
0.759454 0.759453 0.759451 0.75945 0.75945 0.759452 0.759458 0.75947 0.759489 
0.759517 0.759557 0.759607 0.759668 0.759736 0.75981 0.759887 0.759965 0.76004 
0.76011 0.760174 0.760229 0.760275 0.760312 0.760342 0.760365 0.760384 0.7604 
0.760417 0.760437 0.760463 0.760499 0.760539 0.760639 0.760547 0.75587 0.743779 
0.725349 0.701837 0.674507 0.644608 0.613366 0.582001 0.551843 0.524378 0.501301 
0.484305 0.475047 0.473647 0.473726 0.473794 0.473854 0.473907 0.473953 0.473994 
0.474031 0.474064 0.474093 0.47412 0.474143 0.474164 0.474183 0.4742 0.474214 
0.474227 0.474238 0.474248 0.474257 0.474265 0.474275 0.474282 0.474263 0.474337 
0.474156 0.469029 0.463408 0.46541 0.467399 0.471625 0.474144 0.476166 0.478274 
0.480502 0.483091 0.486191 0.48858 0.49107 0.494471 0.497711 0.501562 0.508623 
0.508657 0.505408 0.506156 0.496713 0.498028 0.500105 0.504078 0.50655 0.506968 
0.506679 0.491034 0.491667 0.492369 0.492933 0.493469 0.493519 0.495289 0.49702 
0.494887 0.476545 0.475532 0.475574 0.47561 0.475643 0.475672 0.475698 0.475721 
0.475742 0.475759 0.475775 0.475789 0.475802 0.475813 0.475822 0.47583 0.475838 
0.475844 0.47585 0.475855 0.475859 0.475862 0.475865 0.475868 0.47587 0.475872 
0.475873 0.475874 0.475875 0.475876 0.475876 0.475877 0.475877 0.475877 0.475877 
0.475877 0.475877 0.475876 0.475876 0.475875 0.475875 0.475875 0.475874 0.475874 
0.475873 0.475872 0.475872 0.475871 0.475871 0.47587 0.47587 0.47587 0.475869 
0.475869 0.475868 0.475868 0.475868 0.475868 0.475867 0.475867 0.475867 0.475867 
0.475867 0.475867 0.475867 0.475867 0.475867 0.475867 0.475868 0.475868 0.475868 
0.475868 0.475869 0.475869 0.47587 0.47587 0.475871 0.475871 0.475872 0.475873 
0.475874 0.475874 0.475875 0.475876 0.475877 0.475875 0.474489 0.47037 0.759986 
0.759957 0.759927 0.759896 0.759864 0.75983 0.759795 0.75976 0.759723 0.759687 
0.759651 0.759615 0.75958 0.759547 0.759517 0.759489 0.759464 0.759443 0.759426 
0.759414 0.759406 0.759403 0.759404 0.75941 0.759422 0.759437 0.759458 0.759483 
0.759513 0.759547 0.759585 0.759627 0.759672 0.759722 0.759774 0.759829 0.759887 
0.759947 0.760009 0.760072 0.760135 0.760199 0.760262 0.760325 0.760386 0.760445 
0.760501 0.760554 0.760604 0.760651 0.760693 0.760731 0.760764 0.760793 0.760817 
0.760835 0.760849 0.760857 0.760859 0.760856 0.760847 0.760832 0.760811 0.760784 
0.76075 0.760711 0.760666 0.760616 0.76056 0.760501 0.760439 0.760375 0.76031 
0.760245 0.760181 0.760118 0.760055 0.759995 0.759936 0.759879 0.759824 0.759771 
0.759721 0.759673 0.75963 0.759591 0.759556 0.759525 0.7595 0.75948 0.759465 
0.759454 0.759447 0.759444 0.759443 0.759444 0.759446 0.759447 0.759447 0.759445 
0.759442 0.759437 0.759433 0.75943 0.759431 0.759439 0.759454 0.759481 0.759521 
0.759574 0.759638 0.759712 0.759792 0.759877 0.759961 0.760043 0.760119 0.760187 
0.760244 0.760291 0.760327 0.760353 0.76037 0.760382 0.760389 0.760395 0.760404 
0.760419 0.760444 0.760475 0.760571 0.760479 0.755815 0.743762 0.725391 0.701933 
0.674631 0.644724 0.613448 0.582045 0.551845 0.524375 0.501323 0.484353 0.475102 
0.473697 0.473771 0.473834 0.47389 0.473938 0.47398 0.474018 0.474052 0.474082 
0.47411 0.474134 0.474157 0.474176 0.474194 0.47421 0.474223 0.474235 0.474244 
0.474252 0.474259 0.474266 0.474273 0.474278 0.474269 0.474333 0.474192 0.471076 
0.46653 0.466999 0.467399 0.467409 0.46659 0.465763 0.46797 0.469837 0.471112 
0.47456 0.475992 0.476302 0.477932 0.480591 0.482419 0.483239 0.484127 0.487183 
0.487828 0.489502 0.492995 0.496992 0.499655 0.503265 0.503897 0.506144 0.491885 
0.492018 0.493639 0.494357 0.493941 0.493611 0.496542 0.498509 0.496329 0.476716 
0.47555 0.47559 0.475626 0.475658 0.475686 0.475711 0.475732 0.475752 0.475769 
0.475784 0.475797 0.475809 0.475819 0.475828 0.475836 0.475843 0.475848 0.475854 
0.475858 0.475862 0.475865 0.475868 0.47587 0.475872 0.475874 0.475875 0.475876 
0.475877 0.475877 0.475878 0.475878 0.475878 0.475878 0.475878 0.475877 0.475877 
0.475877 0.475876 0.475876 0.475875 0.475875 0.475874 0.475874 0.475873 0.475873 
0.475872 0.475872 0.475871 0.475871 0.47587 0.47587 0.475869 0.475869 0.475869 
0.475868 0.475868 0.475868 0.475867 0.475867 0.475867 0.475867 0.475867 0.475867 
0.475867 0.475867 0.475867 0.475867 0.475868 0.475868 0.475868 0.475868 0.475869 
0.475869 0.47587 0.47587 0.475871 0.475871 0.475872 0.475873 0.475874 0.475874 
0.475875 0.475876 0.475877 0.475875 0.474489 0.47037 0.759986 0.759956 0.759926 
0.759894 0.759861 0.759827 0.759791 0.759755 0.759717 0.75968 0.759643 0.759606 
0.75957 0.759537 0.759506 0.759477 0.759452 0.759431 0.759414 0.759401 0.759394 
0.759391 0.759393 0.7594 0.759411 0.759427 0.759448 0.759473 0.759502 0.759536 
0.759574 0.759616 0.759661 0.75971 0.759762 0.759818 0.759876 0.759936 0.759998 
0.760061 0.760125 0.76019 0.760254 0.760318 0.76038 0.76044 0.760498 0.760553 
0.760605 0.760653 0.760697 0.760736 0.760771 0.760802 0.760827 0.760847 0.760862 
0.760871 0.760875 0.760873 0.760864 0.760849 0.760829 0.760801 0.760767 0.760726 
0.760679 0.760625 0.760567 0.760505 0.760439 0.760372 0.760305 0.760237 0.760171 
0.760106 0.760043 0.759982 0.759922 0.759863 0.759807 0.759753 0.759701 0.759652 
0.759607 0.759566 0.75953 0.759499 0.759474 0.759454 0.75944 0.759431 0.759427 
0.759426 0.759429 0.759433 0.759437 0.75944 0.75944 0.759438 0.759433 0.759425 
0.759416 0.759409 0.759405 0.759409 0.759423 0.75945 0.759492 0.759547 0.759615 
0.759694 0.75978 0.759871 0.759962 0.760051 0.760133 0.760205 0.760266 0.760313 
0.760347 0.760369 0.76038 0.760382 0.760378 0.760371 0.760365 0.760365 0.760375 
0.760395 0.760482 0.76039 0.755731 0.743696 0.725359 0.701939 0.674665 0.644773 
0.613499 0.582096 0.551886 0.52442 0.501383 0.484422 0.475169 0.473757 0.473825 
0.473882 0.473932 0.473974 0.474012 0.474045 0.474076 0.474103 0.474128 0.474151 
0.474172 0.474191 0.474207 0.474222 0.474234 0.474244 0.474252 0.474259 0.474263 
0.474265 0.474267 0.474267 0.474264 0.474279 0.476225 0.47818 0.477653 0.47454 
0.476053 0.47591 0.474279 0.474602 0.476944 0.47856 0.479692 0.479644 0.479479 
0.480839 0.481144 0.482736 0.484646 0.484692 0.48572 0.486939 0.488983 0.489357 
0.489232 0.491547 0.493316 0.495039 0.499087 0.502666 0.492005 0.49257 0.494653 
0.495357 0.494861 0.494442 0.496886 0.499347 0.497506 0.476834 0.475571 0.475611 
0.475645 0.475675 0.475702 0.475725 0.475746 0.475764 0.47578 0.475794 0.475807 
0.475817 0.475827 0.475835 0.475842 0.475848 0.475854 0.475858 0.475862 0.475866 
0.475868 0.475871 0.475873 0.475875 0.475876 0.475877 0.475878 0.475878 0.475879 
0.475879 0.475879 0.475879 0.475879 0.475879 0.475878 0.475878 0.475877 0.475877 
0.475876 0.475876 0.475875 0.475875 0.475874 0.475874 0.475873 0.475872 0.475872 
0.475871 0.475871 0.47587 0.47587 0.475869 0.475869 0.475869 0.475868 0.475868 
0.475868 0.475868 0.475867 0.475867 0.475867 0.475867 0.475867 0.475867 0.475867 
0.475867 0.475867 0.475868 0.475868 0.475868 0.475868 0.475869 0.475869 0.47587 
0.47587 0.475871 0.475871 0.475872 0.475873 0.475874 0.475874 0.475875 0.475876 
0.475877 0.475875 0.474489 0.47037 0.759985 0.759955 0.759924 0.759892 0.759858 
0.759824 0.759787 0.75975 0.759713 0.759674 0.759636 0.759599 0.759563 0.759529 
0.759497 0.759468 0.759443 0.759422 0.759405 0.759393 0.759385 0.759383 0.759386 
0.759393 0.759405 0.759421 0.759441 0.759466 0.759495 0.759528 0.759566 0.759607 
0.759652 0.7597 0.759752 0.759807 0.759865 0.759925 0.759987 0.760051 0.760116 
0.760181 0.760246 0.760311 0.760374 0.760436 0.760495 0.760551 0.760604 0.760653 
0.760699 0.76074 0.760776 0.760808 0.760835 0.760856 0.760872 0.760883 0.760887 
0.760886 0.760879 0.760865 0.760844 0.760816 0.760781 0.760739 0.76069 0.760634 
0.760573 0.760507 0.760438 0.760368 0.760298 0.760229 0.760161 0.760095 0.760031 
0.759968 0.759907 0.759847 0.759789 0.759733 0.759679 0.759628 0.759581 0.759538 
0.759501 0.759469 0.759443 0.759424 0.759411 0.759404 0.759402 0.759405 0.759411 
0.759419 0.759427 0.759433 0.759435 0.759434 0.759428 0.759419 0.759408 0.759398 
0.759392 0.759394 0.759407 0.759434 0.759476 0.759532 0.759602 0.759683 0.759772 
0.759868 0.759966 0.760061 0.760149 0.760226 0.76029 0.760338 0.760371 0.760388 
0.760392 0.760385 0.760369 0.760347 0.760323 0.760303 0.760292 0.760294 0.760371 
0.760274 0.755619 0.743598 0.725282 0.701893 0.674653 0.644789 0.61354 0.582158 