# vtk DataFile Version 5.1
vtk output
ASCII
DATASET UNSTRUCTURED_GRID
POINTS 10043 double
-10.1 1.4499999993 0 -10.049999999 1.4499999993 0 -10.049999999 1.5 0 
-9.9999999985 1.4499999993 0 -9.9999999985 1.5 0 -9.9499999978 1.4499999993 0 
-9.9499999978 1.5 0 -9.899999997 1.4499999993 0 -9.899999997 1.5 0 
-9.8499999963 1.4499999993 0 -9.8499999963 1.5 0 -9.7999999955 1.4499999993 0 
-9.7999999955 1.5 0 -9.7499999948 1.4499999993 0 -9.7499999948 1.5 0 
-9.699999994 1.4499999993 0 -9.699999994 1.5 0 -9.6499999933 1.4499999993 0 
-9.6499999933 1.5 0 -9.5999999925 1.4499999993 0 -9.5999999925 1.5 0 
-9.5499999918 1.4499999993 0 -9.5499999918 1.5 0 -9.4999999911 1.4499999993 0 
-9.4999999911 1.5 0 -9.4499999903 1.4499999993 0 -9.4499999903 1.5 0 
-9.3999999896 1.4499999993 0 -9.3999999896 1.5 0 -9.3499999888 1.4499999993 0 
-9.3499999888 1.5 0 -9.2999999881 1.4499999993 0 -9.2999999881 1.5 0 
-9.2499999873 1.4499999993 0 -9.2499999873 1.5 0 -9.1999999866 1.4499999993 0 
-9.1999999866 1.5 0 -9.1499999858 1.4499999993 0 -9.1499999858 1.5 0 
-9.0999999851 1.4499999993 0 -9.0999999851 1.5 0 -9.0499999844 1.4499999993 0 
-9.0499999844 1.5 0 -8.9999999836 1.4499999993 0 -8.9999999836 1.5 0 
-8.9499999829 1.4499999993 0 -8.9499999829 1.5 0 -8.8999999821 1.4499999993 0 
-8.8999999821 1.5 0 -8.8499999814 1.4499999993 0 -8.8499999814 1.5 0 
-8.7999999806 1.4499999993 0 -8.7999999806 1.5 0 -8.7499999799 1.4499999993 0 
-8.7499999799 1.5 0 -8.6999999791 1.4499999993 0 -8.6999999791 1.5 0 
-8.6499999784 1.4499999993 0 -8.6499999784 1.5 0 -8.5999999776 1.4499999993 0 
-8.5999999776 1.5 0 -8.5499999769 1.4499999993 0 -8.5499999769 1.5 0 
-8.4999999762 1.4499999993 0 -8.4999999762 1.5 0 -8.4499999754 1.4499999993 0 
-8.4499999754 1.5 0 -8.3999999747 1.4499999993 0 -8.3999999747 1.5 0 
-8.3499999739 1.4499999993 0 -8.3499999739 1.5 0 -8.2999999732 1.4499999993 0 
-8.2999999732 1.5 0 -8.2499999724 1.4499999993 0 -8.2499999724 1.5 0 
-8.1999999717 1.4499999993 0 -8.1999999717 1.5 0 -8.1499999709 1.4499999993 0 
-8.1499999709 1.5 0 -8.0999999702 1.4499999993 0 -8.0999999702 1.5 0 
-8.0499999695 1.4499999993 0 -8.0499999695 1.5 0 -7.9999999687 1.4499999993 0 
-7.9999999687 1.5 0 -7.949999968 1.4499999993 0 -7.949999968 1.5 0 
-7.8999999672 1.4499999993 0 -7.8999999672 1.5 0 -7.8499999665 1.4499999993 0 
-7.8499999665 1.5 0 -7.7999999657 1.4499999993 0 -7.7999999657 1.5 0 
-7.749999965 1.4499999993 0 -7.749999965 1.5 0 -7.6999999642 1.4499999993 0 
-7.6999999642 1.5 0 -7.6499999635 1.4499999993 0 -7.6499999635 1.5 0 
-7.5999999627 1.4499999993 0 -7.5999999627 1.5 0 -7.549999962 1.4499999993 0 
-7.549999962 1.5 0 -7.4999999613 1.4499999993 0 -7.4999999613 1.5 0 
-7.4499999605 1.4499999993 0 -7.4499999605 1.5 0 -7.3999999598 1.4499999993 0 
-7.3999999598 1.5 0 -7.349999959 1.4499999993 0 -7.349999959 1.5 0 
-7.2999999583 1.4499999993 0 -7.2999999583 1.5 0 -7.2499999575 1.4499999993 0 
-7.2499999575 1.5 0 -7.1999999568 1.4499999993 0 -7.1999999568 1.5 0 
-7.149999956 1.4499999993 0 -7.149999956 1.5 0 -7.0999999553 1.4499999993 0 
-7.0999999553 1.5 0 -7.0499999546 1.4499999993 0 -7.0499999546 1.5 0 
-6.9999999538 1.4499999993 0 -6.9999999538 1.5 0 -6.9499999531 1.4499999993 0 
-6.9499999531 1.5 0 -6.8999999523 1.4499999993 0 -6.8999999523 1.5 0 
-6.8499999516 1.4499999993 0 -6.8499999516 1.5 0 -6.7999999508 1.4499999993 0 
-6.7999999508 1.5 0 -6.7499999501 1.4499999993 0 -6.7499999501 1.5 0 
-6.6999999493 1.4499999993 0 -6.6999999493 1.5 0 -6.6499999486 1.4499999993 0 
-6.6499999486 1.5 0 -6.5999999478 1.4499999993 0 -6.5999999478 1.5 0 
-6.5499999471 1.4499999993 0 -6.5499999471 1.5 0 -6.4999999464 1.4499999993 0 
-6.4999999464 1.5 0 -6.4499999456 1.4499999993 0 -6.4499999456 1.5 0 
-6.3999999449 1.4499999993 0 -6.3999999449 1.5 0 -6.3499999441 1.4499999993 0 
-6.3499999441 1.5 0 -6.2999999434 1.4499999993 0 -6.2999999434 1.5 0 
-6.2499999426 1.4499999993 0 -6.2499999426 1.5 0 -6.1999999419 1.4499999993 0 
-6.1999999419 1.5 0 -6.1499999411 1.4499999993 0 -6.1499999411 1.5 0 
-6.0999999404 1.4499999993 0 -6.0999999404 1.5 0 -6.0499999397 1.4499999993 0 
-6.0499999397 1.5 0 -5.9999999389 1.4499999993 0 -5.9999999389 1.5 0 
-5.9499999382 1.4499999993 0 -5.9499999382 1.5 0 -5.8999999374 1.4499999993 0 
-5.8999999374 1.5 0 -5.8499999367 1.4499999993 0 -5.8499999367 1.5 0 
-5.7999999359 1.4499999993 0 -5.7999999359 1.5 0 -5.7499999352 1.4499999993 0 
-5.7499999352 1.5 0 -5.6999999344 1.4499999993 0 -5.6999999344 1.5 0 
-5.6499999337 1.4499999993 0 -5.6499999337 1.5 0 -5.5999999329 1.4499999993 0 
-5.5999999329 1.5 0 -5.5499999322 1.4499999993 0 -5.5499999322 1.5 0 
-5.4999999315 1.4499999993 0 -5.4999999315 1.5 0 -5.4499999307 1.4499999993 0 
-5.4499999307 1.5 0 -5.39999993 1.4499999993 0 -5.39999993 1.5 0 
-5.3499999292 1.4499999993 0 -5.3499999292 1.5 0 -5.2999999285 1.4499999993 0 
-5.2999999285 1.5 0 -5.2499999277 1.4499999993 0 -5.2499999277 1.5 0 
-5.199999927 1.4499999993 0 -5.199999927 1.5 0 -5.1499999262 1.4499999993 0 
-5.1499999262 1.5 0 -5.0999999255 1.4499999993 0 -5.0999999255 1.5 0 
-5.0499999247 1.4499999993 0 -5.0499999247 1.5 0 -4.999999924 1.4499999993 0 
-4.999999924 1.5 0 -4.9499999233 1.4499999993 0 -4.9499999233 1.5 0 
-4.8999999225 1.4499999993 0 -4.8999999225 1.5 0 -4.8499999218 1.4499999993 0 
-4.8499999218 1.5 0 -4.799999921 1.4499999993 0 -4.799999921 1.5 0 
-4.7499999203 1.4499999993 0 -4.7499999203 1.5 0 -4.6999999195 1.4499999993 0 
-4.6999999195 1.5 0 -4.6499999188 1.4499999993 0 -4.6499999188 1.5 0 
-4.599999918 1.4499999993 0 -4.599999918 1.5 0 -4.5499999173 1.4499999993 0 
-4.5499999173 1.5 0 -4.4999999166 1.4499999993 0 -4.4999999166 1.5 0 
-4.4499999158 1.4499999993 0 -4.4499999158 1.5 0 -4.3999999151 1.4499999993 0 
-4.3999999151 1.5 0 -4.3499999143 1.4499999993 0 -4.3499999143 1.5 0 
-4.2999999136 1.4499999993 0 -4.2999999136 1.5 0 -4.2499999128 1.4499999993 0 
-4.2499999128 1.5 0 -4.1999999121 1.4499999993 0 -4.1999999121 1.5 0 
-4.1499999113 1.4499999993 0 -4.1499999113 1.5 0 -4.0999999106 1.4499999993 0 
-4.0999999106 1.5 0 -4.0499999098 1.4499999993 0 -4.0499999098 1.5 0 
-3.9999999091 1.4499999993 0 -3.9999999091 1.5 0 -3.9499999084 1.4499999993 0 
-3.9499999084 1.5 0 -3.8999999076 1.4499999993 0 -3.8999999076 1.5 0 
-3.8499999069 1.4499999993 0 -3.8499999069 1.5 0 -3.7999999061 1.4499999993 0 
-3.7999999061 1.5 0 -3.7499999054 1.4499999993 0 -3.7499999054 1.5 0 
-3.6999999046 1.4499999993 0 -3.6999999046 1.5 0 -3.6499999039 1.4499999993 0 
-3.6499999039 1.5 0 -3.5999999031 1.4499999993 0 -3.5999999031 1.5 0 
-3.5499999024 1.4499999993 0 -3.5499999024 1.5 0 -3.4999999017 1.4499999993 0 
-3.4999999017 1.5 0 -3.4499999009 1.4499999993 0 -3.4499999009 1.5 0 
-3.3999999002 1.4499999993 0 -3.3999999002 1.5 0 -3.3499998994 1.4499999993 0 
-3.3499998994 1.5 0 -3.2999998987 1.4499999993 0 -3.2999998987 1.5 0 
-3.2499998979 1.4499999993 0 -3.2499998979 1.5 0 -3.1999998972 1.4499999993 0 
-3.1999998972 1.5 0 -3.1499998964 1.4499999993 0 -3.1499998964 1.5 0 
-3.0999998957 1.4499999993 0 -3.0999998957 1.5 0 -3.0499998949 1.4499999993 0 
-3.0499998949 1.5 0 -2.9999998942 1.4499999993 0 -2.9999998942 1.5 0 
-2.9499998935 1.4499999993 0 -2.9499998935 1.5 0 -2.8999998927 1.4499999993 0 
-2.8999998927 1.5 0 -2.849999892 1.4499999993 0 -2.849999892 1.5 0 
-2.7999998912 1.4499999993 0 -2.7999998912 1.5 0 -2.7499998905 1.4499999993 0 
-2.7499998905 1.5 0 -2.6999998897 1.4499999993 0 -2.6999998897 1.5 0 
-2.649999889 1.4499999993 0 -2.649999889 1.5 0 -2.5999998882 1.4499999993 0 
-2.5999998882 1.5 0 -2.5499998875 1.4499999993 0 -2.5499998875 1.5 0 
-2.4999998868 1.4499999993 0 -2.4999998868 1.5 0 -2.449999886 1.4499999993 0 
-2.449999886 1.5 0 -2.3999998853 1.4499999993 0 -2.3999998853 1.5 0 
-2.3499998845 1.4499999993 0 -2.3499998845 1.5 0 -2.2999998838 1.4499999993 0 
-2.2999998838 1.5 0 -2.249999883 1.4499999993 0 -2.249999883 1.5 0 
-2.1999998823 1.4499999993 0 -2.1999998823 1.5 0 -2.1499998815 1.4499999993 0 
-2.1499998815 1.5 0 -2.0999998808 1.4499999993 0 -2.0999998808 1.5 0 
-2.04999988 1.4499999993 0 -2.04999988 1.5 0 -1.9999998793 1.4499999993 0 
-1.9999998793 1.5 0 -1.9499998786 1.4499999993 0 -1.9499998786 1.5 0 
-1.8999998778 1.4499999993 0 -1.8999998778 1.5 0 -1.8499998771 1.4499999993 0 
-1.8499998771 1.5 0 -1.7999998763 1.4499999993 0 -1.7999998763 1.5 0 
-1.7499998756 1.4499999993 0 -1.7499998756 1.5 0 -1.6999998748 1.4499999993 0 
-1.6999998748 1.5 0 -1.6499998741 1.4499999993 0 -1.6499998741 1.5 0 
-1.5999998733 1.4499999993 0 -1.5999998733 1.5 0 -1.5499998726 1.4499999993 0 
-1.5499998726 1.5 0 -1.4999998718 1.4499999993 0 -1.4999998718 1.5 0 
-1.4499998711 1.4499999993 0 -1.4499998711 1.5 0 -1.3999998704 1.4499999993 0 
-1.3999998704 1.5 0 -1.3499998696 1.4499999993 0 -1.3499998696 1.5 0 
-1.2999998689 1.4499999993 0 -1.2999998689 1.5 0 -1.2499998681 1.4499999993 0 
-1.2499998681 1.5 0 -1.1999998674 1.4499999993 0 -1.1999998674 1.5 0 
-1.1499998666 1.4499999993 0 -1.1499998666 1.5 0 -1.0999998659 1.4499999993 0 
-1.0999998659 1.5 0 -1.0499998651 1.4499999993 0 -1.0499998651 1.5 0 
-0.9999998644 1.4499999993 0 -0.9999998644 1.5 0 -0.94999986365 1.4499999993 0 
-0.94999986365 1.5 0 -0.89999986291 1.4499999993 0 -0.89999986291 1.5 0 
-0.84999986216 1.4499999993 0 -0.84999986216 1.5 0 -0.79999986142 1.4499999993 0 
-0.79999986142 1.5 0 -0.74999986067 1.4499999993 0 -0.74999986067 1.5 0 
-0.69999985993 1.4499999993 0 -0.69999985993 1.5 0 -0.64999985918 1.4499999993 0 
-0.64999985918 1.5 0 -0.59999985844 1.4499999993 0 -0.59999985844 1.5 0 
-0.54999985769 1.4499999993 0 -0.54999985769 1.5 0 -0.49999985695 1.4499999993 0 
-0.49999985695 1.5 0 -0.4499998562 1.4499999993 0 -0.4499998562 1.5 0 
-0.39999985546 1.4499999993 0 -0.39999985546 1.5 0 -0.34999985471 1.4499999993 0 
-0.34999985471 1.5 0 -0.29999985397 1.4499999993 0 -0.29999985397 1.5 0 
-0.24999985322 1.4499999993 0 -0.24999985322 1.5 0 -0.191663057 1.4499999993 0 
-0.17548248559 1.5 0 0.18862900414 1.4499999993 0 0.25000015423 1.4499999993 0 
[...]
CELL_DATA 9510
FIELD FieldData 4
Water_Depth_m 1 9510 float
0.440001 0.440003 0.440004 0.440006 0.440008 0.440009 0.440011 0.440013 0.440014 
0.440016 0.440018 0.440019 0.440021 0.440023 0.440024 0.440026 0.440028 0.440029 
0.440031 0.440033 0.440035 0.440036 0.440038 0.44004 0.440041 0.440043 0.440045 
0.440046 0.440048 0.44005 0.440051 0.440053 0.440055 0.440056 0.440058 0.44006 
0.440062 0.440063 0.440065 0.440067 0.440068 0.44007 0.440072 0.440073 0.440075 
0.440077 0.440079 0.44008 0.440082 0.440084 0.440085 0.440087 0.440089 0.44009 
0.440092 0.440094 0.440095 0.440097 0.440099 0.440101 0.440102 0.440104 0.440106 
0.440107 0.440109 0.440111 0.440113 0.440114 0.440116 0.440118 0.440119 0.440121 
0.440123 0.440124 0.440126 0.440128 0.44013 0.440131 0.440133 0.440135 0.440136 
0.440138 0.44014 0.440142 0.440143 0.440145 0.440147 0.440149 0.44015 0.440152 
0.440154 0.440155 0.440157 0.440159 0.440161 0.440162 0.440164 0.440166 0.440168 
0.440169 0.440171 0.440173 0.440175 0.440176 0.440178 0.44018 0.440182 0.440183 
0.440185 0.440187 0.440189 0.44019 0.440192 0.440194 0.440196 0.440198 0.440199 
0.440201 0.440203 0.440205 0.440207 0.440208 0.44021 0.440212 0.440214 0.440216 
0.440217 0.440219 0.440221 0.440223 0.440225 0.440227 0.440228 0.44023 0.440232 
0.440234 0.440236 0.440238 0.440239 0.440241 0.440243 0.440245 0.440247 0.440249 
0.440251 0.440252 0.440254 0.440256 0.440258 0.44026 0.440262 0.440264 0.440266 
0.440268 0.440269 0.440271 0.440273 0.440275 0.440277 0.440279 0.440281 0.440283 
0.440285 0.440287 0.440289 0.440291 0.440293 0.440295 0.440297 0.440299 0.440301 
0.440303 0.440305 0.440307 0.440309 0.440311 0.440313 0.440315 0.440318 0.44032 
0.440322 0.440324 0.440326 0.440329 0.440331 0.440333 0.440336 0.440338 0.440341 
0.440343 0.440346 0.440349 0.440352 0.440354 0.440359 0.440362 0.440365 0.440377 
0.519554 0.519402 0.519301 0.519225 0.519167 0.519124 0.519091 0.519066 0.519048 
0.519033 0.51902 0.519009 0.518998 0.518987 0.518977 0.518966 0.518956 0.518945 
0.518935 0.518925 0.518914 0.5189 0.518883 0.518864 0.518844 0.518827 0.518817 
0.518812 0.518812 0.518813 0.518813 0.518809 0.518798 0.518781 0.518756 0.518723 
0.518688 0.518658 0.518643 0.51865 0.518676 0.51871 0.518742 0.51877 0.518796 
0.518825 0.518857 0.518893 0.518932 0.518974 0.519015 0.519055 0.519092 0.519123 
0.519148 0.519166 0.519177 0.519184 0.519189 0.519189 0.519184 0.519173 0.519155 
0.51913 0.519095 0.519047 0.518981 0.518897 0.518799 0.51871 0.518666 0.518691 
0.518765 0.518851 0.518914 0.518945 0.51895 0.518931 0.518896 0.518858 0.518824 
0.518788 0.518731 0.518641 0.518517 0.518368 0.518217 0.518068 0.51793 0.517822 
0.517722 0.517684 0.517894 0.518315 0.517752 0.516104 0.513314 0.440001 0.440003 
0.440004 0.440006 0.440008 0.440009 0.440011 0.440013 0.440014 0.440016 0.440018 
0.440019 0.440021 0.440023 0.440024 0.440026 0.440028 0.440029 0.440031 0.440033 
0.440035 0.440036 0.440038 0.44004 0.440041 0.440043 0.440045 0.440046 0.440048 
0.44005 0.440051 0.440053 0.440055 0.440056 0.440058 0.44006 0.440062 0.440063 
0.440065 0.440067 0.440068 0.44007 0.440072 0.440073 0.440075 0.440077 0.440079 
0.44008 0.440082 0.440084 0.440085 0.440087 0.440089 0.44009 0.440092 0.440094 
0.440095 0.440097 0.440099 0.440101 0.440102 0.440104 0.440106 0.440107 0.440109 
0.440111 0.440113 0.440114 0.440116 0.440118 0.440119 0.440121 0.440123 0.440124 
0.440126 0.440128 0.44013 0.440131 0.440133 0.440135 0.440136 0.440138 0.44014 
0.440142 0.440143 0.440145 0.440147 0.440149 0.44015 0.440152 0.440154 0.440155 
0.440157 0.440159 0.440161 0.440162 0.440164 0.440166 0.440168 0.440169 0.440171 
0.440173 0.440175 0.440176 0.440178 0.44018 0.440182 0.440183 0.440185 0.440187 
0.440189 0.44019 0.440192 0.440194 0.440196 0.440198 0.440199 0.440201 0.440203 
0.440205 0.440207 0.440208 0.44021 0.440212 0.440214 0.440216 0.440217 0.440219 
0.440221 0.440223 0.440225 0.440227 0.440228 0.44023 0.440232 0.440234 0.440236 
0.440238 0.440239 0.440241 0.440243 0.440245 0.440247 0.440249 0.440251 0.440252 
0.440254 0.440256 0.440258 0.44026 0.440262 0.440264 0.440266 0.440268 0.440269 
0.440271 0.440273 0.440275 0.440277 0.440279 0.440281 0.440283 0.440285 0.440287 
0.440289 0.440291 0.440293 0.440295 0.440297 0.440299 0.440301 0.440303 0.440305 
0.440307 0.440309 0.440311 0.440313 0.440315 0.440318 0.44032 0.440322 0.440324 
0.440326 0.440329 0.440331 0.440333 0.440336 0.440338 0.440341 0.440343 0.440346 
0.440349 0.440352 0.440355 0.440357 0.44036 0.440363 0.440366 0.519479 0.519358 
0.51927 0.519202 0.519148 0.519111 0.519083 0.519062 0.519044 0.519029 0.519016 
0.519005 0.518994 0.518984 0.518976 0.518967 0.518957 0.518948 0.518938 0.518929 
0.518917 0.518901 0.51888 0.518854 0.51883 0.518812 0.518806 0.51881 0.518818 
0.518827 0.518828 0.51882 0.518805 0.518783 0.518752 0.518713 0.518672 0.518638 
0.518624 0.518637 0.51867 0.518706 0.518738 0.518763 0.518788 0.518815 0.518847 
0.518883 0.518923 0.518965 0.519007 0.519048 0.519084 0.519116 0.519141 0.519162 
0.519178 0.519192 0.519202 0.519202 0.519194 0.51918 0.51916 0.519133 0.519097 
0.519045 0.518971 0.518872 0.518754 0.518643 0.518592 0.518642 0.518751 0.518857 
0.518929 0.518968 0.518987 0.518953 0.518898 0.518848 0.518822 0.518808 0.518761 
0.518665 0.518527 0.518362 0.518192 0.518041 0.517926 0.517805 0.517644 0.517417 
0.51726 0.517437 0.516926 0.515548 0.51318 0.440001 0.440003 0.440004 0.440006 
0.440008 0.440009 0.440011 0.440013 0.440014 0.440016 0.440018 0.440019 0.440021 
0.440023 0.440024 0.440026 0.440028 0.440029 0.440031 0.440033 0.440035 0.440036 
0.440038 0.44004 0.440041 0.440043 0.440045 0.440046 0.440048 0.44005 0.440051 
0.440053 0.440055 0.440056 0.440058 0.44006 0.440062 0.440063 0.440065 0.440067 
0.440068 0.44007 0.440072 0.440073 0.440075 0.440077 0.440079 0.44008 0.440082 
0.440084 0.440085 0.440087 0.440089 0.44009 0.440092 0.440094 0.440095 0.440097 
0.440099 0.440101 0.440102 0.440104 0.440106 0.440107 0.440109 0.440111 0.440113 
0.440114 0.440116 0.440118 0.440119 0.440121 0.440123 0.440124 0.440126 0.440128 
0.44013 0.440131 0.440133 0.440135 0.440136 0.440138 0.44014 0.440142 0.440143 
0.440145 0.440147 0.440149 0.44015 0.440152 0.440154 0.440155 0.440157 0.440159 
0.440161 0.440162 0.440164 0.440166 0.440168 0.440169 0.440171 0.440173 0.440175 
0.440176 0.440178 0.44018 0.440182 0.440183 0.440185 0.440187 0.440189 0.44019 
0.440192 0.440194 0.440196 0.440198 0.440199 0.440201 0.440203 0.440205 0.440207 
0.440208 0.44021 0.440212 0.440214 0.440216 0.440217 0.440219 0.440221 0.440223 
0.440225 0.440227 0.440228 0.44023 0.440232 0.440234 0.440236 0.440238 0.440239 
0.440241 0.440243 0.440245 0.440247 0.440249 0.440251 0.440252 0.440254 0.440256 
0.440258 0.44026 0.440262 0.440264 0.440266 0.440268 0.440269 0.440271 0.440273 
0.440275 0.440277 0.440279 0.440281 0.440283 0.440285 0.440287 0.440289 0.440291 
0.440293 0.440295 0.440297 0.440299 0.440301 0.440303 0.440305 0.440307 0.440309 
0.440311 0.440313 0.440315 0.440318 0.44032 0.440322 0.440324 0.440326 0.440329 
0.440331 0.440333 0.440336 0.440338 0.440341 0.440343 0.440346 0.440349 0.440351 
0.440354 0.440357 0.44036 0.440363 0.440368 0.519384 0.519297 0.519231 0.519179 
0.519141 0.519113 0.519087 0.519063 0.519042 0.519023 0.519008 0.518994 0.518982 
0.518971 0.518962 0.518954 0.518948 0.518941 0.518934 0.518925 0.518913 0.518897 
0.518877 0.518854 0.518834 0.518821 0.518813 0.518808 0.518807 0.518809 0.518815 
0.518813 0.518801 0.518777 0.518743 0.518702 0.518659 0.518626 0.518615 0.518635 
0.518673 0.518708 0.518734 0.518753 0.518773 0.518799 0.51883 0.518867 0.518909 
0.518953 0.518997 0.51904 0.519079 0.519111 0.519137 0.519155 0.519165 0.51917 
0.519172 0.519178 0.519178 0.519171 0.519155 0.519129 0.51909 0.519033 0.51895 
0.518838 0.518703 0.518578 0.518533 0.518629 0.518755 0.518844 0.518878 0.518881 
0.51887 0.518862 0.518869 0.518844 0.518846 0.518845 0.518791 0.518676 0.518513 
0.518318 0.518117 0.517962 0.517893 0.517829 0.517682 0.517392 0.516909 0.516345 
0.515598 0.514616 0.512825 0.440001 0.440003 0.440004 0.440006 0.440008 0.440009 
0.440011 0.440013 0.440014 0.440016 0.440018 0.440019 0.440021 0.440023 0.440024 
0.440026 0.440028 0.440029 0.440031 0.440033 0.440035 0.440036 0.440038 0.44004 
0.440041 0.440043 0.440045 0.440046 0.440048 0.44005 0.440051 0.440053 0.440055 
0.440056 0.440058 0.44006 0.440062 0.440063 0.440065 0.440067 0.440068 0.44007 
0.440072 0.440073 0.440075 0.440077 0.440079 0.44008 0.440082 0.440084 0.440085 
0.440087 0.440089 0.44009 0.440092 0.440094 0.440095 0.440097 0.440099 0.440101 
0.440102 0.440104 0.440106 0.440107 0.440109 0.440111 0.440113 0.440114 0.440116 
0.440118 0.440119 0.440121 0.440123 0.440124 0.440126 0.440128 0.44013 0.440131 
0.440133 0.440135 0.440136 0.440138 0.44014 0.440142 0.440143 0.440145 0.440147 
0.440149 0.44015 0.440152 0.440154 0.440155 0.440157 0.440159 0.440161 0.440162 
0.440164 0.440166 0.440168 0.440169 0.440171 0.440173 0.440175 0.440176 0.440178 
0.44018 0.440182 0.440183 0.440185 0.440187 0.440189 0.44019 0.440192 0.440194 
0.440196 0.440198 0.440199 0.440201 0.440203 0.440205 0.440207 0.440208 0.44021 
0.440212 0.440214 0.440216 0.440217 0.440219 0.440221 0.440223 0.440225 0.440227 
0.440228 0.44023 0.440232 0.440234 0.440236 0.440238 0.440239 0.440241 0.440243 
0.440245 0.440247 0.440249 0.440251 0.440252 0.440254 0.440256 0.440258 0.44026 
0.440262 0.440264 0.440266 0.440268 0.440269 0.440271 0.440273 0.440275 0.440277 
0.440279 0.440281 0.440283 0.440285 0.440287 0.440289 0.440291 0.440293 0.440295 
0.440297 0.440299 0.440301 0.440303 0.440305 0.440307 0.440309 0.440311 0.440313 
0.440315 0.440317 0.44032 0.440322 0.440324 0.440326 0.440329 0.440331 0.440333 
0.440336 0.440338 0.440341 0.440343 0.440346 0.440348 0.440351 0.440354 0.440357 
0.44036 0.440363 0.440369 0.519317 0.51926 0.519214 0.519174 0.519137 0.519105 
0.519075 0.519049 0.519028 0.51901 0.518994 0.51898 0.518968 0.518956 0.518944 
0.518934 0.518925 0.518918 0.518913 0.518907 0.518899 0.518887 0.51887 0.518852 
0.518835 0.518824 0.518817 0.518813 0.518808 0.518803 0.5188 0.518797 0.518788 
0.518767 0.518735 0.518696 0.518656 0.518629 0.518627 0.518659 0.518693 0.518715 
0.518725 0.518734 0.518749 0.518772 0.518804 0.518842 0.518886 0.518932 0.518979 
0.519025 0.519067 0.519102 0.519131 0.519151 0.519162 0.519166 0.519162 0.519152 
0.519137 0.519123 0.51911 0.519091 0.519059 0.519006 0.518925 0.518814 0.518686 
0.518581 0.518561 0.518644 0.518762 0.518839 0.518859 0.518852 0.51884 0.518827 
0.518806 0.518766 0.518724 0.518709 0.518712 0.518636 0.518492 0.518311 0.518133 
0.518022 0.518063 0.517957 0.517647 0.517141 0.516595 0.51613 0.515279 0.5142 
0.513943 0.440001 0.440003 0.440004 0.440006 0.440008 0.440009 0.440011 0.440013 
0.440014 0.440016 0.440018 0.440019 0.440021 0.440023 0.440024 0.440026 0.440028 
0.440029 0.440031 0.440033 0.440035 0.440036 0.440038 0.44004 0.440041 0.440043 
0.440045 0.440046 0.440048 0.44005 0.440051 0.440053 0.440055 0.440056 0.440058 
0.44006 0.440062 0.440063 0.440065 0.440067 0.440068 0.44007 0.440072 0.440073 
0.440075 0.440077 0.440079 0.44008 0.440082 0.440084 0.440085 0.440087 0.440089 
0.44009 0.440092 0.440094 0.440095 0.440097 0.440099 0.440101 0.440102 0.440104 
0.440106 0.440107 0.440109 0.440111 0.440113 0.440114 0.440116 0.440118 0.440119 
0.440121 0.440123 0.440124 0.440126 0.440128 0.44013 0.440131 0.440133 0.440135 
0.440136 0.440138 0.44014 0.440142 0.440143 0.440145 0.440147 0.440149 0.44015 
0.440152 0.440154 0.440155 0.440157 0.440159 0.440161 0.440162 0.440164 0.440166 
0.440168 0.440169 0.440171 0.440173 0.440175 0.440176 0.440178 0.44018 0.440182 
0.440183 0.440185 0.440187 0.440189 0.44019 0.440192 0.440194 0.440196 0.440198 
0.440199 0.440201 0.440203 0.440205 0.440207 0.440208 0.44021 0.440212 0.440214 
0.440216 0.440217 0.440219 0.440221 0.440223 0.440225 0.440227 0.440228 0.44023 
0.440232 0.440234 0.440236 0.440238 0.440239 0.440241 0.440243 0.440245 0.440247 
0.440249 0.440251 0.440252 0.440254 0.440256 0.440258 0.44026 0.440262 0.440264 
0.440266 0.440268 0.440269 0.440271 0.440273 0.440275 0.440277 0.440279 0.440281 
0.440283 0.440285 0.440287 0.440289 0.440291 0.440293 0.440295 0.440297 0.440299 
0.440301 0.440303 0.440305 0.440307 0.440309 0.440311 0.440313 0.440315 0.440317 
0.44032 0.440322 0.440324 0.440326 0.440328 0.440331 0.440333 0.440335 0.440338 
0.44034 0.440343 0.440345 0.440348 0.440351 0.440354 0.440357 0.44036 0.440363 
0.44037 0.519253 0.519216 0.519182 0.519149 0.519116 0.519085 0.519058 0.519034 
0.519013 0.518995 0.518979 0.518965 0.518951 0.518937 0.518923 0.518911 0.518899 
0.51889 0.518884 0.518879 0.518875 0.518868 0.518858 0.518845 0.518833 0.518823 
0.518817 0.518813 0.51881 0.518804 0.518795 0.518785 0.518774 0.518756 0.51873 
0.518699 0.51867 0.518655 0.518662 0.518688 0.518706 0.518708 0.518701 0.518702 
0.518714 0.518738 0.518771 0.518811 0.518856 0.518904 0.518954 0.519002 0.519047 
0.519085 0.519116 0.519137 0.519149 0.519152 0.519148 0.519136 0.519116 0.51909 
0.519063 0.519037 0.519008 0.518969 0.518905 0.518816 0.518716 0.518639 0.518629 
0.518708 0.518824 0.518887 0.518878 0.518846 0.518822 0.518806 0.518789 0.518756 
0.518696 0.518626 0.518583 0.518581 0.518531 0.518435 0.518364 0.518473 0.518509 
0.518293 0.517818 0.517117 0.51626 0.515436 0.514739 0.514212 0.514058 0.440001 
0.440003 0.440004 0.440006 0.440008 0.440009 0.440011 0.440013 0.440014 0.440016 
0.440018 0.440019 0.440021 0.440023 0.440024 0.440026 0.440028 0.440029 0.440031 
0.440033 0.440035 0.440036 0.440038 0.44004 0.440041 0.440043 0.440045 0.440046 
0.440048 0.44005 0.440051 0.440053 0.440055 0.440056 0.440058 0.44006 0.440062 
0.440063 0.440065 0.440067 0.440068 0.44007 0.440072 0.440073 0.440075 0.440077 
0.440079 0.44008 0.440082 0.440084 0.440085 0.440087 0.440089 0.44009 0.440092 
0.440094 0.440095 0.440097 0.440099 0.440101 0.440102 0.440104 0.440106 0.440107 
0.440109 0.440111 0.440113 0.440114 0.440116 0.440118 0.440119 0.440121 0.440123 
0.440124 0.440126 0.440128 0.44013 0.440131 0.440133 0.440135 0.440136 0.440138 
0.44014 0.440142 0.440143 0.440145 0.440147 0.440149 0.44015 0.440152 0.440154 
0.440155 0.440157 0.440159 0.440161 0.440162 0.440164 0.440166 0.440168 0.440169 
0.440171 0.440173 0.440175 0.440176 0.440178 0.44018 0.440182 0.440183 0.440185 
0.440187 0.440189 0.44019 0.440192 0.440194 0.440196 0.440198 0.440199 0.440201 
0.440203 0.440205 0.440207 0.440208 0.44021 0.440212 0.440214 0.440216 0.440217 
0.440219 0.440221 0.440223 0.440225 0.440227 0.440228 0.44023 0.440232 0.440234 
0.440236 0.440238 0.440239 0.440241 0.440243 0.440245 0.440247 0.440249 0.440251 
0.440252 0.440254 0.440256 0.440258 0.44026 0.440262 0.440264 0.440266 0.440268 
0.440269 0.440271 0.440273 0.440275 0.440277 0.440279 0.440281 0.440283 0.440285 
0.440287 0.440289 0.440291 0.440293 0.440295 0.440297 0.440299 0.440301 0.440303 
0.440305 0.440307 0.440309 0.440311 0.440313 0.440315 0.440317 0.440319 0.440322 
0.440324 0.440326 0.440328 0.440331 0.440333 0.440335 0.440338 0.44034 0.440343 
0.440345 0.440348 0.440351 0.440353 0.440356 0.44036 0.440363 0.440369 0.519191 
0.519167 0.519143 0.519117 0.519089 0.519062 0.519037 0.519015 0.518995 0.518977 
0.51896 0.518945 0.518929 0.518914 0.518898 0.518883 0.51887 0.518858 0.51885 
0.518845 0.518842 0.51884 0.518836 0.518831 0.518825 0.518819 0.518814 0.518811 
0.518808 0.518803 0.518795 0.518782 0.518767 0.51875 0.518729 0.518706 0.518687 
0.51868 0.518687 0.518697 0.518694 0.518676 0.518664 0.518664 0.518678 0.518702 
0.518734 0.518773 0.518818 0.518867 0.518918 0.518969 0.519017 0.519058 0.51909 
0.519112 0.519122 0.519122 0.519115 0.519103 0.519087 0.519064 0.519032 0.518996 
0.51896 0.518926 0.518886 0.518833 0.518771 0.518727 0.518735 0.518817 0.518925 
0.518942 0.518878 0.518811 0.518784 0.51878 0.518787 0.518788 0.518751 0.518677 
0.518591 0.51853 0.518481 0.518427 0.518387 0.518408 0.518381 0.518192 0.517772 
0.517171 0.5166 0.51614 0.515445 0.514564 0.513086 0.440001 0.440003 0.440004 
0.440006 0.440008 0.440009 0.440011 0.440013 0.440014 0.440016 0.440018 0.440019 
0.440021 0.440023 0.440024 0.440026 0.440028 0.440029 0.440031 0.440033 0.440035 
0.440036 0.440038 0.44004 0.440041 0.440043 0.440045 0.440046 0.440048 0.44005 
0.440051 0.440053 0.440055 0.440057 0.440058 0.44006 0.440062 0.440063 0.440065 
0.440067 0.440068 0.44007 0.440072 0.440073 0.440075 0.440077 0.440079 0.44008 
0.440082 0.440084 0.440085 0.440087 0.440089 0.44009 0.440092 0.440094 0.440095 
0.440097 0.440099 0.440101 0.440102 0.440104 0.440106 0.440107 0.440109 0.440111 
0.440113 0.440114 0.440116 0.440118 0.440119 0.440121 0.440123 0.440124 0.440126 
0.440128 0.44013 0.440131 0.440133 0.440135 0.440136 0.440138 0.44014 0.440142 
0.440143 0.440145 0.440147 0.440149 0.44015 0.440152 0.440154 0.440155 0.440157 
0.440159 0.440161 0.440162 0.440164 0.440166 0.440168 0.440169 0.440171 0.440173 
0.440175 0.440176 0.440178 0.44018 0.440182 0.440183 0.440185 0.440187 0.440189 
0.44019 0.440192 0.440194 0.440196 0.440198 0.440199 0.440201 0.440203 0.440205 
0.440207 0.440208 0.44021 0.440212 0.440214 0.440216 0.440217 0.440219 0.440221 
0.440223 0.440225 0.440227 0.440228 0.44023 0.440232 0.440234 0.440236 0.440238 
0.440239 0.440241 0.440243 0.440245 0.440247 0.440249 0.440251 0.440252 0.440254 
0.440256 0.440258 0.44026 0.440262 0.440264 0.440266 0.440268 0.440269 0.440271 
0.440273 0.440275 0.440277 0.440279 0.440281 0.440283 0.440285 0.440287 0.440289 
0.440291 0.440293 0.440295 0.440297 0.440299 0.440301 0.440303 0.440305 0.440307 
0.440309 0.440311 0.440313 0.440315 0.440317 0.440319 0.440321 0.440324 0.440326 
0.440328 0.44033 0.440333 0.440335 0.440337 0.44034 0.440342 0.440345 0.440347 
0.44035 0.440353 0.440356 0.440359 0.440362 0.440368 0.519132 0.519117 0.519101 
0.519081 0.519059 0.519035 0.519013 0.518991 0.518972 0.518954 0.518937 0.51892 
0.518904 0.518887 0.518871 0.518854 0.518839 0.518826 0.518817 0.518811 0.518808 
0.518808 0.518809 0.51881 0.518811 0.51881 0.518809 0.518807 0.518805 0.518801 
0.518794 0.518784 0.518769 0.518751 0.51873 0.518709 0.518693 0.518685 0.518682 
0.518675 0.518656 0.518635 0.518623 0.518624 0.518637 0.518657 0.518686 0.518723 
0.518767 0.518816 0.518868 0.518922 0.518973 0.519017 0.519051 0.519074 0.519082 
0.519077 0.519064 0.519047 0.519031 0.519017 0.518999 0.518972 0.518936 0.5189 
0.51887 0.518845 0.518824 0.518817 0.518847 0.518925 0.518981 0.518924 0.518833 
0.518792 0.518754 0.518722 0.51873 0.518781 0.518784 0.518712 0.518608 0.518509 
0.518422 0.518336 0.518262 0.518207 0.518107 0.517961 0.517719 0.517394 0.517286 
0.517276 0.516671 0.515421 0.51319 0.440001 0.440003 0.440004 0.440006 0.440008 
0.440009 0.440011 0.440013 0.440014 0.440016 0.440018 0.440019 0.440021 0.440023 
0.440024 0.440026 0.440028 0.440029 0.440031 0.440033 0.440035 0.440036 0.440038 
0.44004 0.440041 0.440043 0.440045 0.440046 0.440048 0.44005 0.440051 0.440053 
0.440055 0.440056 0.440058 0.44006 0.440062 0.440063 0.440065 0.440067 0.440068 
0.44007 0.440072 0.440073 0.440075 0.440077 0.440079 0.44008 0.440082 0.440084 
0.440085 0.440087 0.440089 0.44009 0.440092 0.440094 0.440095 0.440097 0.440099 
0.440101 0.440102 0.440104 0.440106 0.440107 0.440109 0.440111 0.440113 0.440114 
0.440116 0.440118 0.440119 0.440121 0.440123 0.440124 0.440126 0.440128 0.44013 
0.440131 0.440133 0.440135 0.440136 0.440138 0.44014 0.440142 0.440143 0.440145 
0.440147 0.440149 0.44015 0.440152 0.440154 0.440155 0.440157 0.440159 0.440161 
0.440162 0.440164 0.440166 0.440168 0.440169 0.440171 0.440173 0.440175 0.440176 
0.440178 0.44018 0.440182 0.440183 0.440185 0.440187 0.440189 0.44019 0.440192 
0.440194 0.440196 0.440198 0.440199 0.440201 0.440203 0.440205 0.440207 0.440208 
0.44021 0.440212 0.440214 0.440216 0.440217 0.440219 0.440221 0.440223 0.440225 
0.440226 0.440228 0.44023 0.440232 0.440234 0.440236 0.440238 0.440239 0.440241 