# vtk DataFile Version 5.1
vtk output
ASCII
DATASET UNSTRUCTURED_GRID
POINTS 10043 double
-10.1 1.4499999993 1.7536673624e-07 -10.049999999 1.4499999993 1.8033075833e-07 -10.049999999 1.5 -6.9312795858e-07 
-9.9999999985 1.4499999993 1.8001971114e-07 -9.9999999985 1.5 -6.8828580879e-07 -9.9499999978 1.4499999993 1.7828712373e-07 
-9.9499999978 1.5 -6.8123631536e-07 -9.899999997 1.4499999993 1.7667095165e-07 -9.899999997 1.5 -6.7477617449e-07 
-9.8499999963 1.4499999993 1.7522667406e-07 -9.8499999963 1.5 -6.6954748945e-07 -9.7999999955 1.4499999993 1.7423896281e-07 
-9.7999999955 1.5 -6.6541383603e-07 -9.7499999948 1.4499999993 1.7338130931e-07 -9.7499999948 1.5 -6.6215602601e-07 
-9.699999994 1.4499999993 1.7272101616e-07 -9.699999994 1.5 -6.5987137532e-07 -9.6499999933 1.4499999993 1.7234721383e-07 
-9.6499999933 1.5 -6.5821154749e-07 -9.5999999925 1.4499999993 1.720780034e-07 -9.5999999925 1.5 -6.5734116106e-07 
-9.5499999918 1.4499999993 1.7207618441e-07 -9.5499999918 1.5 -6.569737252e-07 -9.4999999911 1.4499999993 1.7204889957e-07 
-9.4999999911 1.5 -6.5703738983e-07 -9.4499999903 1.4499999993 1.7223170801e-07 -9.4499999903 1.5 -6.57694045e-07 
-9.3999999896 1.4499999993 1.7238632211e-07 -9.3999999896 1.5 -6.5880090006e-07 -9.3499999888 1.4499999993 1.7272374464e-07 
-9.3499999888 1.5 -6.6017059908e-07 -9.2999999881 1.4499999993 1.7329854529e-07 -9.2999999881 1.5 -6.6188772507e-07 
-9.2499999873 1.4499999993 1.7375874961e-07 -9.2499999873 1.5 -6.6404049903e-07 -9.1999999866 1.4499999993 1.7447543144e-07 
-9.1999999866 1.5 -6.6641882768e-07 -9.1499999858 1.4499999993 1.7514572903e-07 -9.1499999858 1.5 -6.6915004027e-07 
-9.0999999851 1.4499999993 1.7584967793e-07 -9.0999999851 1.5 -6.7202495302e-07 -9.0499999844 1.4499999993 1.7669459851e-07 
-9.0499999844 1.5 -6.7522728386e-07 -8.9999999836 1.4499999993 1.775722609e-07 -8.9999999836 1.5 -6.7880614552e-07 
-8.9499999829 1.4499999993 1.7857088608e-07 -8.9499999829 1.5 -6.8251233643e-07 -8.8999999821 1.4499999993 1.7960043408e-07 
-8.8999999821 1.5 -6.8651411311e-07 -8.8499999814 1.4499999993 1.8068273278e-07 -8.8499999814 1.5 -6.906868748e-07 
-8.7999999806 1.4499999993 1.818796278e-07 -8.7999999806 1.5 -6.95116114e-07 -8.7499999799 1.4499999993 1.831329115e-07 
-8.7499999799 1.5 -6.9975726547e-07 -8.6999999791 1.4499999993 1.8385959777e-07 -8.6999999791 1.5 -7.0216560744e-07 
-8.6499999784 1.4499999993 1.8502011301e-07 -8.6499999784 1.5 -7.0733926805e-07 -8.5999999776 1.4499999993 1.8637980759e-07 
-8.5999999776 1.5 -7.1248746281e-07 -8.5499999769 1.4499999993 1.8789866374e-07 -8.5499999769 1.5 -7.1783210842e-07 
-8.4999999762 1.4499999993 1.8925608458e-07 -8.4999999762 1.5 -7.2357374847e-07 -8.4499999754 1.4499999993 1.908658902e-07 
-8.4499999754 1.5 -7.2949728747e-07 -8.3999999747 1.4499999993 1.9246432714e-07 -8.3999999747 1.5 -7.3560818237e-07 
-8.3499999739 1.4499999993 1.9396362916e-07 -8.3499999739 1.5 -7.4194326771e-07 -8.2999999732 1.4499999993 1.9583855249e-07 
-8.2999999732 1.5 -7.4846570897e-07 -8.2499999724 1.4499999993 1.9758068959e-07 -8.2499999724 1.5 -7.5520324572e-07 
-8.1999999717 1.4499999993 1.9935147577e-07 -8.1999999717 1.5 -7.6219635048e-07 -8.1499999709 1.4499999993 2.0133326473e-07 
-8.1499999709 1.5 -7.6945502769e-07 -8.0999999702 1.4499999993 2.0331960116e-07 -8.0999999702 1.5 -7.7691743172e-07 
-8.0499999695 1.4499999993 2.0534322687e-07 -8.0499999695 1.5 -7.8458492681e-07 -7.9999999687 1.4499999993 2.0747417295e-07 
-7.9999999687 1.5 -7.9259757513e-07 -7.949999968 1.4499999993 2.0957646996e-07 -7.949999968 1.5 -8.0071390585e-07 
-7.8999999672 1.4499999993 2.1166421504e-07 -7.8999999672 1.5 -8.0918812273e-07 -7.8499999665 1.4499999993 2.1383335991e-07 
-7.8499999665 1.5 -8.1803705143e-07 -7.7999999657 1.4499999993 2.1621578128e-07 -7.7999999657 1.5 -8.2686688074e-07 
-7.749999965 1.4499999993 2.1874235756e-07 -7.749999965 1.5 -8.3593135969e-07 -7.6999999642 1.4499999993 2.2111659348e-07 
-7.6999999642 1.5 -8.4548105406e-07 -7.6499999635 1.4499999993 2.2369910369e-07 -7.6499999635 1.5 -8.5515989667e-07 
-7.5999999627 1.4499999993 2.2637983932e-07 -7.5999999627 1.5 -8.6522209131e-07 -7.549999962 1.4499999993 2.2911605413e-07 
-7.549999962 1.5 -8.7566991169e-07 -7.4999999613 1.4499999993 2.3193366872e-07 -7.4999999613 1.5 -8.8620276983e-07 
-7.4499999605 1.4499999993 2.3468489019e-07 -7.4499999605 1.5 -8.9719128482e-07 -7.3999999598 1.4499999993 2.3768031099e-07 
-7.3999999598 1.5 -9.0846583589e-07 -7.349999959 1.4499999993 2.4069299798e-07 -7.349999959 1.5 -9.1993911155e-07 
-7.2999999583 1.4499999993 2.4376845431e-07 -7.2999999583 1.5 -9.3194671535e-07 -7.2499999575 1.4499999993 2.4700079848e-07 
-7.2499999575 1.5 -9.4414758678e-07 -7.1999999568 1.4499999993 2.5036456464e-07 -7.1999999568 1.5 -9.5671953204e-07 
-7.149999956 1.4499999993 2.5373378776e-07 -7.149999956 1.5 -9.6978351394e-07 -7.0999999553 1.4499999993 2.5545000426e-07 
-7.0999999553 1.5 -9.7652832665e-07 -7.0499999546 1.4499999993 2.590652457e-07 -7.0499999546 1.5 -9.8996974884e-07 
-6.9999999538 1.4499999993 2.6271550269e-07 -6.9999999538 1.5 -1.0040000689e-06 -6.9499999531 1.4499999993 2.6649036045e-07 
-6.9499999531 1.5 -1.0184082839e-06 -6.8999999523 1.4499999993 2.7040937312e-07 -6.8999999523 1.5 -1.0332144029e-06 
-6.8499999516 1.4499999993 2.7431883609e-07 -6.8499999516 1.5 -1.0484566246e-06 -6.7999999508 1.4499999993 2.7850433071e-07 
-6.7999999508 1.5 -1.064181788e-06 -6.7499999501 1.4499999993 2.8266322261e-07 -6.7499999501 1.5 -1.0804972135e-06 
-6.6999999493 1.4499999993 2.8713293432e-07 -6.6999999493 1.5 -1.0971373285e-06 -6.6499999486 1.4499999993 2.9163629733e-07 
-6.6499999486 1.5 -1.1144554719e-06 -6.5999999478 1.4499999993 2.963120096e-07 -6.5999999478 1.5 -1.1322567843e-06 
-6.5499999471 1.4499999993 3.0109231375e-07 -6.5499999471 1.5 -1.150602202e-06 -6.4999999464 1.4499999993 3.0604405765e-07 
-6.4999999464 1.5 -1.1695710782e-06 -6.4499999456 1.4499999993 3.1117883736e-07 -6.4499999456 1.5 -1.1891338545e-06 
-6.3999999449 1.4499999993 3.1640570342e-07 -6.3999999449 1.5 -1.2094787962e-06 -6.3499999441 1.4499999993 3.2189518606e-07 
-6.3499999441 1.5 -1.2303360108e-06 -6.2999999434 1.4499999993 3.2768116398e-07 -6.2999999434 1.5 -1.2519612937e-06 
-6.2499999426 1.4499999993 3.3352080209e-07 -6.2499999426 1.5 -1.2743773823e-06 -6.1999999419 1.4499999993 3.395011845e-07 
-6.1999999419 1.5 -1.2975363006e-06 -6.1499999411 1.4499999993 3.4581398722e-07 -6.1499999411 1.5 -1.3215562831e-06 
-6.0999999404 1.4499999993 3.5244829633e-07 -6.0999999404 1.5 -1.3463634332e-06 -6.0499999397 1.4499999993 3.5916445995e-07 
-6.0499999397 1.5 -1.3721678442e-06 -5.9999999389 1.4499999993 3.6616302168e-07 -5.9999999389 1.5 -1.3988230876e-06 
-5.9499999382 1.4499999993 3.7331506064e-07 -5.9499999382 1.5 -1.4266511243e-06 -5.8999999374 1.4499999993 3.8094026422e-07 
-5.8999999374 1.5 -1.4555703274e-06 -5.8499999367 1.4499999993 3.8879738895e-07 -5.8499999367 1.5 -1.4855197605e-06 
-5.7999999359 1.4499999993 3.9695783016e-07 -5.7999999359 1.5 -1.5167713627e-06 -5.7499999352 1.4499999993 4.0544705371e-07 
-5.7499999352 1.5 -1.5492923922e-06 -5.6999999344 1.4499999993 4.1434373088e-07 -5.6999999344 1.5 -1.5832333702e-06 
-5.6499999337 1.4499999993 4.2361261876e-07 -5.6499999337 1.5 -1.6186268113e-06 -5.5999999329 1.4499999993 4.3327096932e-07 
-5.5999999329 1.5 -1.655658707e-06 -5.5499999322 1.4499999993 4.3828845264e-07 -5.5499999322 1.5 -1.6747321752e-06 
-5.4999999315 1.4499999993 4.4863168114e-07 -5.4999999315 1.5 -1.7143245259e-06 -5.4499999307 1.4499999993 4.5945273541e-07 
-5.4499999307 1.5 -1.7557952106e-06 -5.39999993 1.4499999993 4.70918053e-07 -5.39999993 1.5 -1.7992979338e-06 
-5.3499999292 1.4499999993 4.8283311571e-07 -5.3499999292 1.5 -1.8450400603e-06 -5.2999999285 1.4499999993 4.9550601489e-07 
-5.2999999285 1.5 -1.8931992827e-06 -5.2499999277 1.4499999993 5.0878247748e-07 -5.2499999277 1.5 -1.9440235519e-06 
-5.199999927 1.4499999993 5.2280631735e-07 -5.199999927 1.5 -1.9976100702e-06 -5.1499999262 1.4499999993 5.3768872021e-07 
-5.1499999262 1.5 -2.0544603103e-06 -5.0999999255 1.4499999993 5.5346765748e-07 -5.0999999255 1.5 -2.1147361622e-06 
-5.0499999247 1.4499999993 5.7018382904e-07 -5.0499999247 1.5 -2.1788339382e-06 -4.999999924 1.4499999993 5.8817386162e-07 
-4.999999924 1.5 -2.2472454475e-06 -4.9499999233 1.4499999993 6.0730098994e-07 -4.9499999233 1.5 -2.3204017907e-06 
-4.8999999225 1.4499999993 6.2790968514e-07 -4.8999999225 1.5 -2.3989177862e-06 -4.8499999218 1.4499999993 6.5001313487e-07 
-4.8499999218 1.5 -2.483520575e-06 -4.799999921 1.4499999993 6.7393375502e-07 -4.799999921 1.5 -2.5749229735e-06 
-4.7499999203 1.4499999993 6.9998520758e-07 -4.7499999203 1.5 -2.6741761303e-06 -4.6999999195 1.4499999993 7.2834438924e-07 
-4.6999999195 1.5 -2.7824510198e-06 -4.6499999188 1.4499999993 7.5945786193e-07 -4.6499999188 1.5 -2.9012023788e-06 
-4.599999918 1.4499999993 7.9377173279e-07 -4.599999918 1.5 -3.0322037219e-06 -4.5499999173 1.4499999993 8.3186216671e-07 
-4.5499999173 1.5 -3.1776003198e-06 -4.4999999166 1.4499999993 8.7447739361e-07 -4.4999999166 1.5 -3.3401038309e-06 
-4.4499999158 1.4499999993 9.2251730166e-07 -4.4499999158 1.5 -3.523277428e-06 -4.3999999151 1.4499999993 9.7720680969e-07 
-4.3999999151 1.5 -3.7315742247e-06 -4.3499999143 1.4499999993 1.0399784287e-06 -4.3499999143 1.5 -3.9707138058e-06 
-4.2999999136 1.4499999993 1.1128730648e-06 -4.2999999136 1.5 -4.2483839024e-06 -4.2499999128 1.4499999993 1.1987552853e-06 
-4.2499999128 1.5 -4.5748902266e-06 -4.1999999121 1.4499999993 1.3011657529e-06 -4.1999999121 1.5 -4.9644031606e-06 
-4.1499999113 1.4499999993 1.4254733287e-06 -4.1499999113 1.5 -5.4365982578e-06 -4.0999999106 1.4499999993 1.5792709291e-06 
-4.0999999106 1.5 -6.0198744904e-06 -4.0499999098 1.4499999993 1.773699978e-06 -4.0499999098 1.5 -6.7561800279e-06 
-3.9999999091 1.4499999993 2.0261729787e-06 -3.9999999091 1.5 -7.7096901805e-06 -3.9499999084 1.4499999993 2.1821822429e-06 
[...]
CELL_DATA 9510
FIELD FieldData 4
Water_Depth_m 1 9510 float
0.740001 0.740002 0.740002 0.740003 0.740004 0.740004 0.740005 0.740006 0.740006 
0.740007 0.740008 0.740008 0.740009 0.74001 0.74001 0.740011 0.740012 0.740012 
0.740013 0.740014 0.740014 0.740015 0.740016 0.740016 0.740017 0.740018 0.740018 
0.740019 0.74002 0.74002 0.740021 0.740022 0.740022 0.740023 0.740024 0.740024 
0.740025 0.740026 0.740026 0.740027 0.740028 0.740028 0.740029 0.74003 0.74003 
0.740031 0.740032 0.740032 0.740033 0.740034 0.740034 0.740035 0.740036 0.740037 
0.740037 0.740038 0.740039 0.740039 0.74004 0.740041 0.740041 0.740042 0.740043 
0.740043 0.740044 0.740045 0.740045 0.740046 0.740047 0.740047 0.740048 0.740049 
0.740049 0.74005 0.740051 0.740052 0.740052 0.740053 0.740054 0.740054 0.740055 
0.740056 0.740056 0.740057 0.740058 0.740058 0.740059 0.74006 0.74006 0.740061 
0.740062 0.740062 0.740063 0.740064 0.740065 0.740065 0.740066 0.740067 0.740067 
0.740068 0.740069 0.740069 0.74007 0.740071 0.740071 0.740072 0.740073 0.740074 
0.740074 0.740075 0.740076 0.740076 0.740077 0.740078 0.740078 0.740079 0.74008 
0.74008 0.740081 0.740082 0.740082 0.740083 0.740084 0.740085 0.740087 0.740089 
0.740093 0.7401 0.740116 0.740177 0.740373 0.740248 0.734784 0.721447 0.701987 
0.678075 0.651009 0.621912 0.591831 0.561765 0.533243 0.507096 0.484338 0.466416 
0.455296 0.453401 0.453397 0.453395 0.453398 0.453403 0.453411 0.453419 0.453427 
0.453436 0.453446 0.453456 0.453467 0.453479 0.453492 0.453506 0.45352 0.453534 
0.453549 0.453563 0.453574 0.453581 0.453582 0.45359 0.457157 0.467619 0.468419 
0.464433 0.452717 0.4315 0.403397 0.351971 0.32456 0.294212 0.273303 0.269884 
0.284238 0.29212 0.307377 0.340475 0.351494 0.358376 0.372644 0.39143 0.41109 
0.434648 0.44251 0.46291 0.479807 0.484309 0.498288 0.506512 0.528827 0.564904 
0.685686 0.642902 0.607348 0.569058 0.530364 0.506714 0.506875 0.51181 0.511586 
0.501632 0.501337 0.50118 0.50113 0.501108 0.501097 0.50109 0.501087 0.501085 
0.501085 0.501085 0.501085 0.501086 0.501088 0.501089 0.501091 0.501093 0.501095 
0.501097 0.501099 0.501101 0.501103 0.501105 0.501107 0.50111 0.501112 0.501114 
0.501116 0.501119 0.501121 0.501123 0.501126 0.501128 0.50113 0.501133 0.501135 
0.501137 0.50114 0.501142 0.501145 0.501147 0.501149 0.501152 0.501154 0.501157 
0.501159 0.501161 0.501164 0.501166 0.501168 0.501171 0.501173 0.501176 0.501178 
0.501181 0.501183 0.501185 0.501188 0.50119 0.501193 0.501195 0.501198 0.5012 
0.501203 0.501205 0.501207 0.50121 0.501212 0.501215 0.501217 0.50122 0.501222 
0.501225 0.501227 0.501229 0.501232 0.501234 0.501237 0.501239 0.501242 0.501244 
0.501247 0.501249 0.501252 0.50125 0.500806 0.498288 0.494002 0.74 0.740001 
0.740002 0.740002 0.740003 0.740004 0.740004 0.740005 0.740006 0.740006 0.740007 
0.740008 0.740008 0.740009 0.74001 0.74001 0.740011 0.740012 0.740012 0.740013 
0.740014 0.740014 0.740015 0.740016 0.740016 0.740017 0.740018 0.740018 0.740019 
0.74002 0.74002 0.740021 0.740022 0.740022 0.740023 0.740024 0.740024 0.740025 
0.740026 0.740026 0.740027 0.740028 0.740028 0.740029 0.74003 0.74003 0.740031 
0.740032 0.740032 0.740033 0.740034 0.740034 0.740035 0.740036 0.740036 0.740037 
0.740038 0.740038 0.740039 0.74004 0.74004 0.740041 0.740042 0.740042 0.740043 
0.740044 0.740044 0.740045 0.740046 0.740046 0.740047 0.740048 0.740048 0.740049 
0.74005 0.74005 0.740051 0.740052 0.740052 0.740053 0.740054 0.740054 0.740055 
0.740056 0.740056 0.740057 0.740058 0.740058 0.740059 0.74006 0.74006 0.740061 
0.740062 0.740062 0.740063 0.740063 0.740064 0.740065 0.740065 0.740066 0.740067 
0.740067 0.740068 0.740068 0.740069 0.74007 0.74007 0.740071 0.740071 0.740072 
0.740073 0.740073 0.740074 0.740074 0.740075 0.740075 0.740075 0.740076 0.740076 
0.740076 0.740076 0.740076 0.740076 0.740076 0.740076 0.740075 0.740074 0.740073 
0.740071 0.740071 0.740097 0.74004 0.735147 0.722508 0.70351 0.679711 0.65248 
0.623037 0.592502 0.561904 0.532577 0.505637 0.482505 0.464887 0.454957 0.453416 
0.453404 0.453397 0.453398 0.453401 0.453406 0.453413 0.45342 0.453428 0.453437 
0.453446 0.453457 0.453468 0.45348 0.453493 0.453507 0.453521 0.453536 0.453551 
0.453565 0.453576 0.453585 0.453599 0.457344 0.467106 0.467751 0.465174 0.44287 
0.417105 0.391891 0.346495 0.318501 0.286355 0.262962 0.274926 0.294913 0.299274 
0.31323 0.339149 0.356654 0.368997 0.397997 0.413787 0.431756 0.449169 0.471768 
0.494925 0.501225 0.514117 0.534528 0.537329 0.539194 0.571166 0.675345 0.632928 
0.591574 0.558177 0.531561 0.509955 0.514416 0.516694 0.515534 0.502214 0.501066 
0.501064 0.50106 0.501059 0.50106 0.501061 0.501062 0.501064 0.501066 0.501068 
0.50107 0.501073 0.501075 0.501078 0.50108 0.501083 0.501085 0.501088 0.50109 
0.501093 0.501096 0.501098 0.501101 0.501103 0.501106 0.501108 0.501111 0.501113 
0.501116 0.501118 0.501121 0.501123 0.501126 0.501128 0.501131 0.501133 0.501136 
0.501138 0.501141 0.501143 0.501146 0.501148 0.501151 0.501153 0.501156 0.501158 
0.501161 0.501163 0.501166 0.501168 0.501171 0.501173 0.501176 0.501178 0.501181 
0.501183 0.501186 0.501188 0.501191 0.501193 0.501195 0.501198 0.5012 0.501203 
0.501205 0.501208 0.50121 0.501213 0.501215 0.501218 0.50122 0.501223 0.501225 
0.501228 0.50123 0.501233 0.501235 0.501238 0.50124 0.501242 0.501245 0.501247 
0.501249 0.501248 0.500803 0.498286 0.493997 0.74 0.740001 0.740002 0.740002 
0.740003 0.740004 0.740004 0.740005 0.740006 0.740006 0.740007 0.740008 0.740008 
0.740009 0.74001 0.74001 0.740011 0.740012 0.740012 0.740013 0.740014 0.740014 
0.740015 0.740016 0.740016 0.740017 0.740018 0.740018 0.740019 0.74002 0.74002 
0.740021 0.740022 0.740022 0.740023 0.740024 0.740024 0.740025 0.740026 0.740026 
0.740027 0.740028 0.740028 0.740029 0.74003 0.74003 0.740031 0.740032 0.740032 
0.740033 0.740034 0.740034 0.740035 0.740036 0.740036 0.740037 0.740038 0.740038 
0.740039 0.74004 0.74004 0.740041 0.740042 0.740042 0.740043 0.740044 0.740044 
0.740045 0.740046 0.740046 0.740047 0.740048 0.740048 0.740049 0.74005 0.74005 
0.740051 0.740052 0.740052 0.740053 0.740054 0.740054 0.740055 0.740056 0.740056 
0.740057 0.740058 0.740058 0.740059 0.74006 0.74006 0.740061 0.740062 0.740062 
0.740063 0.740063 0.740064 0.740065 0.740065 0.740066 0.740067 0.740067 0.740068 
0.740069 0.740069 0.74007 0.74007 0.740071 0.740072 0.740072 0.740073 0.740073 
0.740074 0.740074 0.740075 0.740075 0.740076 0.740076 0.740076 0.740077 0.740077 
0.740077 0.740077 0.740077 0.740077 0.740076 0.740076 0.740075 0.740075 0.740078 
0.740153 0.740043 0.735295 0.722999 0.704329 0.680688 0.653421 0.623782 0.592936 
0.561986 0.532228 0.50493 0.481727 0.464419 0.454881 0.453385 0.453387 0.45339 
0.453394 0.453399 0.453405 0.453412 0.453419 0.453427 0.453436 0.453445 0.453455 
0.453466 0.453479 0.453492 0.453506 0.453521 0.453537 0.453554 0.453572 0.45359 
0.453605 0.453662 0.455061 0.458558 0.460109 0.461957 0.441315 0.402557 0.385585 
0.34176 0.314729 0.280856 0.263633 0.275881 0.293855 0.302083 0.318422 0.337606 
0.356647 0.372792 0.399724 0.414805 0.435548 0.460412 0.481631 0.49839 0.511656 
0.526976 0.542166 0.55529 0.564749 0.591142 0.68326 0.636067 0.602826 0.569173 
0.532853 0.51215 0.519235 0.521051 0.518865 0.501883 0.501069 0.501067 0.501061 
0.50106 0.50106 0.501061 0.501063 0.501064 0.501066 0.501069 0.501071 0.501073 
0.501076 0.501078 0.501081 0.501083 0.501086 0.501088 0.501091 0.501093 0.501096 
0.501098 0.501101 0.501103 0.501106 0.501108 0.501111 0.501114 0.501116 0.501119 
0.501121 0.501124 0.501126 0.501129 0.501131 0.501134 0.501136 0.501139 0.501141 
0.501144 0.501146 0.501149 0.501151 0.501153 0.501156 0.501158 0.501161 0.501163 
0.501166 0.501168 0.501171 0.501173 0.501176 0.501178 0.501181 0.501183 0.501186 
0.501188 0.501191 0.501193 0.501196 0.501198 0.5012 0.501203 0.501206 0.501208 
0.50121 0.501213 0.501215 0.501218 0.50122 0.501223 0.501225 0.501228 0.50123 
0.501233 0.501235 0.501238 0.50124 0.501243 0.501245 0.501248 0.50125 0.501248 
0.500803 0.498286 0.493997 0.74 0.740001 0.740002 0.740002 0.740003 0.740004 
0.740004 0.740005 0.740006 0.740006 0.740007 0.740008 0.740008 0.740009 0.74001 
0.74001 0.740011 0.740012 0.740012 0.740013 0.740014 0.740014 0.740015 0.740016 
0.740016 0.740017 0.740018 0.740018 0.740019 0.74002 0.74002 0.740021 0.740022 
0.740022 0.740023 0.740024 0.740024 0.740025 0.740026 0.740026 0.740027 0.740028 
0.740028 0.740029 0.74003 0.74003 0.740031 0.740032 0.740032 0.740033 0.740034 
0.740034 0.740035 0.740036 0.740036 0.740037 0.740038 0.740038 0.740039 0.74004 
0.74004 0.740041 0.740042 0.740042 0.740043 0.740044 0.740044 0.740045 0.740046 
0.740046 0.740047 0.740048 0.740048 0.740049 0.74005 0.74005 0.740051 0.740052 
0.740052 0.740053 0.740054 0.740054 0.740055 0.740056 0.740056 0.740057 0.740058 
0.740058 0.740059 0.740059 0.74006 0.740061 0.740061 0.740062 0.740063 0.740063 
0.740064 0.740065 0.740065 0.740066 0.740067 0.740067 0.740068 0.740068 0.740069 
0.74007 0.74007 0.740071 0.740071 0.740072 0.740073 0.740073 0.740074 0.740074 
0.740075 0.740075 0.740076 0.740076 0.740076 0.740076 0.740077 0.740077 0.740077 
0.740077 0.740077 0.740076 0.740076 0.740075 0.740073 0.740072 0.740141 0.740044 
0.735359 0.723228 0.704751 0.681232 0.653972 0.624224 0.593188 0.562028 0.53204 
0.50461 0.48143 0.46427 0.454873 0.453382 0.453385 0.453387 0.453392 0.453397 
0.453402 0.453409 0.453416 0.453424 0.453433 0.453442 0.453452 0.453463 0.453475 
0.453488 0.453502 0.453518 0.453536 0.453556 0.453579 0.453605 0.45363 0.453775 
0.453839 0.450968 0.446259 0.448135 0.43628 0.401536 0.372166 0.341991 0.314451 
0.280342 0.261482 0.273011 0.285432 0.300891 0.317112 0.335203 0.353515 0.371538 
0.393545 0.406674 0.431252 0.455313 0.476647 0.488855 0.509353 0.525565 0.540545 
0.551981 0.564949 0.601066 0.687123 0.636389 0.60251 0.568989 0.532832 0.516021 
0.522589 0.523696 0.520123 0.502162 0.501052 0.501052 0.501053 0.501054 0.501056 
0.501058 0.50106 0.501062 0.501065 0.501067 0.50107 0.501072 0.501075 0.501077 
0.50108 0.501082 0.501085 0.501088 0.50109 0.501093 0.501095 0.501098 0.5011 
0.501103 0.501106 0.501108 0.501111 0.501113 0.501116 0.501118 0.501121 0.501123 
0.501126 0.501128 0.501131 0.501133 0.501136 0.501138 0.501141 0.501143 0.501146 
0.501148 0.501151 0.501153 0.501156 0.501158 0.501161 0.501163 0.501166 0.501168 
0.501171 0.501173 0.501176 0.501178 0.501181 0.501183 0.501186 0.501188 0.50119 
0.501193 0.501195 0.501198 0.5012 0.501203 0.501205 0.501208 0.50121 0.501213 
0.501215 0.501218 0.50122 0.501223 0.501225 0.501228 0.50123 0.501233 0.501235 
0.501238 0.50124 0.501242 0.501245 0.501247 0.501249 0.501247 0.500803 0.498285 
0.493997 0.74 0.740001 0.740002 0.740002 0.740003 0.740004 0.740004 0.740005 
0.740006 0.740006 0.740007 0.740008 0.740008 0.740009 0.74001 0.74001 0.740011 
0.740012 0.740012 0.740013 0.740014 0.740014 0.740015 0.740016 0.740016 0.740017 
0.740018 0.740018 0.740019 0.74002 0.74002 0.740021 0.740022 0.740022 0.740023 
0.740024 0.740024 0.740025 0.740026 0.740026 0.740027 0.740028 0.740028 0.740029 
0.74003 0.74003 0.740031 0.740032 0.740032 0.740033 0.740034 0.740034 0.740035 
0.740036 0.740036 0.740037 0.740038 0.740038 0.740039 0.74004 0.74004 0.740041 
0.740042 0.740042 0.740043 0.740044 0.740044 0.740045 0.740046 0.740046 0.740047 
0.740048 0.740048 0.740049 0.74005 0.74005 0.740051 0.740052 0.740052 0.740053 
0.740054 0.740054 0.740055 0.740056 0.740056 0.740057 0.740058 0.740058 0.740059 
0.740059 0.74006 0.740061 0.740061 0.740062 0.740063 0.740063 0.740064 0.740065 
0.740065 0.740066 0.740067 0.740067 0.740068 0.740068 0.740069 0.74007 0.74007 
0.740071 0.740071 0.740072 0.740073 0.740073 0.740074 0.740074 0.740075 0.740075 
0.740076 0.740076 0.740077 0.740077 0.740077 0.740077 0.740078 0.740078 0.740078 
0.740078 0.740077 0.740077 0.740076 0.740077 0.740148 0.740049 0.735388 0.723333 
0.704956 0.681512 0.654265 0.624461 0.59332 0.562046 0.531941 0.504466 0.481317 
0.464223 0.454864 0.453376 0.453379 0.453383 0.453388 0.453393 0.453399 0.453406 
0.453413 0.453421 0.453429 0.453438 0.453448 0.453459 0.453471 0.453484 0.453498 
0.453514 0.453533 0.453555 0.453582 0.453617 0.453652 0.45395 0.454092 0.448173 
0.440606 0.442363 0.431817 0.394383 0.362138 0.336914 0.308355 0.274193 0.260748 
0.288317 0.288082 0.297249 0.314077 0.326246 0.344401 0.364789 0.379545 0.39513 
0.411055 0.428958 0.450324 0.463286 0.491428 0.507856 0.522136 0.532163 0.556885 
0.600714 0.681714 0.630376 0.594586 0.562162 0.53205 0.519706 0.525529 0.526131 
0.521778 0.50206 0.501047 0.501049 0.50105 0.501052 0.501054 0.501057 0.501059 
0.501062 0.501064 0.501067 0.501069 0.501072 0.501074 0.501077 0.50108 0.501082 
0.501085 0.501088 0.50109 0.501093 0.501095 0.501098 0.5011 0.501103 0.501106 
0.501108 0.501111 0.501113 0.501116 0.501118 0.501121 0.501123 0.501126 0.501128 
0.501131 0.501133 0.501136 0.501138 0.501141 0.501143 0.501146 0.501148 0.501151 
0.501153 0.501156 0.501158 0.501161 0.501163 0.501166 0.501168 0.501171 0.501173 
0.501176 0.501178 0.501181 0.501183 0.501186 0.501188 0.50119 0.501193 0.501195 
0.501198 0.5012 0.501203 0.501205 0.501208 0.50121 0.501213 0.501215 0.501218 
0.50122 0.501223 0.501225 0.501228 0.50123 0.501233 0.501235 0.501238 0.50124 
0.501242 0.501245 0.501247 0.501249 0.501247 0.500803 0.498285 0.493997 0.74 
0.740001 0.740002 0.740002 0.740003 0.740004 0.740004 0.740005 0.740006 0.740006 
0.740007 0.740008 0.740008 0.740009 0.74001 0.74001 0.740011 0.740012 0.740012 
0.740013 0.740014 0.740014 0.740015 0.740016 0.740016 0.740017 0.740018 0.740018 
0.740019 0.74002 0.74002 0.740021 0.740022 0.740022 0.740023 0.740024 0.740024 
0.740025 0.740026 0.740026 0.740027 0.740028 0.740028 0.740029 0.74003 0.74003 
0.740031 0.740032 0.740032 0.740033 0.740034 0.740034 0.740035 0.740036 0.740036 
0.740037 0.740038 0.740038 0.740039 0.74004 0.74004 0.740041 0.740042 0.740042 
0.740043 0.740044 0.740044 0.740045 0.740046 0.740046 0.740047 0.740048 0.740048 
0.740049 0.74005 0.74005 0.740051 0.740052 0.740052 0.740053 0.740054 0.740054 
0.740055 0.740056 0.740056 0.740057 0.740058 0.740058 0.740059 0.740059 0.74006 
0.740061 0.740061 0.740062 0.740063 0.740063 0.740064 0.740065 0.740065 0.740066 
0.740067 0.740067 0.740068 0.740068 0.740069 0.74007 0.74007 0.740071 0.740072 
0.740072 0.740073 0.740073 0.740074 0.740074 0.740075 0.740075 0.740076 0.740076 
0.740077 0.740077 0.740078 0.740078 0.740078 0.740079 0.740079 0.740079 0.740079 
0.740079 0.740079 0.74008 0.740152 0.740054 0.735402 0.723375 0.705045 0.68164 
0.654404 0.624574 0.593379 0.562049 0.531887 0.504397 0.481269 0.464204 0.454858 
0.45337 0.453374 0.453379 0.453384 0.453389 0.453396 0.453402 0.453409 0.453417 
0.453425 0.453434 0.453444 0.453454 0.453466 0.453478 0.453492 0.453508 0.453526 
0.453548 0.453577 0.453615 0.453657 0.454049 0.454239 0.444859 0.41983 0.422904 
0.418921 0.40212 0.367471 0.335715 0.304432 0.274665 0.263943 0.28453 0.284839 
0.295557 0.315144 0.324499 0.340039 0.354463 0.370629 0.403772 0.406423 0.42101 
0.433337 0.453308 0.465359 0.488056 0.504148 0.543677 0.561467 0.595854 0.667695 
0.631624 0.601768 0.568188 0.537186 0.522668 0.528241 0.528537 0.523498 0.502192 
0.501042 0.501045 0.501047 0.50105 0.501052 0.501055 0.501058 0.501061 0.501064 
0.501066 0.501069 0.501072 0.501074 0.501077 0.50108 0.501082 0.501085 0.501087 
0.50109 0.501093 0.501095 0.501098 0.5011 0.501103 0.501106 0.501108 0.501111 
0.501113 0.501116 0.501118 0.501121 0.501123 0.501126 0.501128 0.501131 0.501133 
0.501136 0.501138 0.501141 0.501143 0.501146 0.501148 0.501151 0.501153 0.501156 
0.501158 0.501161 0.501163 0.501166 0.501168 0.501171 0.501173 0.501176 0.501178 
0.501181 0.501183 0.501186 0.501188 0.50119 0.501193 0.501195 0.501198 0.5012 
0.501203 0.501205 0.501208 0.50121 0.501213 0.501215 0.501218 0.50122 0.501223 
0.501225 0.501228 0.50123 0.501233 0.501235 0.501238 0.50124 0.501242 0.501245 
0.501247 0.501249 0.501247 0.500803 0.498285 0.493997 0.74 0.740001 0.740002 
0.740002 0.740003 0.740004 0.740004 0.740005 0.740006 0.740006 0.740007 0.740008 
0.740008 0.740009 0.74001 0.74001 0.740011 0.740012 0.740012 0.740013 0.740014 
0.740014 0.740015 0.740016 0.740016 0.740017 0.740018 0.740018 0.740019 0.74002 
0.74002 0.740021 0.740022 0.740022 0.740023 0.740024 0.740024 0.740025 0.740026 
0.740026 0.740027 0.740028 0.740028 0.740029 0.74003 0.74003 0.740031 0.740032 
0.740032 0.740033 0.740034 0.740034 0.740035 0.740036 0.740036 0.740037 0.740038 
0.740038 0.740039 0.74004 0.74004 0.740041 0.740042 0.740042 0.740043 0.740044 
0.740044 0.740045 0.740046 0.740046 0.740047 0.740048 0.740048 0.740049 0.74005 
0.74005 0.740051 0.740052 0.740052 0.740053 0.740054 0.740054 0.740055 0.740056 
0.740056 0.740057 0.740058 0.740058 0.740059 0.740059 0.74006 0.740061 0.740062 
0.740062 0.740063 0.740063 0.740064 0.740065 0.740065 0.740066 0.740067 0.740067 
0.740068 0.740069 0.740069 0.74007 0.74007 0.740071 0.740072 0.740072 0.740073 
0.740073 0.740074 0.740075 0.740075 0.740076 0.740076 0.740077 0.740077 0.740078 
0.740078 0.740079 0.740079 0.74008 0.74008 0.740081 0.740081 0.740082 0.740083 
0.740085 0.740158 0.74006 0.735407 0.723388 0.705075 0.681688 0.654457 0.624616 
0.593399 0.562045 0.531856 0.504359 0.481244 0.464192 0.45485 0.453363 0.453368 
0.453374 0.453379 0.453385 0.453391 0.453398 0.453405 0.453412 0.45342 0.453429 
0.453438 0.453448 0.453459 0.453471 0.453484 0.453498 0.453515 0.453536 0.453561 
0.453594 0.453632 0.453952 0.454117 0.449325 0.442115 0.441907 0.43814 0.411484 
0.365786 0.341059 0.33221 0.285124 0.270717 0.284645 0.291658 0.305981 0.318718 
0.325804 0.336109 0.347384 0.354174 0.398547 0.399867 0.403689 0.411333 0.425165 
0.45313 0.481558 0.503234 0.542124 0.561905 0.593707 0.681878 0.640566 0.609214 
0.575548 0.539888 0.525177 0.531061 0.531071 0.525238 0.502264 0.501037 0.501041 
0.501044 0.501047 0.501051 0.501054 0.501057 0.50106 0.501063 0.501066 0.501069 
0.501071 0.501074 0.501077 0.50108 0.501082 0.501085 0.501087 0.50109 0.501093 
0.501095 0.501098 0.5011 0.501103 0.501106 0.501108 0.501111 0.501113 0.501116 
0.501118 0.501121 0.501123 0.501126 0.501128 0.501131 0.501133 0.501136 0.501138 
0.501141 0.501143 0.501146 0.501148 0.501151 0.501153 0.501156 0.501158 0.501161 
0.501163 0.501166 0.501168 0.501171 0.501173 0.501176 0.501178 0.501181 0.501183 
0.501186 0.501188 0.50119 0.501193 0.501195 0.501198 0.5012 0.501203 0.501205 
0.501208 0.50121 0.501213 0.501215 0.501218 0.50122 0.501223 0.501225 0.501228 
0.50123 0.501233 0.501235 0.501238 0.50124 0.501242 0.501245 0.501247 0.501249 
0.501247 0.500803 0.498285 0.493997 0.74 0.740001 0.740002 0.740002 0.740003 
0.740004 0.740004 0.740005 0.740006 0.740006 0.740007 0.740008 0.740008 0.740009 
0.74001 0.74001 0.740011 0.740012 0.740012 0.740013 0.740014 0.740014 0.740015 
0.740016 0.740016 0.740017 0.740018 0.740018 0.740019 0.74002 0.74002 0.740021 
0.740022 0.740022 0.740023 0.740024 0.740024 0.740025 0.740026 0.740026 0.740027 
0.740028 0.740028 0.740029 0.74003 0.74003 0.740031 0.740032 0.740032 0.740033 
0.740034 0.740034 0.740035 0.740036 0.740036 0.740037 0.740038 0.740038 0.740039 
0.74004 0.74004 0.740041 0.740042 0.740042 0.740043 0.740044 0.740044 0.740045 
0.740046 0.740046 0.740047 0.740048 0.740048 0.740049 0.74005 0.74005 0.740051 
0.740052 0.740052 0.740053 0.740054 0.740054 0.740055 0.740056 0.740056 0.740057 
0.740058 0.740058 0.740059 0.74006 0.74006 0.740061 0.740062 0.740062 0.740063 
0.740063 0.740064 0.740065 0.740065 0.740066 0.740067 0.740067 0.740068 0.740069 
0.740069 0.74007 0.740071 0.740071 0.740072 0.740072 0.740073 0.740074 0.740074 
0.740075 0.740075 0.740076 0.740076 0.740077 0.740078 0.740078 0.740079 0.740079 
0.74008 0.740081 0.740081 0.740082 0.740083 0.740085 0.740086 0.74009 0.740163 
0.740066 0.735411 0.723393 0.705079 0.681696 0.654467 0.624624 0.5934 0.562038 
0.531837 0.504337 0.481227 0.464182 0.454843 0.453356 0.453362 0.453368 0.453374 