# vtk DataFile Version 5.1
vtk output
ASCII
DATASET UNSTRUCTURED_GRID
POINTS 10043 double
-10.1 1.4499999993 0 -10.049999999 1.4499999993 0 -10.049999999 1.5 0 
-9.9999999985 1.4499999993 0 -9.9999999985 1.5 0 -9.9499999978 1.4499999993 0 
-9.9499999978 1.5 0 -9.899999997 1.4499999993 0 -9.899999997 1.5 0 
-9.8499999963 1.4499999993 0 -9.8499999963 1.5 0 -9.7999999955 1.4499999993 0 
-9.7999999955 1.5 0 -9.7499999948 1.4499999993 0 -9.7499999948 1.5 0 
-9.699999994 1.4499999993 0 -9.699999994 1.5 0 -9.6499999933 1.4499999993 0 
-9.6499999933 1.5 0 -9.5999999925 1.4499999993 0 -9.5999999925 1.5 0 
-9.5499999918 1.4499999993 0 -9.5499999918 1.5 0 -9.4999999911 1.4499999993 0 
-9.4999999911 1.5 0 -9.4499999903 1.4499999993 0 -9.4499999903 1.5 0 
-9.3999999896 1.4499999993 0 -9.3999999896 1.5 0 -9.3499999888 1.4499999993 0 
-9.3499999888 1.5 0 -9.2999999881 1.4499999993 0 -9.2999999881 1.5 0 
-9.2499999873 1.4499999993 0 -9.2499999873 1.5 0 -9.1999999866 1.4499999993 0 
-9.1999999866 1.5 0 -9.1499999858 1.4499999993 0 -9.1499999858 1.5 0 
-9.0999999851 1.4499999993 0 -9.0999999851 1.5 0 -9.0499999844 1.4499999993 0 
-9.0499999844 1.5 0 -8.9999999836 1.4499999993 0 -8.9999999836 1.5 0 
-8.9499999829 1.4499999993 0 -8.9499999829 1.5 0 -8.8999999821 1.4499999993 0 
-8.8999999821 1.5 0 -8.8499999814 1.4499999993 0 -8.8499999814 1.5 0 
-8.7999999806 1.4499999993 0 -8.7999999806 1.5 0 -8.7499999799 1.4499999993 0 
-8.7499999799 1.5 0 -8.6999999791 1.4499999993 0 -8.6999999791 1.5 0 
-8.6499999784 1.4499999993 0 -8.6499999784 1.5 0 -8.5999999776 1.4499999993 0 
-8.5999999776 1.5 0 -8.5499999769 1.4499999993 0 -8.5499999769 1.5 0 
-8.4999999762 1.4499999993 0 -8.4999999762 1.5 0 -8.4499999754 1.4499999993 0 
-8.4499999754 1.5 0 -8.3999999747 1.4499999993 0 -8.3999999747 1.5 0 
-8.3499999739 1.4499999993 0 -8.3499999739 1.5 0 -8.2999999732 1.4499999993 0 
-8.2999999732 1.5 0 -8.2499999724 1.4499999993 0 -8.2499999724 1.5 0 
-8.1999999717 1.4499999993 0 -8.1999999717 1.5 0 -8.1499999709 1.4499999993 0 
-8.1499999709 1.5 0 -8.0999999702 1.4499999993 0 -8.0999999702 1.5 0 
-8.0499999695 1.4499999993 0 -8.0499999695 1.5 0 -7.9999999687 1.4499999993 0 
-7.9999999687 1.5 0 -7.949999968 1.4499999993 0 -7.949999968 1.5 0 
-7.8999999672 1.4499999993 0 -7.8999999672 1.5 0 -7.8499999665 1.4499999993 0 
-7.8499999665 1.5 0 -7.7999999657 1.4499999993 0 -7.7999999657 1.5 0 
-7.749999965 1.4499999993 0 -7.749999965 1.5 0 -7.6999999642 1.4499999993 0 
-7.6999999642 1.5 0 -7.6499999635 1.4499999993 0 -7.6499999635 1.5 0 
-7.5999999627 1.4499999993 0 -7.5999999627 1.5 0 -7.549999962 1.4499999993 0 
-7.549999962 1.5 0 -7.4999999613 1.4499999993 0 -7.4999999613 1.5 0 
-7.4499999605 1.4499999993 0 -7.4499999605 1.5 0 -7.3999999598 1.4499999993 0 
-7.3999999598 1.5 0 -7.349999959 1.4499999993 0 -7.349999959 1.5 0 
-7.2999999583 1.4499999993 0 -7.2999999583 1.5 0 -7.2499999575 1.4499999993 0 
-7.2499999575 1.5 0 -7.1999999568 1.4499999993 0 -7.1999999568 1.5 0 
-7.149999956 1.4499999993 0 -7.149999956 1.5 0 -7.0999999553 1.4499999993 0 
-7.0999999553 1.5 0 -7.0499999546 1.4499999993 0 -7.0499999546 1.5 0 
-6.9999999538 1.4499999993 0 -6.9999999538 1.5 0 -6.9499999531 1.4499999993 0 
-6.9499999531 1.5 0 -6.8999999523 1.4499999993 0 -6.8999999523 1.5 0 
-6.8499999516 1.4499999993 0 -6.8499999516 1.5 0 -6.7999999508 1.4499999993 0 
-6.7999999508 1.5 0 -6.7499999501 1.4499999993 0 -6.7499999501 1.5 0 
-6.6999999493 1.4499999993 0 -6.6999999493 1.5 0 -6.6499999486 1.4499999993 0 
-6.6499999486 1.5 0 -6.5999999478 1.4499999993 0 -6.5999999478 1.5 0 
-6.5499999471 1.4499999993 0 -6.5499999471 1.5 0 -6.4999999464 1.4499999993 0 
-6.4999999464 1.5 0 -6.4499999456 1.4499999993 0 -6.4499999456 1.5 0 
-6.3999999449 1.4499999993 0 -6.3999999449 1.5 0 -6.3499999441 1.4499999993 0 
-6.3499999441 1.5 0 -6.2999999434 1.4499999993 0 -6.2999999434 1.5 0 
-6.2499999426 1.4499999993 0 -6.2499999426 1.5 0 -6.1999999419 1.4499999993 0 
-6.1999999419 1.5 0 -6.1499999411 1.4499999993 0 -6.1499999411 1.5 0 
-6.0999999404 1.4499999993 0 -6.0999999404 1.5 0 -6.0499999397 1.4499999993 0 
-6.0499999397 1.5 0 -5.9999999389 1.4499999993 0 -5.9999999389 1.5 0 
-5.9499999382 1.4499999993 0 -5.9499999382 1.5 0 -5.8999999374 1.4499999993 0 
-5.8999999374 1.5 0 -5.8499999367 1.4499999993 0 -5.8499999367 1.5 0 
-5.7999999359 1.4499999993 0 -5.7999999359 1.5 0 -5.7499999352 1.4499999993 0 
-5.7499999352 1.5 0 -5.6999999344 1.4499999993 0 -5.6999999344 1.5 0 
-5.6499999337 1.4499999993 0 -5.6499999337 1.5 0 -5.5999999329 1.4499999993 0 
-5.5999999329 1.5 0 -5.5499999322 1.4499999993 0 -5.5499999322 1.5 0 
-5.4999999315 1.4499999993 0 -5.4999999315 1.5 0 -5.4499999307 1.4499999993 0 
-5.4499999307 1.5 0 -5.39999993 1.4499999993 0 -5.39999993 1.5 0 
-5.3499999292 1.4499999993 0 -5.3499999292 1.5 0 -5.2999999285 1.4499999993 0 
-5.2999999285 1.5 0 -5.2499999277 1.4499999993 0 -5.2499999277 1.5 0 
-5.199999927 1.4499999993 0 -5.199999927 1.5 0 -5.1499999262 1.4499999993 0 
-5.1499999262 1.5 0 -5.0999999255 1.4499999993 0 -5.0999999255 1.5 0 
-5.0499999247 1.4499999993 0 -5.0499999247 1.5 0 -4.999999924 1.4499999993 0 
-4.999999924 1.5 0 -4.9499999233 1.4499999993 0 -4.9499999233 1.5 0 
-4.8999999225 1.4499999993 0 -4.8999999225 1.5 0 -4.8499999218 1.4499999993 0 
-4.8499999218 1.5 0 -4.799999921 1.4499999993 0 -4.799999921 1.5 0 
-4.7499999203 1.4499999993 0 -4.7499999203 1.5 0 -4.6999999195 1.4499999993 0 
-4.6999999195 1.5 0 -4.6499999188 1.4499999993 0 -4.6499999188 1.5 0 
-4.599999918 1.4499999993 0 -4.599999918 1.5 0 -4.5499999173 1.4499999993 0 
-4.5499999173 1.5 0 -4.4999999166 1.4499999993 0 -4.4999999166 1.5 0 
-4.4499999158 1.4499999993 0 -4.4499999158 1.5 0 -4.3999999151 1.4499999993 0 
-4.3999999151 1.5 0 -4.3499999143 1.4499999993 0 -4.3499999143 1.5 0 
-4.2999999136 1.4499999993 0 -4.2999999136 1.5 0 -4.2499999128 1.4499999993 0 
-4.2499999128 1.5 0 -4.1999999121 1.4499999993 0 -4.1999999121 1.5 0 
-4.1499999113 1.4499999993 0 -4.1499999113 1.5 0 -4.0999999106 1.4499999993 0 
-4.0999999106 1.5 0 -4.0499999098 1.4499999993 0 -4.0499999098 1.5 0 
-3.9999999091 1.4499999993 0 -3.9999999091 1.5 0 -3.9499999084 1.4499999993 0 
-3.9499999084 1.5 0 -3.8999999076 1.4499999993 0 -3.8999999076 1.5 0 
-3.8499999069 1.4499999993 0 -3.8499999069 1.5 0 -3.7999999061 1.4499999993 0 
-3.7999999061 1.5 0 -3.7499999054 1.4499999993 0 -3.7499999054 1.5 0 
-3.6999999046 1.4499999993 0 -3.6999999046 1.5 0 -3.6499999039 1.4499999993 0 
-3.6499999039 1.5 0 -3.5999999031 1.4499999993 0 -3.5999999031 1.5 0 
-3.5499999024 1.4499999993 0 -3.5499999024 1.5 0 -3.4999999017 1.4499999993 0 
-3.4999999017 1.5 0 -3.4499999009 1.4499999993 0 -3.4499999009 1.5 0 
-3.3999999002 1.4499999993 0 -3.3999999002 1.5 0 -3.3499998994 1.4499999993 0 
-3.3499998994 1.5 0 -3.2999998987 1.4499999993 0 -3.2999998987 1.5 0 
-3.2499998979 1.4499999993 0 -3.2499998979 1.5 0 -3.1999998972 1.4499999993 0 
-3.1999998972 1.5 0 -3.1499998964 1.4499999993 0 -3.1499998964 1.5 0 
-3.0999998957 1.4499999993 0 -3.0999998957 1.5 0 -3.0499998949 1.4499999993 0 
-3.0499998949 1.5 0 -2.9999998942 1.4499999993 0 -2.9999998942 1.5 0 
-2.9499998935 1.4499999993 0 -2.9499998935 1.5 0 -2.8999998927 1.4499999993 0 
-2.8999998927 1.5 0 -2.849999892 1.4499999993 0 -2.849999892 1.5 0 
-2.7999998912 1.4499999993 0 -2.7999998912 1.5 0 -2.7499998905 1.4499999993 0 
-2.7499998905 1.5 0 -2.6999998897 1.4499999993 0 -2.6999998897 1.5 0 
-2.649999889 1.4499999993 0 -2.649999889 1.5 0 -2.5999998882 1.4499999993 0 
-2.5999998882 1.5 0 -2.5499998875 1.4499999993 0 -2.5499998875 1.5 0 
-2.4999998868 1.4499999993 0 -2.4999998868 1.5 0 -2.449999886 1.4499999993 0 
-2.449999886 1.5 0 -2.3999998853 1.4499999993 0 -2.3999998853 1.5 0 
-2.3499998845 1.4499999993 0 -2.3499998845 1.5 0 -2.2999998838 1.4499999993 0 
-2.2999998838 1.5 0 -2.249999883 1.4499999993 0 -2.249999883 1.5 0 
-2.1999998823 1.4499999993 0 -2.1999998823 1.5 0 -2.1499998815 1.4499999993 0 
-2.1499998815 1.5 0 -2.0999998808 1.4499999993 0 -2.0999998808 1.5 0 
-2.04999988 1.4499999993 0 -2.04999988 1.5 0 -1.9999998793 1.4499999993 0 
-1.9999998793 1.5 0 -1.9499998786 1.4499999993 0 -1.9499998786 1.5 0 
-1.8999998778 1.4499999993 0 -1.8999998778 1.5 0 -1.8499998771 1.4499999993 0 
-1.8499998771 1.5 0 -1.7999998763 1.4499999993 0 -1.7999998763 1.5 0 
-1.7499998756 1.4499999993 0 -1.7499998756 1.5 0 -1.6999998748 1.4499999993 0 
-1.6999998748 1.5 0 -1.6499998741 1.4499999993 0 -1.6499998741 1.5 0 
-1.5999998733 1.4499999993 0 -1.5999998733 1.5 0 -1.5499998726 1.4499999993 0 
-1.5499998726 1.5 0 -1.4999998718 1.4499999993 0 -1.4999998718 1.5 0 
-1.4499998711 1.4499999993 0 -1.4499998711 1.5 0 -1.3999998704 1.4499999993 0 
-1.3999998704 1.5 0 -1.3499998696 1.4499999993 0 -1.3499998696 1.5 0 
-1.2999998689 1.4499999993 0 -1.2999998689 1.5 0 -1.2499998681 1.4499999993 0 
-1.2499998681 1.5 0 -1.1999998674 1.4499999993 0 -1.1999998674 1.5 0 
-1.1499998666 1.4499999993 0 -1.1499998666 1.5 0 -1.0999998659 1.4499999993 0 
-1.0999998659 1.5 0 -1.0499998651 1.4499999993 0 -1.0499998651 1.5 0 
-0.9999998644 1.4499999993 0 -0.9999998644 1.5 0 -0.94999986365 1.4499999993 0 
-0.94999986365 1.5 0 -0.89999986291 1.4499999993 0 -0.89999986291 1.5 0 
-0.84999986216 1.4499999993 0 -0.84999986216 1.5 0 -0.79999986142 1.4499999993 0 
-0.79999986142 1.5 0 -0.74999986067 1.4499999993 0 -0.74999986067 1.5 0 
-0.69999985993 1.4499999993 0 -0.69999985993 1.5 0 -0.64999985918 1.4499999993 0 
-0.64999985918 1.5 0 -0.59999985844 1.4499999993 0 -0.59999985844 1.5 0 
-0.54999985769 1.4499999993 0 -0.54999985769 1.5 0 -0.49999985695 1.4499999993 0 
-0.49999985695 1.5 0 -0.4499998562 1.4499999993 0 -0.4499998562 1.5 0 
-0.39999985546 1.4499999993 0 -0.39999985546 1.5 0 -0.34999985471 1.4499999993 0 
-0.34999985471 1.5 0 -0.29999985397 1.4499999993 0 -0.29999985397 1.5 0 
-0.24999985322 1.4499999993 0 -0.24999985322 1.5 0 -0.191663057 1.4499999993 0 
-0.17548248559 1.5 0 0.18862900414 1.4499999993 0 0.25000015423 1.4499999993 0 
[...]
CELL_DATA 9510
FIELD FieldData 4
Water_Depth_m 1 9510 float
0.340002 0.340005 0.340009 0.340012 0.340016 0.34002 0.340024 0.340028 0.340033 
0.340039 0.340044 0.340051 0.340058 0.340067 0.340075 0.340085 0.340096 0.340108 
0.34012 0.340134 0.340148 0.340164 0.34018 0.340198 0.340216 0.340235 0.340254 
0.340274 0.340295 0.340316 0.340338 0.340359 0.340381 0.340402 0.340423 0.340444 
0.340464 0.340483 0.340501 0.340517 0.340532 0.340545 0.340556 0.340564 0.34057 
0.340573 0.340572 0.340567 0.340559 0.340546 0.340528 0.340506 0.340477 0.340443 
0.340403 0.340357 0.340304 0.340245 0.340179 0.340106 0.340026 0.339941 0.33985 
0.339754 0.339654 0.339552 0.339448 0.339344 0.339242 0.339144 0.339052 0.338966 
0.33889 0.338824 0.33877 0.338729 0.338701 0.338687 0.338687 0.338701 0.338728 
0.338767 0.338817 0.338876 0.338943 0.339016 0.339094 0.339175 0.339258 0.33934 
0.339422 0.3395 0.339575 0.339645 0.33971 0.339768 0.339821 0.339867 0.339907 
0.339942 0.339972 0.339997 0.340021 0.340042 0.340065 0.340088 0.340116 0.340147 
0.340185 0.340231 0.340284 0.340346 0.340417 0.340496 0.340582 0.340675 0.340772 
0.340873 0.340976 0.341078 0.341178 0.341273 0.341363 0.341445 0.341519 0.341584 
0.341637 0.34168 0.341712 0.341734 0.341747 0.341752 0.341749 0.341742 0.341731 
0.34172 0.34171 0.341704 0.341703 0.34171 0.341725 0.34175 0.341786 0.34183 
0.341883 0.341942 0.342007 0.342075 0.342145 0.342215 0.342282 0.342346 0.342406 
0.34246 0.34251 0.342555 0.342594 0.342628 0.342658 0.342684 0.342708 0.34273 
0.342751 0.34277 0.342789 0.342809 0.34283 0.342853 0.342879 0.342906 0.342937 
0.342971 0.343011 0.343055 0.343105 0.343162 0.343225 0.343298 0.34338 0.343473 
0.343578 0.343695 0.343828 0.343978 0.344146 0.344335 0.344546 0.344779 0.345038 
0.345325 0.345641 0.345987 0.346365 0.346768 0.347214 0.34767 0.34816 0.348755 
0.353372 0.353871 0.354282 0.354661 0.355009 0.355327 0.355615 0.355876 0.356112 
0.356324 0.356514 0.356685 0.356839 0.356976 0.357099 0.357209 0.357307 0.357395 
0.357474 0.357544 0.357607 0.357663 0.357713 0.357758 0.357798 0.357834 0.357866 
0.357895 0.35792 0.357943 0.357963 0.357981 0.357997 0.358011 0.358024 0.358035 
0.358045 0.358053 0.358061 0.358067 0.358073 0.358077 0.358081 0.358085 0.358088 
0.35809 0.358092 0.358093 0.358094 0.358094 0.358094 0.358094 0.358094 0.358093 
0.358092 0.358091 0.35809 0.358088 0.358086 0.358085 0.358083 0.35808 0.358078 
0.358076 0.358073 0.358071 0.358068 0.358065 0.358063 0.35806 0.358057 0.358054 
0.358051 0.358048 0.358045 0.358041 0.358038 0.358035 0.358032 0.358028 0.358025 
0.358022 0.358018 0.358015 0.358012 0.358008 0.358005 0.358001 0.357998 0.357995 
0.357991 0.357987 0.357975 0.357943 0.35661 0.354141 0.350959 0.340002 0.340005 
0.340009 0.340012 0.340016 0.340019 0.340024 0.340028 0.340033 0.340038 0.340044 
0.34005 0.340058 0.340066 0.340075 0.340084 0.340095 0.340107 0.340119 0.340133 
0.340148 0.340163 0.34018 0.340197 0.340215 0.340234 0.340254 0.340274 0.340295 
0.340316 0.340338 0.340359 0.340381 0.340403 0.340424 0.340445 0.340465 0.340484 
0.340502 0.340519 0.340534 0.340547 0.340558 0.340567 0.340573 0.340576 0.340575 
0.340571 0.340563 0.34055 0.340533 0.34051 0.340482 0.340449 0.340408 0.340362 
0.340309 0.340249 0.340183 0.340109 0.340029 0.339943 0.339851 0.339754 0.339653 
0.339549 0.339444 0.339338 0.339235 0.339136 0.339042 0.338955 0.338878 0.338811 
0.338756 0.338715 0.338687 0.338673 0.338674 0.338689 0.338717 0.338757 0.338808 
0.338869 0.338937 0.339012 0.339091 0.339174 0.339258 0.339342 0.339424 0.339504 
0.339579 0.33965 0.339715 0.339774 0.339826 0.339872 0.339912 0.339946 0.339974 
0.339999 0.340021 0.340042 0.340062 0.340085 0.34011 0.340141 0.340178 0.340223 
0.340276 0.340338 0.340409 0.340488 0.340575 0.340669 0.340768 0.340871 0.340975 
0.341079 0.341181 0.341278 0.34137 0.341453 0.341528 0.341593 0.341647 0.34169 
0.341722 0.341743 0.341755 0.341757 0.341753 0.341744 0.341731 0.341718 0.341705 
0.341697 0.341695 0.341701 0.341716 0.341741 0.341776 0.341821 0.341875 0.341937 
0.342004 0.342074 0.342145 0.342216 0.342284 0.34235 0.34241 0.342465 0.342515 
0.342559 0.342598 0.342631 0.342661 0.342687 0.34271 0.342731 0.34275 0.34277 
0.342789 0.342808 0.342829 0.342851 0.342875 0.342903 0.342934 0.342968 0.343006 
0.343049 0.343099 0.343155 0.343218 0.34329 0.34337 0.343461 0.343564 0.343681 
0.343813 0.343961 0.344126 0.344312 0.34452 0.344752 0.345009 0.345293 0.345605 
0.345947 0.34632 0.346727 0.347167 0.347627 0.348118 0.348697 0.353378 0.35388 
0.354294 0.354675 0.355025 0.355343 0.355631 0.355892 0.356127 0.356339 0.356528 
0.356698 0.356851 0.356987 0.357109 0.357218 0.357316 0.357403 0.357481 0.35755 
0.357613 0.357668 0.357718 0.357762 0.357802 0.357838 0.357869 0.357897 0.357923 
0.357945 0.357965 0.357983 0.357999 0.358013 0.358025 0.358036 0.358046 0.358054 
0.358061 0.358068 0.358073 0.358078 0.358082 0.358085 0.358088 0.35809 0.358092 
0.358093 0.358094 0.358094 0.358095 0.358094 0.358094 0.358093 0.358092 0.358091 
0.35809 0.358088 0.358086 0.358085 0.358083 0.358081 0.358078 0.358076 0.358073 
0.358071 0.358068 0.358065 0.358063 0.35806 0.358057 0.358054 0.358051 0.358048 
0.358045 0.358041 0.358038 0.358035 0.358032 0.358029 0.358025 0.358022 0.358018 
0.358015 0.358012 0.358008 0.358005 0.358001 0.357998 0.357995 0.357991 0.357987 
0.357975 0.357943 0.35661 0.354141 0.350959 0.340002 0.340005 0.340008 0.340012 
0.340015 0.340019 0.340023 0.340027 0.340032 0.340037 0.340043 0.340049 0.340056 
0.340064 0.340073 0.340083 0.340094 0.340105 0.340118 0.340131 0.340146 0.340162 
0.340178 0.340196 0.340214 0.340233 0.340253 0.340273 0.340294 0.340316 0.340338 
0.34036 0.340382 0.340403 0.340425 0.340446 0.340467 0.340486 0.340505 0.340522 
0.340538 0.340552 0.340563 0.340573 0.340579 0.340583 0.340583 0.340579 0.340571 
0.340559 0.340542 0.34052 0.340492 0.340458 0.340418 0.340372 0.340319 0.340258 
0.340191 0.340116 0.340035 0.339947 0.339853 0.339753 0.33965 0.339543 0.339435 
0.339327 0.33922 0.339118 0.339021 0.338932 0.338853 0.338784 0.338729 0.338687 
0.338659 0.338646 0.338648 0.338664 0.338694 0.338737 0.33879 0.338854 0.338925 
0.339003 0.339085 0.339171 0.339258 0.339344 0.339429 0.339511 0.339588 0.33966 
0.339726 0.339785 0.339838 0.339883 0.339921 0.339954 0.339981 0.340003 0.340022 
0.34004 0.340057 0.340077 0.3401 0.340128 0.340163 0.340207 0.340259 0.340321 
0.340392 0.340473 0.340562 0.340658 0.34076 0.340866 0.340974 0.341082 0.341187 
0.341288 0.341382 0.341469 0.341546 0.341612 0.341667 0.34171 0.341741 0.341761 
0.34177 0.34177 0.341762 0.341748 0.341731 0.341713 0.341697 0.341685 0.341679 
0.341683 0.341696 0.341721 0.341758 0.341805 0.341861 0.341926 0.341996 0.34207 
0.342144 0.342218 0.34229 0.342357 0.342419 0.342474 0.342524 0.342568 0.342606 
0.342639 0.342667 0.342692 0.342713 0.342733 0.342752 0.342769 0.342787 0.342806 
0.342825 0.342847 0.342871 0.342897 0.342926 0.342959 0.342996 0.343039 0.343087 
0.343141 0.343202 0.343272 0.34335 0.343439 0.34354 0.343653 0.343781 0.343925 
0.344087 0.344268 0.344471 0.344698 0.344949 0.345228 0.345535 0.345871 0.346241 
0.346645 0.347079 0.347538 0.34803 0.348611 0.353388 0.353898 0.354318 0.354704 
0.355056 0.355375 0.355664 0.355924 0.356158 0.356368 0.356556 0.356724 0.356875 
0.357009 0.357129 0.357237 0.357332 0.357418 0.357495 0.357563 0.357624 0.357678 
0.357727 0.357771 0.35781 0.357844 0.357875 0.357903 0.357928 0.35795 0.357969 
0.357987 0.358002 0.358016 0.358028 0.358038 0.358048 0.358056 0.358063 0.358069 
0.358075 0.358079 0.358083 0.358086 0.358089 0.358091 0.358093 0.358094 0.358095 
0.358095 0.358095 0.358095 0.358094 0.358094 0.358093 0.358091 0.35809 0.358088 
0.358087 0.358085 0.358083 0.358081 0.358078 0.358076 0.358074 0.358071 0.358068 
0.358066 0.358063 0.35806 0.358057 0.358054 0.358051 0.358048 0.358045 0.358042 
0.358038 0.358035 0.358032 0.358029 0.358025 0.358022 0.358018 0.358015 0.358012 
0.358008 0.358005 0.358001 0.357998 0.357995 0.357991 0.357987 0.357975 0.357943 
0.35661 0.354141 0.350959 0.340002 0.340005 0.340008 0.340011 0.340015 0.340018 
0.340022 0.340026 0.34003 0.340035 0.340041 0.340047 0.340054 0.340062 0.340071 
0.34008 0.340091 0.340103 0.340115 0.340129 0.340144 0.340159 0.340176 0.340193 
0.340212 0.340231 0.340251 0.340272 0.340293 0.340315 0.340337 0.34036 0.340382 
0.340405 0.340427 0.340449 0.34047 0.34049 0.340509 0.340527 0.340544 0.340558 
0.340571 0.340581 0.340588 0.340592 0.340593 0.340591 0.340584 0.340572 0.340556 
0.340534 0.340507 0.340473 0.340434 0.340387 0.340333 0.340272 0.340203 0.340127 
0.340043 0.339953 0.339856 0.339753 0.339646 0.339535 0.339422 0.339309 0.339198 
0.339091 0.33899 0.338897 0.338814 0.338744 0.338686 0.338643 0.338616 0.338604 
0.338608 0.338627 0.33866 0.338706 0.338763 0.338831 0.338907 0.338989 0.339076 
0.339166 0.339257 0.339348 0.339437 0.339521 0.339602 0.339676 0.339743 0.339803 
0.339855 0.3399 0.339936 0.339966 0.33999 0.340009 0.340024 0.340037 0.34005 
0.340065 0.340084 0.340108 0.340141 0.340182 0.340233 0.340294 0.340367 0.340449 
0.340541 0.340641 0.340748 0.340859 0.340972 0.341086 0.341197 0.341303 0.341402 
0.341493 0.341573 0.341642 0.341698 0.341741 0.341771 0.341788 0.341794 0.341789 
0.341776 0.341756 0.341731 0.341706 0.341683 0.341665 0.341655 0.341654 0.341666 
0.34169 0.341728 0.341778 0.341839 0.341909 0.341984 0.342064 0.342144 0.342223 
0.342298 0.342368 0.342432 0.342489 0.342539 0.342582 0.342619 0.34265 0.342677 
0.342699 0.342719 0.342736 0.342753 0.342769 0.342785 0.342802 0.34282 0.34284 
0.342863 0.342888 0.342915 0.342947 0.342983 0.343023 0.343069 0.343121 0.34318 
0.343246 0.343321 0.343407 0.343503 0.343612 0.343734 0.343872 0.344028 0.344202 
0.344398 0.344617 0.344861 0.345131 0.345429 0.345757 0.346119 0.346518 0.346946 
0.347403 0.347894 0.348479 0.353404 0.353927 0.354356 0.354748 0.355103 0.355424 
0.355714 0.355973 0.356205 0.356412 0.356598 0.356763 0.356911 0.357042 0.357159 
0.357264 0.357358 0.357441 0.357515 0.357582 0.357641 0.357694 0.357741 0.357783 
0.357821 0.357854 0.357884 0.357911 0.357935 0.357956 0.357975 0.357992 0.358007 
0.35802 0.358032 0.358042 0.358051 0.358059 0.358066 0.358072 0.358077 0.358081 
0.358085 0.358088 0.35809 0.358092 0.358094 0.358095 0.358095 0.358096 0.358096 
0.358096 0.358095 0.358094 0.358093 0.358092 0.35809 0.358089 0.358087 0.358085 
0.358083 0.358081 0.358079 0.358076 0.358074 0.358071 0.358068 0.358066 0.358063 
0.35806 0.358057 0.358054 0.358051 0.358048 0.358045 0.358042 0.358038 0.358035 
0.358032 0.358029 0.358025 0.358022 0.358019 0.358015 0.358012 0.358008 0.358005 
0.358001 0.357998 0.357995 0.357991 0.357987 0.357975 0.357943 0.35661 0.354141 
0.350959 0.340002 0.340005 0.340008 0.340011 0.340014 0.340017 0.34002 0.340024 
0.340028 0.340033 0.340038 0.340045 0.340051 0.340059 0.340068 0.340077 0.340088 
0.340099 0.340112 0.340126 0.34014 0.340156 0.340173 0.340191 0.340209 0.340229 
0.340249 0.340271 0.340292 0.340315 0.340337 0.34036 0.340383 0.340406 0.340429 
0.340452 0.340474 0.340495 0.340515 0.340534 0.340551 0.340567 0.34058 0.340592 
0.3406 0.340606 0.340608 0.340606 0.3406 0.34059 0.340574 0.340554 0.340527 
0.340494 0.340454 0.340407 0.340352 0.34029 0.34022 0.340141 0.340055 0.339961 
0.33986 0.339753 0.33964 0.339523 0.339405 0.339285 0.339168 0.339054 0.338947 
0.338849 0.338762 0.338688 0.338629 0.338585 0.338557 0.338547 0.338553 0.338576 
0.338613 0.338664 0.338727 0.3388 0.338882 0.338971 0.339064 0.33916 0.339258 
0.339354 0.339447 0.339537 0.33962 0.339697 0.339766 0.339827 0.339879 0.339923 
0.339957 0.339984 0.340004 0.340017 0.340027 0.340034 0.34004 0.340049 0.340062 
0.340081 0.340109 0.340147 0.340196 0.340257 0.340331 0.340416 0.340512 0.340618 
0.340731 0.340849 0.34097 0.341091 0.34121 0.341323 0.341429 0.341526 0.341611 
0.341683 0.341741 0.341784 0.341813 0.341827 0.341827 0.341816 0.341795 0.341765 
0.341732 0.341697 0.341664 0.341637 0.341619 0.341614 0.341623 0.341647 0.341687 
0.341741 0.341808 0.341885 0.341969 0.342057 0.342145 0.34223 0.342311 0.342385 
0.342452 0.34251 0.34256 0.342602 0.342637 0.342666 0.342689 0.342709 0.342725 
0.34274 0.342754 0.342767 0.342781 0.342796 0.342813 0.342831 0.342852 0.342875 
0.342901 0.342931 0.342964 0.343002 0.343046 0.343095 0.34315 0.343213 0.343283 
0.343364 0.343454 0.343557 0.343672 0.343803 0.34395 0.344116 0.344302 0.344511 
0.344743 0.345002 0.345288 0.345605 0.345956 0.346345 0.346765 0.347218 0.347707 
0.348298 0.353427 0.353969 0.354409 0.354809 0.355169 0.355492 0.355781 0.356039 
0.356268 0.356472 0.356653 0.356815 0.356958 0.357086 0.357199 0.357301 0.357391 
0.357471 0.357542 0.357606 0.357663 0.357714 0.357759 0.357799 0.357835 0.357868 
0.357896 0.357922 0.357945 0.357965 0.357983 0.357999 0.358013 0.358026 0.358037 
0.358047 0.358055 0.358063 0.358069 0.358075 0.358079 0.358084 0.358087 0.35809 
0.358092 0.358094 0.358095 0.358096 0.358097 0.358097 0.358097 0.358096 0.358096 
0.358095 0.358094 0.358092 0.358091 0.358089 0.358087 0.358085 0.358083 0.358081 
0.358079 0.358076 0.358074 0.358071 0.358069 0.358066 0.358063 0.35806 0.358057 
0.358054 0.358051 0.358048 0.358045 0.358042 0.358038 0.358035 0.358032 0.358029 
0.358025 0.358022 0.358019 0.358015 0.358012 0.358008 0.358005 0.358001 0.357998 
0.357995 0.357991 0.357987 0.357975 0.357943 0.35661 0.354141 0.350959 0.340001 
0.340004 0.340007 0.34001 0.340012 0.340015 0.340018 0.340022 0.340026 0.34003 
0.340035 0.340041 0.340048 0.340055 0.340064 0.340073 0.340084 0.340095 0.340108 
0.340121 0.340136 0.340152 0.340169 0.340187 0.340206 0.340226 0.340247 0.340269 
0.340291 0.340314 0.340337 0.340361 0.340385 0.340408 0.340432 0.340456 0.340479 
0.340501 0.340522 0.340542 0.340561 0.340578 0.340592 0.340605 0.340615 0.340622 
0.340625 0.340625 0.340621 0.340612 0.340597 0.340578 0.340552 0.340519 0.340479 
0.340432 0.340377 0.340313 0.340241 0.34016 0.34007 0.339972 0.339866 0.339753 
0.339633 0.339509 0.339383 0.339255 0.339129 0.339007 0.338893 0.338788 0.338695 
0.338617 0.338554 0.338509 0.338482 0.338474 0.338484 0.338511 0.338554 0.338611 
0.338681 0.338762 0.338851 0.338948 0.339049 0.339154 0.339258 0.339362 0.339462 
0.339557 0.339645 0.339726 0.339797 0.339859 0.339911 0.339953 0.339985 0.340008 
0.340022 0.340029 0.340031 0.34003 0.340028 0.340028 0.340033 0.340045 0.340067 
0.340101 0.340148 0.340209 0.340284 0.340373 0.340474 0.340586 0.340708 0.340835 
0.340966 0.341097 0.341226 0.341349 0.341464 0.341568 0.341659 0.341736 0.341796 
0.34184 0.341867 0.341877 0.341871 0.341851 0.34182 0.341779 0.341732 0.341684 
0.341638 0.341599 0.341572 0.34156 0.341565 0.341589 0.341632 0.341692 0.341767 
0.341855 0.34195 0.342049 0.342147 0.342242 0.342329 0.342409 0.342478 0.342537 
0.342587 0.342628 0.34266 0.342686 0.342705 0.342721 0.342734 0.342745 0.342755 
0.342765 0.342777 0.342789 0.342804 0.34282 0.342839 0.34286 0.342884 0.342911 
0.342942 0.342977 0.343017 0.343062 0.343114 0.343172 0.343237 0.343312 0.343395 
0.34349 0.343596 0.343717 0.343854 0.344009 0.344183 0.344379 0.344598 0.344842 
0.345113 0.345415 0.34575 0.346124 0.346532 0.346976 0.347464 0.34806 0.353461 
0.354026 0.354481 0.35489 0.355255 0.35558 0.355868 0.356122 0.356348 0.356547 
0.356723 0.356879 0.357018 0.35714 0.357249 0.357346 0.357432 0.357508 0.357576 
0.357636 0.35769 0.357738 0.357781 0.357819 0.357854 0.357884 0.357911 0.357935 
0.357957 0.357976 0.357993 0.358008 0.358021 0.358033 0.358043 0.358052 0.35806 
0.358067 0.358073 0.358078 0.358083 0.358087 0.35809 0.358092 0.358094 0.358096 
0.358097 0.358098 0.358098 0.358098 0.358098 0.358097 0.358097 0.358096 0.358094 
0.358093 0.358092 0.35809 0.358088 0.358086 0.358084 0.358082 0.358079 0.358077 
0.358074 0.358072 0.358069 0.358066 0.358063 0.35806 0.358057 0.358054 0.358051 
0.358048 0.358045 0.358042 0.358039 0.358035 0.358032 0.358029 0.358025 0.358022 
0.358019 0.358015 0.358012 0.358008 0.358005 0.358002 0.357998 0.357995 0.357991 
0.357987 0.357975 0.357943 0.35661 0.354141 0.350959 0.340001 0.340004 0.340006 
0.340009 0.340011 0.340013 0.340016 0.340019 0.340023 0.340027 0.340032 0.340037 
0.340043 0.340051 0.340059 0.340068 0.340078 0.34009 0.340102 0.340116 0.340131 
0.340147 0.340164 0.340183 0.340202 0.340222 0.340244 0.340266 0.340289 0.340312 
0.340337 0.340361 0.340386 0.340411 0.340435 0.34046 0.340484 0.340508 0.34053 
0.340552 0.340572 0.34059 0.340607 0.340621 0.340633 0.340641 0.340647 0.340648 
0.340645 0.340638 0.340625 0.340607 0.340582 0.34055 0.340511 0.340463 0.340407 
0.340342 0.340268 0.340183 0.34009 0.339987 0.339874 0.339754 0.339626 0.339493 
0.339356 0.339218 0.339081 0.338949 0.338825 0.338712 0.338612 0.338528 0.338462 
0.338416 0.338389 0.338384 0.338398 0.338431 0.338481 0.338546 0.338625 0.338715 
0.338814 0.338921 0.339032 0.339146 0.33926 0.339372 0.33948 0.339582 0.339676 
0.339761 0.339836 0.3399 0.339952 0.339992 0.34002 0.340038 0.340046 0.340045 
0.340037 0.340025 0.340012 0.340002 0.339996 0.34 0.340014 0.340043 0.340087 
0.340148 0.340224 0.340317 0.340425 0.340546 0.340678 0.340817 0.340961 0.341105 
0.341246 0.341381 0.341507 0.34162 0.341719 0.341801 0.341866 0.34191 0.341935 
0.34194 0.341927 0.341897 0.341852 0.341796 0.341732 0.341667 0.341604 0.34155 
0.34151 0.341489 0.341489 0.341513 0.34156 0.341628 0.341715 0.341816 0.341926 
0.34204 0.342152 0.342258 0.342355 0.34244 0.342513 0.342573 0.342622 0.34266 
0.342689 0.34271 0.342725 0.342736 0.342743 0.342749 0.342755 0.342762 0.34277 
0.342781 0.342793 0.342807 0.342824 0.342842 0.342864 0.342888 0.342915 0.342947 
0.342983 0.343024 0.343071 0.343124 0.343184 0.343251 0.343326 0.343411 0.343508 
0.343617 0.343742 0.343883 0.344043 0.344223 0.344426 0.344652 0.344905 0.345188 
0.345501 0.345853 0.346242 0.346672 0.347155 0.347755 0.353508 0.354101 0.354574 
0.354993 0.355363 0.355689 0.355974 0.356225 0.356445 0.356638 0.356807 0.356957 
0.357089 0.357205 0.357308 0.357399 0.35748 0.357552 0.357616 0.357672 0.357723 
0.357768 0.357808 0.357843 0.357875 0.357903 0.357928 0.357951 0.357971 0.357988 
0.358004 0.358018 0.35803 0.358041 0.358051 0.358059 0.358066 0.358073 0.358078 
0.358083 0.358087 0.35809 0.358093 0.358095 0.358097 0.358098 0.358099 0.3581 
0.3581 0.3581 0.358099 0.358099 0.358098 0.358097 0.358095 0.358094 0.358092 
0.35809 0.358089 0.358086 0.358084 0.358082 0.35808 0.358077 0.358074 0.358072 
0.358069 0.358066 0.358063 0.35806 0.358057 0.358054 0.358051 0.358048 0.358045 
0.358042 0.358039 0.358035 0.358032 0.358029 0.358025 0.358022 0.358019 0.358015 
0.358012 0.358008 0.358005 0.358002 0.357998 0.357995 0.357991 0.357987 0.357975 
0.357943 0.35661 0.354141 0.350959 0.340001 0.340003 0.340005 0.340007 0.340009 
0.340011 0.340014 0.340016 0.340019 0.340023 0.340027 0.340032 0.340038 0.340045 
0.340053 0.340062 0.340072 0.340083 0.340096 0.34011 0.340125 0.340141 0.340159 
0.340177 0.340197 0.340218 0.34024 0.340263 0.340286 0.340311 0.340336 0.340361 
0.340387 0.340413 0.340439 0.340465 0.34049 0.340515 0.340539 0.340562 0.340584 
0.340604 0.340623 0.340639 0.340653 0.340663 0.340671 0.340674 0.340674 0.340668 
0.340657 0.340641 0.340617 0.340586 0.340547 0.3405 0.340443 0.340376 0.340299 
0.340212 0.340113 0.340004 0.339885 0.339756 0.339618 0.339474 0.339325 0.339174 
0.339024 0.338879 0.338743 0.338619 0.33851 0.338419 0.33835 0.338302 0.338277 
0.338275 0.338295 0.338336 0.338395 0.33847 0.338559 0.33866 0.338771 0.338889 
0.339012 0.339138 0.339263 0.339386 0.339504 0.339614 0.339715 0.339806 0.339884 
0.339949 0.340001 0.34004 0.340065 0.340077 0.340076 0.340065 0.340046 0.340021 
0.339994 0.339969 0.339951 0.339943 0.339949 0.339972 0.340012 0.340072 0.34015 
0.340248 0.340365 0.340497 0.340641 0.340795 0.340953 0.341113 0.34127 0.341419 
0.341559 0.341684 0.341792 0.341881 0.34195 0.341996 0.342019 0.342019 0.341997 
0.341954 0.341893 0.341818 0.341733 0.341645 0.341561 0.341487 0.341431 0.341398 