# vtk DataFile Version 5.1
vtk output
ASCII
DATASET UNSTRUCTURED_GRID
POINTS 10043 double
-10.1 1.4499999993 1.7536673624e-07 -10.049999999 1.4499999993 1.8033075833e-07 -10.049999999 1.5 -6.9312795858e-07 
-9.9999999985 1.4499999993 1.8001971114e-07 -9.9999999985 1.5 -6.8828580879e-07 -9.9499999978 1.4499999993 1.7828712373e-07 
-9.9499999978 1.5 -6.8123631536e-07 -9.899999997 1.4499999993 1.7667095165e-07 -9.899999997 1.5 -6.7477617449e-07 
-9.8499999963 1.4499999993 1.7522667406e-07 -9.8499999963 1.5 -6.6954748945e-07 -9.7999999955 1.4499999993 1.7423896281e-07 
-9.7999999955 1.5 -6.6541383603e-07 -9.7499999948 1.4499999993 1.7338130931e-07 -9.7499999948 1.5 -6.6215602601e-07 
-9.699999994 1.4499999993 1.7272101616e-07 -9.699999994 1.5 -6.5987137532e-07 -9.6499999933 1.4499999993 1.7234721383e-07 
-9.6499999933 1.5 -6.5821154749e-07 -9.5999999925 1.4499999993 1.720780034e-07 -9.5999999925 1.5 -6.5734116106e-07 
-9.5499999918 1.4499999993 1.7207618441e-07 -9.5499999918 1.5 -6.569737252e-07 -9.4999999911 1.4499999993 1.7204889957e-07 
-9.4999999911 1.5 -6.5703738983e-07 -9.4499999903 1.4499999993 1.7223170801e-07 -9.4499999903 1.5 -6.57694045e-07 
-9.3999999896 1.4499999993 1.7238632211e-07 -9.3999999896 1.5 -6.5880090006e-07 -9.3499999888 1.4499999993 1.7272374464e-07 
-9.3499999888 1.5 -6.6017059908e-07 -9.2999999881 1.4499999993 1.7329854529e-07 -9.2999999881 1.5 -6.6188772507e-07 
-9.2499999873 1.4499999993 1.7375874961e-07 -9.2499999873 1.5 -6.6404049903e-07 -9.1999999866 1.4499999993 1.7447543144e-07 
-9.1999999866 1.5 -6.6641882768e-07 -9.1499999858 1.4499999993 1.7514572903e-07 -9.1499999858 1.5 -6.6915004027e-07 
-9.0999999851 1.4499999993 1.7584967793e-07 -9.0999999851 1.5 -6.7202495302e-07 -9.0499999844 1.4499999993 1.7669459851e-07 
-9.0499999844 1.5 -6.7522728386e-07 -8.9999999836 1.4499999993 1.775722609e-07 -8.9999999836 1.5 -6.7880614552e-07 
-8.9499999829 1.4499999993 1.7857088608e-07 -8.9499999829 1.5 -6.8251233643e-07 -8.8999999821 1.4499999993 1.7960043408e-07 
-8.8999999821 1.5 -6.8651411311e-07 -8.8499999814 1.4499999993 1.8068273278e-07 -8.8499999814 1.5 -6.906868748e-07 
-8.7999999806 1.4499999993 1.818796278e-07 -8.7999999806 1.5 -6.95116114e-07 -8.7499999799 1.4499999993 1.831329115e-07 
-8.7499999799 1.5 -6.9975726547e-07 -8.6999999791 1.4499999993 1.8385959777e-07 -8.6999999791 1.5 -7.0216560744e-07 
-8.6499999784 1.4499999993 1.8502011301e-07 -8.6499999784 1.5 -7.0733926805e-07 -8.5999999776 1.4499999993 1.8637980759e-07 
-8.5999999776 1.5 -7.1248746281e-07 -8.5499999769 1.4499999993 1.8789866374e-07 -8.5499999769 1.5 -7.1783210842e-07 
-8.4999999762 1.4499999993 1.8925608458e-07 -8.4999999762 1.5 -7.2357374847e-07 -8.4499999754 1.4499999993 1.908658902e-07 
-8.4499999754 1.5 -7.2949728747e-07 -8.3999999747 1.4499999993 1.9246432714e-07 -8.3999999747 1.5 -7.3560818237e-07 
-8.3499999739 1.4499999993 1.9396362916e-07 -8.3499999739 1.5 -7.4194326771e-07 -8.2999999732 1.4499999993 1.9583855249e-07 
-8.2999999732 1.5 -7.4846570897e-07 -8.2499999724 1.4499999993 1.9758068959e-07 -8.2499999724 1.5 -7.5520324572e-07 
-8.1999999717 1.4499999993 1.9935147577e-07 -8.1999999717 1.5 -7.6219635048e-07 -8.1499999709 1.4499999993 2.0133326473e-07 
-8.1499999709 1.5 -7.6945502769e-07 -8.0999999702 1.4499999993 2.0331960116e-07 -8.0999999702 1.5 -7.7691743172e-07 
-8.0499999695 1.4499999993 2.0534322687e-07 -8.0499999695 1.5 -7.8458492681e-07 -7.9999999687 1.4499999993 2.0747417295e-07 
-7.9999999687 1.5 -7.9259757513e-07 -7.949999968 1.4499999993 2.0957646996e-07 -7.949999968 1.5 -8.0071390585e-07 
-7.8999999672 1.4499999993 2.1166421504e-07 -7.8999999672 1.5 -8.0918812273e-07 -7.8499999665 1.4499999993 2.1383335991e-07 
-7.8499999665 1.5 -8.1803705143e-07 -7.7999999657 1.4499999993 2.1621578128e-07 -7.7999999657 1.5 -8.2686688074e-07 
-7.749999965 1.4499999993 2.1874235756e-07 -7.749999965 1.5 -8.3593135969e-07 -7.6999999642 1.4499999993 2.2111659348e-07 
-7.6999999642 1.5 -8.4548105406e-07 -7.6499999635 1.4499999993 2.2369910369e-07 -7.6499999635 1.5 -8.5515989667e-07 
-7.5999999627 1.4499999993 2.2637983932e-07 -7.5999999627 1.5 -8.6522209131e-07 -7.549999962 1.4499999993 2.2911605413e-07 
-7.549999962 1.5 -8.7566991169e-07 -7.4999999613 1.4499999993 2.3193366872e-07 -7.4999999613 1.5 -8.8620276983e-07 
-7.4499999605 1.4499999993 2.3468489019e-07 -7.4499999605 1.5 -8.9719128482e-07 -7.3999999598 1.4499999993 2.3768031099e-07 
-7.3999999598 1.5 -9.0846583589e-07 -7.349999959 1.4499999993 2.4069299798e-07 -7.349999959 1.5 -9.1993911155e-07 
-7.2999999583 1.4499999993 2.4376845431e-07 -7.2999999583 1.5 -9.3194671535e-07 -7.2499999575 1.4499999993 2.4700079848e-07 
-7.2499999575 1.5 -9.4414758678e-07 -7.1999999568 1.4499999993 2.5036456464e-07 -7.1999999568 1.5 -9.5671953204e-07 
-7.149999956 1.4499999993 2.5373378776e-07 -7.149999956 1.5 -9.6978351394e-07 -7.0999999553 1.4499999993 2.5545000426e-07 
-7.0999999553 1.5 -9.7652832665e-07 -7.0499999546 1.4499999993 2.590652457e-07 -7.0499999546 1.5 -9.8996974884e-07 
-6.9999999538 1.4499999993 2.6271550269e-07 -6.9999999538 1.5 -1.0040000689e-06 -6.9499999531 1.4499999993 2.6649036045e-07 
-6.9499999531 1.5 -1.0184082839e-06 -6.8999999523 1.4499999993 2.7040937312e-07 -6.8999999523 1.5 -1.0332144029e-06 
-6.8499999516 1.4499999993 2.7431883609e-07 -6.8499999516 1.5 -1.0484566246e-06 -6.7999999508 1.4499999993 2.7850433071e-07 
-6.7999999508 1.5 -1.064181788e-06 -6.7499999501 1.4499999993 2.8266322261e-07 -6.7499999501 1.5 -1.0804972135e-06 
-6.6999999493 1.4499999993 2.8713293432e-07 -6.6999999493 1.5 -1.0971373285e-06 -6.6499999486 1.4499999993 2.9163629733e-07 
-6.6499999486 1.5 -1.1144554719e-06 -6.5999999478 1.4499999993 2.963120096e-07 -6.5999999478 1.5 -1.1322567843e-06 
-6.5499999471 1.4499999993 3.0109231375e-07 -6.5499999471 1.5 -1.150602202e-06 -6.4999999464 1.4499999993 3.0604405765e-07 
-6.4999999464 1.5 -1.1695710782e-06 -6.4499999456 1.4499999993 3.1117883736e-07 -6.4499999456 1.5 -1.1891338545e-06 
-6.3999999449 1.4499999993 3.1640570342e-07 -6.3999999449 1.5 -1.2094787962e-06 -6.3499999441 1.4499999993 3.2189518606e-07 
-6.3499999441 1.5 -1.2303360108e-06 -6.2999999434 1.4499999993 3.2768116398e-07 -6.2999999434 1.5 -1.2519612937e-06 
-6.2499999426 1.4499999993 3.3352080209e-07 -6.2499999426 1.5 -1.2743773823e-06 -6.1999999419 1.4499999993 3.395011845e-07 
-6.1999999419 1.5 -1.2975363006e-06 -6.1499999411 1.4499999993 3.4581398722e-07 -6.1499999411 1.5 -1.3215562831e-06 
-6.0999999404 1.4499999993 3.5244829633e-07 -6.0999999404 1.5 -1.3463634332e-06 -6.0499999397 1.4499999993 3.5916445995e-07 
-6.0499999397 1.5 -1.3721678442e-06 -5.9999999389 1.4499999993 3.6616302168e-07 -5.9999999389 1.5 -1.3988230876e-06 
-5.9499999382 1.4499999993 3.7331506064e-07 -5.9499999382 1.5 -1.4266511243e-06 -5.8999999374 1.4499999993 3.8094026422e-07 
-5.8999999374 1.5 -1.4555703274e-06 -5.8499999367 1.4499999993 3.8879738895e-07 -5.8499999367 1.5 -1.4855197605e-06 
-5.7999999359 1.4499999993 3.9695783016e-07 -5.7999999359 1.5 -1.5167713627e-06 -5.7499999352 1.4499999993 4.0544705371e-07 
-5.7499999352 1.5 -1.5492923922e-06 -5.6999999344 1.4499999993 4.1434373088e-07 -5.6999999344 1.5 -1.5832333702e-06 
-5.6499999337 1.4499999993 4.2361261876e-07 -5.6499999337 1.5 -1.6186268113e-06 -5.5999999329 1.4499999993 4.3327096932e-07 
-5.5999999329 1.5 -1.655658707e-06 -5.5499999322 1.4499999993 4.3828845264e-07 -5.5499999322 1.5 -1.6747321752e-06 
-5.4999999315 1.4499999993 4.4863168114e-07 -5.4999999315 1.5 -1.7143245259e-06 -5.4499999307 1.4499999993 4.5945273541e-07 
-5.4499999307 1.5 -1.7557952106e-06 -5.39999993 1.4499999993 4.70918053e-07 -5.39999993 1.5 -1.7992979338e-06 
-5.3499999292 1.4499999993 4.8283311571e-07 -5.3499999292 1.5 -1.8450400603e-06 -5.2999999285 1.4499999993 4.9550601489e-07 
-5.2999999285 1.5 -1.8931992827e-06 -5.2499999277 1.4499999993 5.0878247748e-07 -5.2499999277 1.5 -1.9440235519e-06 
-5.199999927 1.4499999993 5.2280631735e-07 -5.199999927 1.5 -1.9976100702e-06 -5.1499999262 1.4499999993 5.3768872021e-07 
-5.1499999262 1.5 -2.0544603103e-06 -5.0999999255 1.4499999993 5.5346765748e-07 -5.0999999255 1.5 -2.1147361622e-06 
-5.0499999247 1.4499999993 5.7018382904e-07 -5.0499999247 1.5 -2.1788339382e-06 -4.999999924 1.4499999993 5.8817386162e-07 
-4.999999924 1.5 -2.2472454475e-06 -4.9499999233 1.4499999993 6.0730098994e-07 -4.9499999233 1.5 -2.3204017907e-06 
-4.8999999225 1.4499999993 6.2790968514e-07 -4.8999999225 1.5 -2.3989177862e-06 -4.8499999218 1.4499999993 6.5001313487e-07 
-4.8499999218 1.5 -2.483520575e-06 -4.799999921 1.4499999993 6.7393375502e-07 -4.799999921 1.5 -2.5749229735e-06 
-4.7499999203 1.4499999993 6.9998520758e-07 -4.7499999203 1.5 -2.6741761303e-06 -4.6999999195 1.4499999993 7.2834438924e-07 
-4.6999999195 1.5 -2.7824510198e-06 -4.6499999188 1.4499999993 7.5945786193e-07 -4.6499999188 1.5 -2.9012023788e-06 
-4.599999918 1.4499999993 7.9377173279e-07 -4.599999918 1.5 -3.0322037219e-06 -4.5499999173 1.4499999993 8.3186216671e-07 
-4.5499999173 1.5 -3.1776003198e-06 -4.4999999166 1.4499999993 8.7447739361e-07 -4.4999999166 1.5 -3.3401038309e-06 
-4.4499999158 1.4499999993 9.2251730166e-07 -4.4499999158 1.5 -3.523277428e-06 -4.3999999151 1.4499999993 9.7720680969e-07 
-4.3999999151 1.5 -3.7315742247e-06 -4.3499999143 1.4499999993 1.0399784287e-06 -4.3499999143 1.5 -3.9707138058e-06 
-4.2999999136 1.4499999993 1.1128730648e-06 -4.2999999136 1.5 -4.2483839024e-06 -4.2499999128 1.4499999993 1.1987552853e-06 
-4.2499999128 1.5 -4.5748902266e-06 -4.1999999121 1.4499999993 1.3011657529e-06 -4.1999999121 1.5 -4.9644031606e-06 
-4.1499999113 1.4499999993 1.4254733287e-06 -4.1499999113 1.5 -5.4365982578e-06 -4.0999999106 1.4499999993 1.5792709291e-06 
-4.0999999106 1.5 -6.0198744904e-06 -4.0499999098 1.4499999993 1.773699978e-06 -4.0499999098 1.5 -6.7561800279e-06 
-3.9999999091 1.4499999993 2.0261729787e-06 -3.9999999091 1.5 -7.7096901805e-06 -3.9499999084 1.4499999993 2.1821822429e-06 
[...]
CELL_DATA 9510
FIELD FieldData 4
Water_Depth_m 1 9510 float
0.740001 0.740002 0.740002 0.740003 0.740004 0.740004 0.740005 0.740006 0.740006 
0.740007 0.740008 0.740008 0.740009 0.74001 0.74001 0.740011 0.740012 0.740012 
0.740013 0.740014 0.740014 0.740015 0.740016 0.740016 0.740017 0.740018 0.740018 
0.740019 0.74002 0.74002 0.740021 0.740022 0.740022 0.740023 0.740024 0.740024 
0.740025 0.740026 0.740026 0.740027 0.740028 0.740028 0.740029 0.74003 0.74003 
0.740031 0.740032 0.740033 0.740033 0.740034 0.740035 0.740035 0.740036 0.740037 
0.740037 0.740038 0.740039 0.740039 0.74004 0.740041 0.740041 0.740042 0.740043 
0.740043 0.740044 0.740045 0.740045 0.740046 0.740047 0.740047 0.740048 0.740049 
0.740049 0.74005 0.740051 0.740052 0.740052 0.740053 0.740054 0.740054 0.740055 
0.740056 0.740056 0.740057 0.740058 0.740058 0.740059 0.74006 0.740061 0.740061 
0.740062 0.740063 0.740063 0.740064 0.740065 0.740065 0.740066 0.740067 0.740067 
0.740068 0.740069 0.74007 0.74007 0.740071 0.740072 0.740072 0.740073 0.740074 
0.740074 0.740075 0.740076 0.740076 0.740077 0.740078 0.740078 0.740079 0.74008 
0.740081 0.740081 0.740082 0.740083 0.740084 0.740085 0.740086 0.740088 0.74009 
0.740094 0.740102 0.740119 0.74018 0.740381 0.740262 0.734805 0.721474 0.702021 
0.678117 0.65106 0.621974 0.591902 0.561842 0.533319 0.507152 0.484345 0.466364 
0.45523 0.453334 0.453328 0.453325 0.453326 0.453331 0.453337 0.453344 0.453352 
0.45336 0.453369 0.453378 0.453389 0.4534 0.453411 0.453424 0.453438 0.453452 
0.453467 0.453481 0.453495 0.453506 0.453511 0.453502 0.457057 0.467597 0.468511 
0.46462 0.45302 0.432099 0.404055 0.35274 0.324774 0.293729 0.27259 0.26921 
0.283505 0.291224 0.306602 0.33999 0.350967 0.357779 0.372094 0.390847 0.410529 
0.434194 0.442 0.462449 0.479383 0.483856 0.497869 0.506054 0.528366 0.564427 
0.685489 0.642704 0.607154 0.568846 0.530072 0.506386 0.506565 0.511548 0.511296 
0.501334 0.501036 0.500878 0.500826 0.500804 0.500792 0.500785 0.500781 0.500779 
0.500779 0.500778 0.500779 0.50078 0.500781 0.500783 0.500785 0.500787 0.500788 
0.50079 0.500793 0.500795 0.500797 0.500799 0.500801 0.500803 0.500806 0.500808 
0.50081 0.500813 0.500815 0.500817 0.50082 0.500822 0.500824 0.500827 0.500829 
0.500831 0.500834 0.500836 0.500839 0.500841 0.500843 0.500846 0.500848 0.500851 
0.500853 0.500855 0.500858 0.50086 0.500863 0.500865 0.500867 0.50087 0.500872 
0.500875 0.500877 0.50088 0.500882 0.500884 0.500887 0.500889 0.500892 0.500894 
0.500897 0.500899 0.500902 0.500904 0.500906 0.500909 0.500911 0.500914 0.500916 
0.500919 0.500921 0.500924 0.500926 0.500929 0.500931 0.500934 0.500936 0.500939 
0.500941 0.500944 0.500946 0.500949 0.500951 0.500954 0.495012 0.74 0.740001 
0.740002 0.740002 0.740003 0.740004 0.740004 0.740005 0.740006 0.740006 0.740007 
0.740008 0.740008 0.740009 0.74001 0.74001 0.740011 0.740012 0.740012 0.740013 
0.740014 0.740014 0.740015 0.740016 0.740016 0.740017 0.740018 0.740018 0.740019 
0.74002 0.74002 0.740021 0.740022 0.740022 0.740023 0.740024 0.740024 0.740025 
0.740026 0.740026 0.740027 0.740028 0.740028 0.740029 0.74003 0.74003 0.740031 
0.740032 0.740032 0.740033 0.740034 0.740034 0.740035 0.740036 0.740036 0.740037 
0.740038 0.740038 0.740039 0.74004 0.74004 0.740041 0.740042 0.740042 0.740043 
0.740044 0.740044 0.740045 0.740046 0.740046 0.740047 0.740048 0.740048 0.740049 
0.74005 0.74005 0.740051 0.740052 0.740052 0.740053 0.740054 0.740054 0.740055 
0.740056 0.740056 0.740057 0.740058 0.740058 0.740059 0.74006 0.74006 0.740061 
0.740062 0.740062 0.740063 0.740063 0.740064 0.740065 0.740065 0.740066 0.740067 
0.740067 0.740068 0.740069 0.740069 0.74007 0.74007 0.740071 0.740072 0.740072 
0.740073 0.740073 0.740074 0.740074 0.740075 0.740075 0.740076 0.740076 0.740076 
0.740077 0.740077 0.740077 0.740077 0.740077 0.740077 0.740076 0.740076 0.740075 
0.740074 0.740074 0.740105 0.740054 0.735167 0.722534 0.703544 0.679753 0.652532 
0.623099 0.592574 0.561982 0.532653 0.505692 0.48251 0.464835 0.454891 0.453348 
0.453335 0.453327 0.453326 0.453328 0.453333 0.453338 0.453344 0.453352 0.45336 
0.453368 0.453378 0.453388 0.453399 0.453411 0.453424 0.453438 0.453453 0.453468 
0.453483 0.453497 0.45351 0.453517 0.457254 0.467061 0.467846 0.465406 0.443104 
0.417701 0.39259 0.347302 0.318657 0.285814 0.262222 0.274278 0.294267 0.298446 
0.312481 0.338609 0.356124 0.368393 0.397472 0.413229 0.431208 0.448675 0.47126 
0.494482 0.500778 0.513652 0.534114 0.536881 0.538717 0.570711 0.675144 0.632725 
0.591375 0.55797 0.531266 0.509623 0.514112 0.516451 0.515236 0.501913 0.500764 
0.50076 0.500756 0.500755 0.500755 0.500755 0.500756 0.500758 0.50076 0.500762 
0.500764 0.500767 0.500769 0.500771 0.500774 0.500776 0.500779 0.500782 0.500784 
0.500787 0.500789 0.500792 0.500794 0.500797 0.5008 0.500802 0.500805 0.500807 
0.50081 0.500812 0.500815 0.500817 0.50082 0.500822 0.500825 0.500827 0.50083 
0.500832 0.500835 0.500837 0.50084 0.500842 0.500845 0.500847 0.50085 0.500852 
0.500855 0.500857 0.50086 0.500862 0.500865 0.500867 0.50087 0.500872 0.500875 
0.500877 0.50088 0.500882 0.500885 0.500887 0.50089 0.500892 0.500895 0.500897 
0.5009 0.500902 0.500905 0.500907 0.500909 0.500912 0.500914 0.500917 0.500919 
0.500922 0.500924 0.500927 0.500929 0.500932 0.500934 0.500937 0.500939 0.500942 
0.500944 0.500947 0.500949 0.500952 0.495007 0.74 0.740001 0.740002 0.740002 
0.740003 0.740004 0.740004 0.740005 0.740006 0.740006 0.740007 0.740008 0.740008 
0.740009 0.74001 0.74001 0.740011 0.740012 0.740012 0.740013 0.740014 0.740014 
0.740015 0.740016 0.740016 0.740017 0.740018 0.740018 0.740019 0.74002 0.74002 
0.740021 0.740022 0.740022 0.740023 0.740024 0.740024 0.740025 0.740026 0.740026 
0.740027 0.740028 0.740028 0.740029 0.74003 0.74003 0.740031 0.740032 0.740032 
0.740033 0.740034 0.740034 0.740035 0.740036 0.740036 0.740037 0.740038 0.740038 
0.740039 0.74004 0.74004 0.740041 0.740042 0.740042 0.740043 0.740044 0.740044 
0.740045 0.740046 0.740046 0.740047 0.740048 0.740048 0.740049 0.74005 0.74005 
0.740051 0.740052 0.740052 0.740053 0.740054 0.740054 0.740055 0.740056 0.740056 
0.740057 0.740058 0.740058 0.740059 0.74006 0.74006 0.740061 0.740062 0.740062 
0.740063 0.740064 0.740064 0.740065 0.740066 0.740066 0.740067 0.740067 0.740068 
0.740069 0.740069 0.74007 0.740071 0.740071 0.740072 0.740072 0.740073 0.740073 
0.740074 0.740075 0.740075 0.740075 0.740076 0.740076 0.740077 0.740077 0.740077 
0.740077 0.740078 0.740078 0.740077 0.740077 0.740077 0.740077 0.740077 0.740081 
0.74016 0.740057 0.735315 0.723025 0.704363 0.68073 0.653473 0.623844 0.593009 
0.562066 0.532306 0.504985 0.481731 0.464365 0.454814 0.453317 0.453318 0.453319 
0.453322 0.453326 0.453331 0.453337 0.453343 0.45335 0.453358 0.453367 0.453376 
0.453387 0.453398 0.45341 0.453423 0.453437 0.453453 0.453469 0.453487 0.453505 
0.453523 0.453591 0.454998 0.45848 0.46018 0.462214 0.441563 0.403094 0.386307 
0.342586 0.314849 0.28028 0.26291 0.275235 0.293222 0.301356 0.317734 0.337026 
0.356085 0.372207 0.399216 0.414252 0.435009 0.459905 0.481158 0.49792 0.511191 
0.526516 0.541745 0.554844 0.564269 0.590701 0.683051 0.635866 0.602632 0.568957 
0.532548 0.511816 0.518939 0.520822 0.518563 0.501579 0.500765 0.500762 0.500756 
0.500755 0.500755 0.500755 0.500757 0.500758 0.50076 0.500762 0.500765 0.500767 
0.500769 0.500772 0.500774 0.500777 0.500779 0.500782 0.500785 0.500787 0.50079 
0.500792 0.500795 0.500797 0.5008 0.500802 0.500805 0.500807 0.50081 0.500812 
0.500815 0.500818 0.50082 0.500823 0.500825 0.500828 0.50083 0.500833 0.500835 
0.500838 0.50084 0.500843 0.500845 0.500847 0.50085 0.500852 0.500855 0.500857 
0.50086 0.500862 0.500865 0.500867 0.50087 0.500872 0.500875 0.500877 0.50088 
0.500882 0.500885 0.500887 0.50089 0.500892 0.500895 0.500897 0.5009 0.500902 
0.500905 0.500907 0.50091 0.500912 0.500914 0.500917 0.500919 0.500922 0.500924 
0.500927 0.500929 0.500932 0.500934 0.500937 0.500939 0.500942 0.500944 0.500947 
0.500949 0.500952 0.495008 0.74 0.740001 0.740002 0.740002 0.740003 0.740004 
0.740004 0.740005 0.740006 0.740006 0.740007 0.740008 0.740008 0.740009 0.74001 
0.74001 0.740011 0.740012 0.740012 0.740013 0.740014 0.740014 0.740015 0.740016 
0.740016 0.740017 0.740018 0.740018 0.740019 0.74002 0.74002 0.740021 0.740022 
0.740022 0.740023 0.740024 0.740024 0.740025 0.740026 0.740026 0.740027 0.740028 
0.740028 0.740029 0.74003 0.74003 0.740031 0.740032 0.740032 0.740033 0.740034 
0.740034 0.740035 0.740036 0.740036 0.740037 0.740038 0.740038 0.740039 0.74004 
0.74004 0.740041 0.740042 0.740042 0.740043 0.740044 0.740044 0.740045 0.740046 
0.740046 0.740047 0.740048 0.740048 0.740049 0.74005 0.74005 0.740051 0.740052 
0.740052 0.740053 0.740054 0.740054 0.740055 0.740056 0.740056 0.740057 0.740058 
0.740058 0.740059 0.74006 0.74006 0.740061 0.740062 0.740062 0.740063 0.740063 
0.740064 0.740065 0.740065 0.740066 0.740067 0.740067 0.740068 0.740069 0.740069 
0.74007 0.74007 0.740071 0.740072 0.740072 0.740073 0.740073 0.740074 0.740074 
0.740075 0.740075 0.740076 0.740076 0.740077 0.740077 0.740077 0.740077 0.740077 
0.740077 0.740077 0.740077 0.740077 0.740076 0.740075 0.740074 0.740147 0.740057 
0.735378 0.723255 0.704785 0.681275 0.654025 0.624288 0.593264 0.562111 0.53212 
0.504666 0.481433 0.464216 0.454806 0.453313 0.453314 0.453316 0.453319 0.453323 
0.453328 0.453334 0.45334 0.453348 0.453355 0.453364 0.453373 0.453383 0.453394 
0.453406 0.453419 0.453434 0.45345 0.453468 0.453488 0.453511 0.453539 0.453719 
0.453812 0.450859 0.446297 0.448388 0.436575 0.402008 0.372898 0.342811 0.314548 
0.279749 0.260809 0.272394 0.284789 0.30025 0.316493 0.334603 0.352944 0.370977 
0.393016 0.406135 0.430718 0.454811 0.47617 0.488339 0.508886 0.525119 0.540104 
0.551518 0.564475 0.600643 0.686907 0.636185 0.602321 0.568762 0.532522 0.515688 
0.522301 0.523478 0.51982 0.501857 0.500747 0.500747 0.500748 0.500749 0.50075 
0.500752 0.500754 0.500756 0.500759 0.500761 0.500763 0.500766 0.500768 0.500771 
0.500774 0.500776 0.500779 0.500781 0.500784 0.500787 0.500789 0.500792 0.500794 
0.500797 0.500799 0.500802 0.500805 0.500807 0.50081 0.500812 0.500815 0.500817 
0.50082 0.500822 0.500825 0.500827 0.50083 0.500832 0.500835 0.500837 0.50084 
0.500842 0.500845 0.500847 0.50085 0.500852 0.500855 0.500857 0.50086 0.500862 
0.500865 0.500867 0.50087 0.500872 0.500875 0.500877 0.50088 0.500882 0.500885 
0.500887 0.50089 0.500892 0.500894 0.500897 0.500899 0.500902 0.500904 0.500907 
0.500909 0.500912 0.500914 0.500917 0.500919 0.500922 0.500924 0.500927 0.500929 
0.500932 0.500934 0.500937 0.500939 0.500942 0.500944 0.500947 0.500949 0.500951 
0.495007 0.74 0.740001 0.740002 0.740002 0.740003 0.740004 0.740004 0.740005 
0.740006 0.740006 0.740007 0.740008 0.740008 0.740009 0.74001 0.74001 0.740011 
0.740012 0.740012 0.740013 0.740014 0.740014 0.740015 0.740016 0.740016 0.740017 
0.740018 0.740018 0.740019 0.74002 0.74002 0.740021 0.740022 0.740022 0.740023 
0.740024 0.740024 0.740025 0.740026 0.740026 0.740027 0.740028 0.740028 0.740029 
0.74003 0.74003 0.740031 0.740032 0.740032 0.740033 0.740034 0.740034 0.740035 
0.740036 0.740036 0.740037 0.740038 0.740038 0.740039 0.74004 0.74004 0.740041 
0.740042 0.740042 0.740043 0.740044 0.740044 0.740045 0.740046 0.740046 0.740047 
0.740048 0.740048 0.740049 0.74005 0.74005 0.740051 0.740052 0.740052 0.740053 
0.740054 0.740054 0.740055 0.740056 0.740056 0.740057 0.740058 0.740058 0.740059 
0.74006 0.74006 0.740061 0.740062 0.740062 0.740063 0.740063 0.740064 0.740065 
0.740065 0.740066 0.740067 0.740067 0.740068 0.740069 0.740069 0.74007 0.74007 
0.740071 0.740072 0.740072 0.740073 0.740073 0.740074 0.740074 0.740075 0.740075 
0.740076 0.740076 0.740077 0.740077 0.740077 0.740078 0.740078 0.740078 0.740078 
0.740078 0.740078 0.740078 0.740077 0.740078 0.740153 0.740061 0.735406 0.723359 
0.70499 0.681556 0.65432 0.624528 0.593398 0.562132 0.532024 0.504523 0.48132 
0.464167 0.454796 0.453306 0.453308 0.453311 0.453315 0.45332 0.453325 0.453331 
0.453337 0.453344 0.453352 0.453361 0.45337 0.45338 0.45339 0.453402 0.453415 
0.45343 0.453446 0.453465 0.453487 0.453514 0.453549 0.453904 0.454096 0.44804 
0.440607 0.442586 0.432146 0.394838 0.36285 0.337714 0.308409 0.273589 0.260166 
0.287813 0.287416 0.296656 0.313532 0.32566 0.343835 0.364199 0.378981 0.394643 
0.410535 0.428447 0.449813 0.462762 0.490936 0.507406 0.521657 0.531696 0.556424 
0.600298 0.681497 0.630174 0.594396 0.56193 0.531739 0.519375 0.525248 0.525921 
0.521474 0.501754 0.500741 0.500744 0.500744 0.500746 0.500748 0.500751 0.500753 
0.500755 0.500758 0.50076 0.500763 0.500766 0.500768 0.500771 0.500773 0.500776 
0.500779 0.500781 0.500784 0.500787 0.500789 0.500792 0.500794 0.500797 0.500799 
0.500802 0.500805 0.500807 0.50081 0.500812 0.500815 0.500817 0.50082 0.500822 
0.500825 0.500827 0.50083 0.500832 0.500835 0.500837 0.50084 0.500842 0.500845 
0.500847 0.50085 0.500852 0.500855 0.500857 0.50086 0.500862 0.500865 0.500867 
0.50087 0.500872 0.500875 0.500877 0.50088 0.500882 0.500885 0.500887 0.50089 
0.500892 0.500894 0.500897 0.500899 0.500902 0.500904 0.500907 0.500909 0.500912 
0.500914 0.500917 0.500919 0.500922 0.500924 0.500927 0.500929 0.500932 0.500934 
0.500937 0.500939 0.500942 0.500944 0.500947 0.500949 0.500951 0.495007 0.74 
0.740001 0.740002 0.740002 0.740003 0.740004 0.740004 0.740005 0.740006 0.740006 
0.740007 0.740008 0.740008 0.740009 0.74001 0.74001 0.740011 0.740012 0.740012 
0.740013 0.740014 0.740014 0.740015 0.740016 0.740016 0.740017 0.740018 0.740018 
0.740019 0.74002 0.74002 0.740021 0.740022 0.740022 0.740023 0.740024 0.740024 
0.740025 0.740026 0.740026 0.740027 0.740028 0.740028 0.740029 0.74003 0.74003 
0.740031 0.740032 0.740032 0.740033 0.740034 0.740034 0.740035 0.740036 0.740036 
0.740037 0.740038 0.740038 0.740039 0.74004 0.74004 0.740041 0.740042 0.740042 
0.740043 0.740044 0.740044 0.740045 0.740046 0.740046 0.740047 0.740048 0.740048 
0.740049 0.74005 0.74005 0.740051 0.740052 0.740052 0.740053 0.740054 0.740054 
0.740055 0.740056 0.740056 0.740057 0.740058 0.740058 0.740059 0.74006 0.74006 
0.740061 0.740062 0.740062 0.740063 0.740063 0.740064 0.740065 0.740065 0.740066 
0.740067 0.740067 0.740068 0.740069 0.740069 0.74007 0.74007 0.740071 0.740072 
0.740072 0.740073 0.740073 0.740074 0.740075 0.740075 0.740076 0.740076 0.740077 
0.740077 0.740077 0.740078 0.740078 0.740079 0.740079 0.740079 0.740079 0.740079 
0.740079 0.740079 0.74008 0.740156 0.740065 0.735419 0.723401 0.705079 0.681685 
0.65446 0.624642 0.59346 0.562138 0.531973 0.504456 0.481272 0.464147 0.454788 
0.453299 0.453302 0.453306 0.453311 0.453316 0.453321 0.453327 0.453334 0.453341 
0.453348 0.453356 0.453365 0.453375 0.453385 0.453397 0.453409 0.453423 0.453439 
0.453458 0.45348 0.453508 0.453548 0.454002 0.454249 0.444726 0.419796 0.423084 
0.419289 0.402557 0.368137 0.336485 0.304488 0.274103 0.263439 0.284033 0.284224 
0.295012 0.314693 0.323962 0.339493 0.353802 0.370031 0.403362 0.405902 0.42049 
0.432787 0.452757 0.464846 0.487588 0.503635 0.543228 0.561011 0.59544 0.667477 
0.631423 0.601578 0.567953 0.536874 0.522339 0.527965 0.528335 0.523193 0.501885 
0.500735 0.500738 0.50074 0.500743 0.500746 0.500749 0.500752 0.500754 0.500757 
0.50076 0.500763 0.500765 0.500768 0.500771 0.500773 0.500776 0.500779 0.500781 
0.500784 0.500787 0.500789 0.500792 0.500794 0.500797 0.500799 0.500802 0.500805 
0.500807 0.50081 0.500812 0.500815 0.500817 0.50082 0.500822 0.500825 0.500827 
0.50083 0.500832 0.500835 0.500837 0.50084 0.500842 0.500845 0.500847 0.50085 
0.500852 0.500855 0.500857 0.50086 0.500862 0.500865 0.500867 0.50087 0.500872 
0.500875 0.500877 0.50088 0.500882 0.500885 0.500887 0.50089 0.500892 0.500894 
0.500897 0.500899 0.500902 0.500904 0.500907 0.500909 0.500912 0.500914 0.500917 
0.500919 0.500922 0.500924 0.500927 0.500929 0.500932 0.500934 0.500937 0.500939 
0.500942 0.500944 0.500947 0.500949 0.500952 0.495007 0.74 0.740001 0.740002 
0.740002 0.740003 0.740004 0.740004 0.740005 0.740006 0.740006 0.740007 0.740008 
0.740008 0.740009 0.74001 0.74001 0.740011 0.740012 0.740012 0.740013 0.740014 
0.740014 0.740015 0.740016 0.740016 0.740017 0.740018 0.740018 0.740019 0.74002 
0.74002 0.740021 0.740022 0.740022 0.740023 0.740024 0.740024 0.740025 0.740026 
0.740026 0.740027 0.740028 0.740028 0.740029 0.74003 0.74003 0.740031 0.740032 
0.740032 0.740033 0.740034 0.740034 0.740035 0.740036 0.740036 0.740037 0.740038 
0.740038 0.740039 0.74004 0.74004 0.740041 0.740042 0.740042 0.740043 0.740044 
0.740044 0.740045 0.740046 0.740046 0.740047 0.740048 0.740048 0.740049 0.74005 
0.74005 0.740051 0.740052 0.740052 0.740053 0.740054 0.740054 0.740055 0.740056 
0.740056 0.740057 0.740058 0.740058 0.740059 0.74006 0.74006 0.740061 0.740062 
0.740062 0.740063 0.740063 0.740064 0.740065 0.740065 0.740066 0.740067 0.740067 
0.740068 0.740069 0.740069 0.74007 0.740071 0.740071 0.740072 0.740072 0.740073 
0.740074 0.740074 0.740075 0.740075 0.740076 0.740076 0.740077 0.740077 0.740078 
0.740078 0.740079 0.740079 0.74008 0.74008 0.740081 0.740081 0.740081 0.740082 
0.740083 0.74016 0.74007 0.735425 0.723414 0.70511 0.681733 0.654514 0.624687 
0.593483 0.562138 0.531945 0.504421 0.481247 0.464133 0.454779 0.453291 0.453296 
0.4533 0.453305 0.453311 0.453317 0.453323 0.453329 0.453336 0.453344 0.453352 
0.45336 0.453369 0.453379 0.45339 0.453402 0.453415 0.45343 0.453447 0.453467 
0.453492 0.453527 0.453888 0.454091 0.449204 0.442075 0.442075 0.438526 0.411823 
0.366387 0.341892 0.332254 0.284596 0.270274 0.284184 0.291128 0.3055 0.318305 
0.325295 0.335583 0.346751 0.353558 0.398107 0.399334 0.40316 0.410742 0.42457 
0.452634 0.481045 0.502716 0.541661 0.561467 0.593298 0.68166 0.640362 0.609024 
0.575312 0.539572 0.524848 0.53079 0.530876 0.524931 0.501956 0.500729 0.500734 
0.500737 0.500741 0.500744 0.500747 0.50075 0.500754 0.500757 0.500759 0.500762 
0.500765 0.500768 0.500771 0.500773 0.500776 0.500779 0.500781 0.500784 0.500787 
0.500789 0.500792 0.500794 0.500797 0.5008 0.500802 0.500805 0.500807 0.50081 
0.500812 0.500815 0.500817 0.50082 0.500822 0.500825 0.500827 0.50083 0.500832 
0.500835 0.500837 0.50084 0.500842 0.500845 0.500847 0.50085 0.500852 0.500855 
0.500857 0.50086 0.500862 0.500865 0.500867 0.50087 0.500872 0.500875 0.500877 
0.50088 0.500882 0.500885 0.500887 0.50089 0.500892 0.500894 0.500897 0.500899 
0.500902 0.500904 0.500907 0.500909 0.500912 0.500914 0.500917 0.500919 0.500922 
0.500924 0.500927 0.500929 0.500932 0.500934 0.500937 0.500939 0.500942 0.500944 
0.500947 0.500949 0.500952 0.495007 0.74 0.740001 0.740002 0.740002 0.740003 
0.740004 0.740004 0.740005 0.740006 0.740006 0.740007 0.740008 0.740008 0.740009 
0.74001 0.74001 0.740011 0.740012 0.740012 0.740013 0.740014 0.740014 0.740015 
0.740016 0.740016 0.740017 0.740018 0.740018 0.740019 0.74002 0.74002 0.740021 
0.740022 0.740022 0.740023 0.740024 0.740024 0.740025 0.740026 0.740026 0.740027 
0.740028 0.740028 0.740029 0.74003 0.74003 0.740031 0.740032 0.740032 0.740033 
0.740034 0.740034 0.740035 0.740036 0.740036 0.740037 0.740038 0.740038 0.740039 
0.74004 0.74004 0.740041 0.740042 0.740042 0.740043 0.740044 0.740044 0.740045 
0.740046 0.740046 0.740047 0.740048 0.740048 0.740049 0.74005 0.74005 0.740051 
0.740052 0.740052 0.740053 0.740054 0.740054 0.740055 0.740056 0.740056 0.740057 
0.740058 0.740058 0.740059 0.74006 0.74006 0.740061 0.740062 0.740062 0.740063 
0.740064 0.740064 0.740065 0.740066 0.740066 0.740067 0.740067 0.740068 0.740069 
0.740069 0.74007 0.740071 0.740071 0.740072 0.740072 0.740073 0.740074 0.740074 
0.740075 0.740075 0.740076 0.740077 0.740077 0.740078 0.740078 0.740079 0.740079 
0.74008 0.740081 0.740081 0.740082 0.740083 0.740083 0.740084 0.740087 0.740165 
0.740075 0.735428 0.723419 0.705114 0.681742 0.654526 0.624697 0.593486 0.562133 
0.531928 0.5044 0.48123 0.464121 0.45477 0.453283 0.453289 0.453294 0.4533 