# vtk DataFile Version 5.1
vtk output
ASCII
DATASET UNSTRUCTURED_GRID
POINTS 10043 double
-10.1 1.4499999993 0 -10.049999999 1.4499999993 0 -10.049999999 1.5 0 
-9.9999999985 1.4499999993 0 -9.9999999985 1.5 0 -9.9499999978 1.4499999993 0 
-9.9499999978 1.5 0 -9.899999997 1.4499999993 0 -9.899999997 1.5 0 
-9.8499999963 1.4499999993 0 -9.8499999963 1.5 0 -9.7999999955 1.4499999993 0 
-9.7999999955 1.5 0 -9.7499999948 1.4499999993 0 -9.7499999948 1.5 0 
-9.699999994 1.4499999993 0 -9.699999994 1.5 0 -9.6499999933 1.4499999993 0 
-9.6499999933 1.5 0 -9.5999999925 1.4499999993 0 -9.5999999925 1.5 0 
-9.5499999918 1.4499999993 0 -9.5499999918 1.5 0 -9.4999999911 1.4499999993 0 
-9.4999999911 1.5 0 -9.4499999903 1.4499999993 0 -9.4499999903 1.5 0 
-9.3999999896 1.4499999993 0 -9.3999999896 1.5 0 -9.3499999888 1.4499999993 0 
-9.3499999888 1.5 0 -9.2999999881 1.4499999993 0 -9.2999999881 1.5 0 
-9.2499999873 1.4499999993 0 -9.2499999873 1.5 0 -9.1999999866 1.4499999993 0 
-9.1999999866 1.5 0 -9.1499999858 1.4499999993 0 -9.1499999858 1.5 0 
-9.0999999851 1.4499999993 0 -9.0999999851 1.5 0 -9.0499999844 1.4499999993 0 
-9.0499999844 1.5 0 -8.9999999836 1.4499999993 0 -8.9999999836 1.5 0 
-8.9499999829 1.4499999993 0 -8.9499999829 1.5 0 -8.8999999821 1.4499999993 0 
-8.8999999821 1.5 0 -8.8499999814 1.4499999993 0 -8.8499999814 1.5 0 
-8.7999999806 1.4499999993 0 -8.7999999806 1.5 0 -8.7499999799 1.4499999993 0 
-8.7499999799 1.5 0 -8.6999999791 1.4499999993 0 -8.6999999791 1.5 0 
-8.6499999784 1.4499999993 0 -8.6499999784 1.5 0 -8.5999999776 1.4499999993 0 
-8.5999999776 1.5 0 -8.5499999769 1.4499999993 0 -8.5499999769 1.5 0 
-8.4999999762 1.4499999993 0 -8.4999999762 1.5 0 -8.4499999754 1.4499999993 0 
-8.4499999754 1.5 0 -8.3999999747 1.4499999993 0 -8.3999999747 1.5 0 
-8.3499999739 1.4499999993 0 -8.3499999739 1.5 0 -8.2999999732 1.4499999993 0 
-8.2999999732 1.5 0 -8.2499999724 1.4499999993 0 -8.2499999724 1.5 0 
-8.1999999717 1.4499999993 0 -8.1999999717 1.5 0 -8.1499999709 1.4499999993 0 
-8.1499999709 1.5 0 -8.0999999702 1.4499999993 0 -8.0999999702 1.5 0 
-8.0499999695 1.4499999993 0 -8.0499999695 1.5 0 -7.9999999687 1.4499999993 0 
-7.9999999687 1.5 0 -7.949999968 1.4499999993 0 -7.949999968 1.5 0 
-7.8999999672 1.4499999993 0 -7.8999999672 1.5 0 -7.8499999665 1.4499999993 0 
-7.8499999665 1.5 0 -7.7999999657 1.4499999993 0 -7.7999999657 1.5 0 
-7.749999965 1.4499999993 0 -7.749999965 1.5 0 -7.6999999642 1.4499999993 0 
-7.6999999642 1.5 0 -7.6499999635 1.4499999993 0 -7.6499999635 1.5 0 
-7.5999999627 1.4499999993 0 -7.5999999627 1.5 0 -7.549999962 1.4499999993 0 
-7.549999962 1.5 0 -7.4999999613 1.4499999993 0 -7.4999999613 1.5 0 
-7.4499999605 1.4499999993 0 -7.4499999605 1.5 0 -7.3999999598 1.4499999993 0 
-7.3999999598 1.5 0 -7.349999959 1.4499999993 0 -7.349999959 1.5 0 
-7.2999999583 1.4499999993 0 -7.2999999583 1.5 0 -7.2499999575 1.4499999993 0 
-7.2499999575 1.5 0 -7.1999999568 1.4499999993 0 -7.1999999568 1.5 0 
-7.149999956 1.4499999993 0 -7.149999956 1.5 0 -7.0999999553 1.4499999993 0 
-7.0999999553 1.5 0 -7.0499999546 1.4499999993 0 -7.0499999546 1.5 0 
-6.9999999538 1.4499999993 0 -6.9999999538 1.5 0 -6.9499999531 1.4499999993 0 
-6.9499999531 1.5 0 -6.8999999523 1.4499999993 0 -6.8999999523 1.5 0 
-6.8499999516 1.4499999993 0 -6.8499999516 1.5 0 -6.7999999508 1.4499999993 0 
-6.7999999508 1.5 0 -6.7499999501 1.4499999993 0 -6.7499999501 1.5 0 
-6.6999999493 1.4499999993 0 -6.6999999493 1.5 0 -6.6499999486 1.4499999993 0 
-6.6499999486 1.5 0 -6.5999999478 1.4499999993 0 -6.5999999478 1.5 0 
-6.5499999471 1.4499999993 0 -6.5499999471 1.5 0 -6.4999999464 1.4499999993 0 
-6.4999999464 1.5 0 -6.4499999456 1.4499999993 0 -6.4499999456 1.5 0 
-6.3999999449 1.4499999993 0 -6.3999999449 1.5 0 -6.3499999441 1.4499999993 0 
-6.3499999441 1.5 0 -6.2999999434 1.4499999993 0 -6.2999999434 1.5 0 
-6.2499999426 1.4499999993 0 -6.2499999426 1.5 0 -6.1999999419 1.4499999993 0 
-6.1999999419 1.5 0 -6.1499999411 1.4499999993 0 -6.1499999411 1.5 0 
-6.0999999404 1.4499999993 0 -6.0999999404 1.5 0 -6.0499999397 1.4499999993 0 
-6.0499999397 1.5 0 -5.9999999389 1.4499999993 0 -5.9999999389 1.5 0 
-5.9499999382 1.4499999993 0 -5.9499999382 1.5 0 -5.8999999374 1.4499999993 0 
-5.8999999374 1.5 0 -5.8499999367 1.4499999993 0 -5.8499999367 1.5 0 
-5.7999999359 1.4499999993 0 -5.7999999359 1.5 0 -5.7499999352 1.4499999993 0 
-5.7499999352 1.5 0 -5.6999999344 1.4499999993 0 -5.6999999344 1.5 0 
-5.6499999337 1.4499999993 0 -5.6499999337 1.5 0 -5.5999999329 1.4499999993 0 
-5.5999999329 1.5 0 -5.5499999322 1.4499999993 0 -5.5499999322 1.5 0 
-5.4999999315 1.4499999993 0 -5.4999999315 1.5 0 -5.4499999307 1.4499999993 0 
-5.4499999307 1.5 0 -5.39999993 1.4499999993 0 -5.39999993 1.5 0 
-5.3499999292 1.4499999993 0 -5.3499999292 1.5 0 -5.2999999285 1.4499999993 0 
-5.2999999285 1.5 0 -5.2499999277 1.4499999993 0 -5.2499999277 1.5 0 
-5.199999927 1.4499999993 0 -5.199999927 1.5 0 -5.1499999262 1.4499999993 0 
-5.1499999262 1.5 0 -5.0999999255 1.4499999993 0 -5.0999999255 1.5 0 
-5.0499999247 1.4499999993 0 -5.0499999247 1.5 0 -4.999999924 1.4499999993 0 
-4.999999924 1.5 0 -4.9499999233 1.4499999993 0 -4.9499999233 1.5 0 
-4.8999999225 1.4499999993 0 -4.8999999225 1.5 0 -4.8499999218 1.4499999993 0 
-4.8499999218 1.5 0 -4.799999921 1.4499999993 0 -4.799999921 1.5 0 
-4.7499999203 1.4499999993 0 -4.7499999203 1.5 0 -4.6999999195 1.4499999993 0 
-4.6999999195 1.5 0 -4.6499999188 1.4499999993 0 -4.6499999188 1.5 0 
-4.599999918 1.4499999993 0 -4.599999918 1.5 0 -4.5499999173 1.4499999993 0 
-4.5499999173 1.5 0 -4.4999999166 1.4499999993 0 -4.4999999166 1.5 0 
-4.4499999158 1.4499999993 0 -4.4499999158 1.5 0 -4.3999999151 1.4499999993 0 
-4.3999999151 1.5 0 -4.3499999143 1.4499999993 0 -4.3499999143 1.5 0 
-4.2999999136 1.4499999993 0 -4.2999999136 1.5 0 -4.2499999128 1.4499999993 0 
-4.2499999128 1.5 0 -4.1999999121 1.4499999993 0 -4.1999999121 1.5 0 
-4.1499999113 1.4499999993 0 -4.1499999113 1.5 0 -4.0999999106 1.4499999993 0 
-4.0999999106 1.5 0 -4.0499999098 1.4499999993 0 -4.0499999098 1.5 0 
-3.9999999091 1.4499999993 0 -3.9999999091 1.5 0 -3.9499999084 1.4499999993 0 
-3.9499999084 1.5 0 -3.8999999076 1.4499999993 0 -3.8999999076 1.5 0 
-3.8499999069 1.4499999993 0 -3.8499999069 1.5 0 -3.7999999061 1.4499999993 0 
-3.7999999061 1.5 0 -3.7499999054 1.4499999993 0 -3.7499999054 1.5 0 
-3.6999999046 1.4499999993 0 -3.6999999046 1.5 0 -3.6499999039 1.4499999993 0 
-3.6499999039 1.5 0 -3.5999999031 1.4499999993 0 -3.5999999031 1.5 0 
-3.5499999024 1.4499999993 0 -3.5499999024 1.5 0 -3.4999999017 1.4499999993 0 
-3.4999999017 1.5 0 -3.4499999009 1.4499999993 0 -3.4499999009 1.5 0 
-3.3999999002 1.4499999993 0 -3.3999999002 1.5 0 -3.3499998994 1.4499999993 0 
-3.3499998994 1.5 0 -3.2999998987 1.4499999993 0 -3.2999998987 1.5 0 
-3.2499998979 1.4499999993 0 -3.2499998979 1.5 0 -3.1999998972 1.4499999993 0 
-3.1999998972 1.5 0 -3.1499998964 1.4499999993 0 -3.1499998964 1.5 0 
-3.0999998957 1.4499999993 0 -3.0999998957 1.5 0 -3.0499998949 1.4499999993 0 
-3.0499998949 1.5 0 -2.9999998942 1.4499999993 0 -2.9999998942 1.5 0 
-2.9499998935 1.4499999993 0 -2.9499998935 1.5 0 -2.8999998927 1.4499999993 0 
-2.8999998927 1.5 0 -2.849999892 1.4499999993 0 -2.849999892 1.5 0 
-2.7999998912 1.4499999993 0 -2.7999998912 1.5 0 -2.7499998905 1.4499999993 0 
-2.7499998905 1.5 0 -2.6999998897 1.4499999993 0 -2.6999998897 1.5 0 
-2.649999889 1.4499999993 0 -2.649999889 1.5 0 -2.5999998882 1.4499999993 0 
-2.5999998882 1.5 0 -2.5499998875 1.4499999993 0 -2.5499998875 1.5 0 
-2.4999998868 1.4499999993 0 -2.4999998868 1.5 0 -2.449999886 1.4499999993 0 
-2.449999886 1.5 0 -2.3999998853 1.4499999993 0 -2.3999998853 1.5 0 
-2.3499998845 1.4499999993 0 -2.3499998845 1.5 0 -2.2999998838 1.4499999993 0 
-2.2999998838 1.5 0 -2.249999883 1.4499999993 0 -2.249999883 1.5 0 
-2.1999998823 1.4499999993 0 -2.1999998823 1.5 0 -2.1499998815 1.4499999993 0 
-2.1499998815 1.5 0 -2.0999998808 1.4499999993 0 -2.0999998808 1.5 0 
-2.04999988 1.4499999993 0 -2.04999988 1.5 0 -1.9999998793 1.4499999993 0 
-1.9999998793 1.5 0 -1.9499998786 1.4499999993 0 -1.9499998786 1.5 0 
-1.8999998778 1.4499999993 0 -1.8999998778 1.5 0 -1.8499998771 1.4499999993 0 
-1.8499998771 1.5 0 -1.7999998763 1.4499999993 0 -1.7999998763 1.5 0 
-1.7499998756 1.4499999993 0 -1.7499998756 1.5 0 -1.6999998748 1.4499999993 0 
-1.6999998748 1.5 0 -1.6499998741 1.4499999993 0 -1.6499998741 1.5 0 
-1.5999998733 1.4499999993 0 -1.5999998733 1.5 0 -1.5499998726 1.4499999993 0 
-1.5499998726 1.5 0 -1.4999998718 1.4499999993 0 -1.4999998718 1.5 0 
-1.4499998711 1.4499999993 0 -1.4499998711 1.5 0 -1.3999998704 1.4499999993 0 
-1.3999998704 1.5 0 -1.3499998696 1.4499999993 0 -1.3499998696 1.5 0 
-1.2999998689 1.4499999993 0 -1.2999998689 1.5 0 -1.2499998681 1.4499999993 0 
-1.2499998681 1.5 0 -1.1999998674 1.4499999993 0 -1.1999998674 1.5 0 
-1.1499998666 1.4499999993 0 -1.1499998666 1.5 0 -1.0999998659 1.4499999993 0 
-1.0999998659 1.5 0 -1.0499998651 1.4499999993 0 -1.0499998651 1.5 0 
-0.9999998644 1.4499999993 0 -0.9999998644 1.5 0 -0.94999986365 1.4499999993 0 
-0.94999986365 1.5 0 -0.89999986291 1.4499999993 0 -0.89999986291 1.5 0 
-0.84999986216 1.4499999993 0 -0.84999986216 1.5 0 -0.79999986142 1.4499999993 0 
-0.79999986142 1.5 0 -0.74999986067 1.4499999993 0 -0.74999986067 1.5 0 
-0.69999985993 1.4499999993 0 -0.69999985993 1.5 0 -0.64999985918 1.4499999993 0 
-0.64999985918 1.5 0 -0.59999985844 1.4499999993 0 -0.59999985844 1.5 0 
-0.54999985769 1.4499999993 0 -0.54999985769 1.5 0 -0.49999985695 1.4499999993 0 
-0.49999985695 1.5 0 -0.4499998562 1.4499999993 0 -0.4499998562 1.5 0 
-0.39999985546 1.4499999993 0 -0.39999985546 1.5 0 -0.34999985471 1.4499999993 0 
-0.34999985471 1.5 0 -0.29999985397 1.4499999993 0 -0.29999985397 1.5 0 
-0.24999985322 1.4499999993 0 -0.24999985322 1.5 0 -0.191663057 1.4499999993 0 
-0.17548248559 1.5 0 0.18862900414 1.4499999993 0 0.25000015423 1.4499999993 0 
[...]
CELL_DATA 9510
FIELD FieldData 4
Water_Depth_m 1 9510 float
0.260008 0.260023 0.260039 0.260054 0.260069 0.260085 0.2601 0.260115 0.260131 
0.260146 0.260161 0.260177 0.260192 0.260208 0.260223 0.260238 0.260254 0.260269 
0.260284 0.2603 0.260315 0.26033 0.260345 0.260361 0.260376 0.260391 0.260407 
0.260422 0.260437 0.260453 0.260468 0.260483 0.260498 0.260514 0.260529 0.260544 
0.26056 0.260575 0.26059 0.260605 0.260621 0.260636 0.260651 0.260666 0.260682 
0.260697 0.260712 0.260727 0.260743 0.260758 0.260773 0.260788 0.260804 0.260819 
0.260834 0.260849 0.260864 0.26088 0.260895 0.26091 0.260925 0.26094 0.260956 
0.260971 0.260986 0.261001 0.261016 0.261032 0.261047 0.261062 0.261077 0.261092 
0.261107 0.261122 0.261138 0.261153 0.261168 0.261183 0.261198 0.261213 0.261229 
0.261244 0.261259 0.261274 0.261289 0.261304 0.261319 0.261334 0.261349 0.261365 
0.26138 0.261395 0.26141 0.261425 0.26144 0.261455 0.26147 0.261485 0.2615 
0.261516 0.261531 0.261546 0.261561 0.261576 0.261591 0.261606 0.261621 0.261636 
0.261651 0.261666 0.261681 0.261696 0.261711 0.261726 0.261741 0.261756 0.261771 
0.261786 0.261801 0.261817 0.261832 0.261847 0.261862 0.261877 0.261892 0.261907 
0.261922 0.261937 0.261952 0.261967 0.261982 0.261997 0.262011 0.262026 0.262041 
0.262056 0.262071 0.262086 0.262101 0.262116 0.262131 0.262146 0.262161 0.262176 
0.262191 0.262206 0.262221 0.262236 0.262251 0.262266 0.262281 0.262296 0.262311 
0.262326 0.262341 0.262356 0.26237 0.262385 0.2624 0.262415 0.26243 0.262445 
0.26246 0.262475 0.26249 0.262505 0.26252 0.262535 0.26255 0.262565 0.26258 
0.262595 0.26261 0.262626 0.262641 0.262656 0.262671 0.262686 0.262702 0.262717 
0.262732 0.262748 0.262763 0.262779 0.262794 0.26281 0.262826 0.262842 0.262858 
0.262875 0.262891 0.262908 0.262925 0.262942 0.262959 0.262978 0.263 0.263091 
0.441411 0.441383 0.441371 0.441366 0.441363 0.441362 0.441362 0.441363 0.441364 
0.441366 0.441367 0.441369 0.441371 0.441373 0.441375 0.441377 0.44138 0.441382 
0.441384 0.441387 0.441389 0.441391 0.441394 0.441396 0.441399 0.441401 0.441404 
0.441406 0.441409 0.441411 0.441413 0.441416 0.441418 0.441421 0.441424 0.441426 
0.441429 0.441431 0.441434 0.441436 0.441439 0.441441 0.441444 0.441446 0.441449 
0.441451 0.441454 0.441456 0.441459 0.441461 0.441464 0.441466 0.441469 0.441471 
0.441474 0.441476 0.441479 0.441482 0.441484 0.441487 0.441489 0.441492 0.441494 
0.441497 0.441499 0.441502 0.441504 0.441507 0.441509 0.441512 0.441514 0.441517 
0.44152 0.441522 0.441525 0.441527 0.44153 0.441532 0.441535 0.441537 0.44154 
0.441542 0.441545 0.441547 0.44155 0.441552 0.441555 0.441557 0.44156 0.441563 
0.441565 0.441568 0.44157 0.441573 0.441575 0.441578 0.436496 0.260008 0.260023 
0.260039 0.260054 0.260069 0.260085 0.2601 0.260115 0.260131 0.260146 0.260161 
0.260177 0.260192 0.260208 0.260223 0.260238 0.260254 0.260269 0.260284 0.2603 
0.260315 0.26033 0.260346 0.260361 0.260376 0.260391 0.260407 0.260422 0.260437 
0.260453 0.260468 0.260483 0.260499 0.260514 0.260529 0.260544 0.26056 0.260575 
0.26059 0.260605 0.260621 0.260636 0.260651 0.260666 0.260682 0.260697 0.260712 
0.260727 0.260743 0.260758 0.260773 0.260788 0.260804 0.260819 0.260834 0.260849 
0.260864 0.26088 0.260895 0.26091 0.260925 0.26094 0.260956 0.260971 0.260986 
0.261001 0.261016 0.261032 0.261047 0.261062 0.261077 0.261092 0.261107 0.261123 
0.261138 0.261153 0.261168 0.261183 0.261198 0.261213 0.261229 0.261244 0.261259 
0.261274 0.261289 0.261304 0.261319 0.261334 0.26135 0.261365 0.26138 0.261395 
0.26141 0.261425 0.26144 0.261455 0.26147 0.261485 0.261501 0.261516 0.261531 
0.261546 0.261561 0.261576 0.261591 0.261606 0.261621 0.261636 0.261651 0.261666 
0.261681 0.261696 0.261711 0.261726 0.261741 0.261756 0.261772 0.261787 0.261802 
0.261817 0.261832 0.261847 0.261862 0.261877 0.261892 0.261907 0.261922 0.261937 
0.261952 0.261967 0.261982 0.261997 0.262012 0.262027 0.262042 0.262056 0.262071 
0.262086 0.262101 0.262116 0.262131 0.262146 0.262161 0.262176 0.262191 0.262206 
0.262221 0.262236 0.262251 0.262266 0.262281 0.262296 0.262311 0.262326 0.262341 
0.262356 0.262371 0.262386 0.2624 0.262415 0.26243 0.262445 0.26246 0.262475 
0.26249 0.262505 0.26252 0.262535 0.26255 0.262565 0.26258 0.262595 0.262611 
0.262626 0.262641 0.262656 0.262671 0.262686 0.262702 0.262717 0.262732 0.262748 
0.262763 0.262779 0.262794 0.26281 0.262826 0.262842 0.262858 0.262874 0.262891 
0.262908 0.262925 0.262942 0.262959 0.262978 0.263007 0.263057 0.441372 0.441369 
0.441365 0.441363 0.441361 0.441361 0.441362 0.441363 0.441364 0.441365 0.441367 
0.441369 0.441371 0.441373 0.441375 0.441377 0.44138 0.441382 0.441384 0.441387 
0.441389 0.441391 0.441394 0.441396 0.441399 0.441401 0.441404 0.441406 0.441409 
0.441411 0.441413 0.441416 0.441418 0.441421 0.441424 0.441426 0.441429 0.441431 
0.441434 0.441436 0.441439 0.441441 0.441444 0.441446 0.441449 0.441451 0.441454 
0.441456 0.441459 0.441461 0.441464 0.441466 0.441469 0.441471 0.441474 0.441476 
0.441479 0.441482 0.441484 0.441487 0.441489 0.441492 0.441494 0.441497 0.441499 
0.441502 0.441504 0.441507 0.441509 0.441512 0.441514 0.441517 0.44152 0.441522 
0.441525 0.441527 0.44153 0.441532 0.441535 0.441537 0.44154 0.441542 0.441545 
0.441547 0.44155 0.441552 0.441555 0.441557 0.44156 0.441563 0.441565 0.441568 
0.44157 0.441573 0.441575 0.441578 0.436496 0.260008 0.260023 0.260039 0.260054 
0.260069 0.260085 0.2601 0.260115 0.260131 0.260146 0.260162 0.260177 0.260192 
0.260208 0.260223 0.260238 0.260254 0.260269 0.260284 0.2603 0.260315 0.26033 
0.260346 0.260361 0.260376 0.260391 0.260407 0.260422 0.260437 0.260453 0.260468 
0.260483 0.260499 0.260514 0.260529 0.260544 0.26056 0.260575 0.26059 0.260605 
0.260621 0.260636 0.260651 0.260666 0.260682 0.260697 0.260712 0.260727 0.260743 
0.260758 0.260773 0.260788 0.260804 0.260819 0.260834 0.260849 0.260864 0.26088 
0.260895 0.26091 0.260925 0.26094 0.260956 0.260971 0.260986 0.261001 0.261016 
0.261032 0.261047 0.261062 0.261077 0.261092 0.261107 0.261123 0.261138 0.261153 
0.261168 0.261183 0.261198 0.261213 0.261229 0.261244 0.261259 0.261274 0.261289 
0.261304 0.261319 0.261334 0.26135 0.261365 0.26138 0.261395 0.26141 0.261425 
0.26144 0.261455 0.26147 0.261485 0.261501 0.261516 0.261531 0.261546 0.261561 
0.261576 0.261591 0.261606 0.261621 0.261636 0.261651 0.261666 0.261681 0.261696 
0.261711 0.261726 0.261741 0.261757 0.261772 0.261787 0.261802 0.261817 0.261832 
0.261847 0.261862 0.261877 0.261892 0.261907 0.261922 0.261937 0.261952 0.261967 
0.261982 0.261997 0.262012 0.262027 0.262042 0.262057 0.262071 0.262086 0.262101 
0.262116 0.262131 0.262146 0.262161 0.262176 0.262191 0.262206 0.262221 0.262236 
0.262251 0.262266 0.262281 0.262296 0.262311 0.262326 0.262341 0.262356 0.262371 
0.262386 0.2624 0.262415 0.26243 0.262445 0.26246 0.262475 0.26249 0.262505 
0.26252 0.262535 0.26255 0.262565 0.26258 0.262595 0.26261 0.262626 0.262641 
0.262656 0.262671 0.262686 0.262702 0.262717 0.262732 0.262748 0.262763 0.262779 
0.262794 0.26281 0.262826 0.262842 0.262858 0.262874 0.262891 0.262907 0.262924 
0.262941 0.262959 0.262977 0.263007 0.263071 0.441349 0.441356 0.441358 0.441358 
0.441359 0.44136 0.441361 0.441362 0.441363 0.441365 0.441367 0.441369 0.441371 
0.441373 0.441375 0.441377 0.44138 0.441382 0.441384 0.441387 0.441389 0.441391 
0.441394 0.441396 0.441399 0.441401 0.441404 0.441406 0.441408 0.441411 0.441413 
0.441416 0.441418 0.441421 0.441423 0.441426 0.441429 0.441431 0.441434 0.441436 
0.441439 0.441441 0.441444 0.441446 0.441449 0.441451 0.441454 0.441456 0.441459 
0.441461 0.441464 0.441466 0.441469 0.441471 0.441474 0.441476 0.441479 0.441482 
0.441484 0.441487 0.441489 0.441492 0.441494 0.441497 0.441499 0.441502 0.441504 
0.441507 0.441509 0.441512 0.441514 0.441517 0.44152 0.441522 0.441525 0.441527 
0.44153 0.441532 0.441535 0.441537 0.44154 0.441542 0.441545 0.441547 0.44155 
0.441552 0.441555 0.441557 0.44156 0.441563 0.441565 0.441568 0.44157 0.441573 
0.441575 0.441578 0.436496 0.260008 0.260023 0.260039 0.260054 0.260069 0.260085 
0.2601 0.260115 0.260131 0.260146 0.260162 0.260177 0.260192 0.260208 0.260223 
0.260238 0.260254 0.260269 0.260284 0.2603 0.260315 0.26033 0.260346 0.260361 
0.260376 0.260391 0.260407 0.260422 0.260437 0.260453 0.260468 0.260483 0.260499 
0.260514 0.260529 0.260544 0.26056 0.260575 0.26059 0.260605 0.260621 0.260636 
0.260651 0.260666 0.260682 0.260697 0.260712 0.260727 0.260743 0.260758 0.260773 
0.260788 0.260804 0.260819 0.260834 0.260849 0.260864 0.26088 0.260895 0.26091 
0.260925 0.26094 0.260956 0.260971 0.260986 0.261001 0.261016 0.261032 0.261047 
0.261062 0.261077 0.261092 0.261107 0.261123 0.261138 0.261153 0.261168 0.261183 
0.261198 0.261213 0.261229 0.261244 0.261259 0.261274 0.261289 0.261304 0.261319 
0.261334 0.26135 0.261365 0.26138 0.261395 0.26141 0.261425 0.26144 0.261455 
0.26147 0.261485 0.261501 0.261516 0.261531 0.261546 0.261561 0.261576 0.261591 
0.261606 0.261621 0.261636 0.261651 0.261666 0.261681 0.261696 0.261711 0.261726 
0.261741 0.261757 0.261772 0.261787 0.261802 0.261817 0.261832 0.261847 0.261862 
0.261877 0.261892 0.261907 0.261922 0.261937 0.261952 0.261967 0.261982 0.261997 
0.262012 0.262027 0.262042 0.262057 0.262071 0.262086 0.262101 0.262116 0.262131 
0.262146 0.262161 0.262176 0.262191 0.262206 0.262221 0.262236 0.262251 0.262266 
0.262281 0.262296 0.262311 0.262326 0.262341 0.262356 0.262371 0.262386 0.2624 
0.262415 0.26243 0.262445 0.26246 0.262475 0.26249 0.262505 0.26252 0.262535 
0.26255 0.262565 0.26258 0.262595 0.26261 0.262626 0.262641 0.262656 0.262671 
0.262686 0.262701 0.262717 0.262732 0.262747 0.262763 0.262778 0.262794 0.26281 
0.262825 0.262841 0.262857 0.262874 0.26289 0.262907 0.262923 0.262941 0.262959 
0.262978 0.263011 0.263081 0.441339 0.441347 0.441352 0.441354 0.441356 0.441358 
0.441359 0.441361 0.441363 0.441364 0.441366 0.441368 0.441371 0.441373 0.441375 
0.441377 0.441379 0.441382 0.441384 0.441387 0.441389 0.441391 0.441394 0.441396 
0.441399 0.441401 0.441404 0.441406 0.441408 0.441411 0.441413 0.441416 0.441418 
0.441421 0.441423 0.441426 0.441428 0.441431 0.441434 0.441436 0.441439 0.441441 
0.441444 0.441446 0.441449 0.441451 0.441454 0.441456 0.441459 0.441461 0.441464 
0.441466 0.441469 0.441471 0.441474 0.441476 0.441479 0.441482 0.441484 0.441487 
0.441489 0.441492 0.441494 0.441497 0.441499 0.441502 0.441504 0.441507 0.441509 
0.441512 0.441514 0.441517 0.44152 0.441522 0.441525 0.441527 0.44153 0.441532 
0.441535 0.441537 0.44154 0.441542 0.441545 0.441547 0.44155 0.441552 0.441555 
0.441557 0.44156 0.441563 0.441565 0.441568 0.44157 0.441573 0.441575 0.441578 
0.436496 0.260008 0.260023 0.260039 0.260054 0.260069 0.260085 0.2601 0.260115 
0.260131 0.260146 0.260162 0.260177 0.260192 0.260208 0.260223 0.260238 0.260254 
0.260269 0.260284 0.2603 0.260315 0.26033 0.260346 0.260361 0.260376 0.260391 
0.260407 0.260422 0.260437 0.260453 0.260468 0.260483 0.260499 0.260514 0.260529 
0.260544 0.26056 0.260575 0.26059 0.260605 0.260621 0.260636 0.260651 0.260666 
0.260682 0.260697 0.260712 0.260727 0.260743 0.260758 0.260773 0.260788 0.260804 
0.260819 0.260834 0.260849 0.260864 0.26088 0.260895 0.26091 0.260925 0.26094 
0.260956 0.260971 0.260986 0.261001 0.261016 0.261032 0.261047 0.261062 0.261077 
0.261092 0.261107 0.261123 0.261138 0.261153 0.261168 0.261183 0.261198 0.261213 
0.261229 0.261244 0.261259 0.261274 0.261289 0.261304 0.261319 0.261334 0.26135 
0.261365 0.26138 0.261395 0.26141 0.261425 0.26144 0.261455 0.26147 0.261485 
0.261501 0.261516 0.261531 0.261546 0.261561 0.261576 0.261591 0.261606 0.261621 
0.261636 0.261651 0.261666 0.261681 0.261696 0.261711 0.261726 0.261741 0.261757 
0.261772 0.261787 0.261802 0.261817 0.261832 0.261847 0.261862 0.261877 0.261892 
0.261907 0.261922 0.261937 0.261952 0.261967 0.261982 0.261997 0.262012 0.262027 
0.262042 0.262057 0.262071 0.262086 0.262101 0.262116 0.262131 0.262146 0.262161 
0.262176 0.262191 0.262206 0.262221 0.262236 0.262251 0.262266 0.262281 0.262296 
0.262311 0.262326 0.262341 0.262356 0.262371 0.262385 0.2624 0.262415 0.26243 
0.262445 0.26246 0.262475 0.26249 0.262505 0.26252 0.262535 0.26255 0.262565 
0.26258 0.262595 0.26261 0.262625 0.262641 0.262656 0.262671 0.262686 0.262701 
0.262717 0.262732 0.262747 0.262763 0.262778 0.262794 0.262809 0.262825 0.262841 
0.262857 0.262873 0.262889 0.262906 0.262922 0.262939 0.262958 0.262977 0.26301 
0.263081 0.441334 0.441342 0.441347 0.441351 0.441354 0.441356 0.441358 0.44136 
0.441362 0.441364 0.441366 0.441368 0.44137 0.441372 0.441375 0.441377 0.441379 
0.441382 0.441384 0.441386 0.441389 0.441391 0.441394 0.441396 0.441399 0.441401 
0.441404 0.441406 0.441408 0.441411 0.441413 0.441416 0.441418 0.441421 0.441423 
0.441426 0.441428 0.441431 0.441434 0.441436 0.441439 0.441441 0.441444 0.441446 
0.441449 0.441451 0.441454 0.441456 0.441459 0.441461 0.441464 0.441466 0.441469 
0.441471 0.441474 0.441476 0.441479 0.441482 0.441484 0.441487 0.441489 0.441492 
0.441494 0.441497 0.441499 0.441502 0.441504 0.441507 0.441509 0.441512 0.441514 
0.441517 0.44152 0.441522 0.441525 0.441527 0.44153 0.441532 0.441535 0.441537 
0.44154 0.441542 0.441545 0.441547 0.44155 0.441552 0.441555 0.441557 0.44156 
0.441563 0.441565 0.441568 0.44157 0.441573 0.441575 0.441578 0.436496 0.260008 
0.260023 0.260039 0.260054 0.260069 0.260085 0.2601 0.260115 0.260131 0.260146 
0.260162 0.260177 0.260192 0.260208 0.260223 0.260238 0.260254 0.260269 0.260284 
0.2603 0.260315 0.26033 0.260346 0.260361 0.260376 0.260391 0.260407 0.260422 
0.260437 0.260453 0.260468 0.260483 0.260499 0.260514 0.260529 0.260544 0.26056 
0.260575 0.26059 0.260605 0.260621 0.260636 0.260651 0.260666 0.260682 0.260697 
0.260712 0.260727 0.260743 0.260758 0.260773 0.260788 0.260804 0.260819 0.260834 
0.260849 0.260864 0.26088 0.260895 0.26091 0.260925 0.26094 0.260956 0.260971 
0.260986 0.261001 0.261016 0.261032 0.261047 0.261062 0.261077 0.261092 0.261107 
0.261123 0.261138 0.261153 0.261168 0.261183 0.261198 0.261213 0.261229 0.261244 
0.261259 0.261274 0.261289 0.261304 0.261319 0.261334 0.26135 0.261365 0.26138 
0.261395 0.26141 0.261425 0.26144 0.261455 0.26147 0.261485 0.261501 0.261516 
0.261531 0.261546 0.261561 0.261576 0.261591 0.261606 0.261621 0.261636 0.261651 
0.261666 0.261681 0.261696 0.261711 0.261726 0.261741 0.261757 0.261772 0.261787 
0.261802 0.261817 0.261832 0.261847 0.261862 0.261877 0.261892 0.261907 0.261922 
0.261937 0.261952 0.261967 0.261982 0.261997 0.262012 0.262027 0.262042 0.262057 
0.262071 0.262086 0.262101 0.262116 0.262131 0.262146 0.262161 0.262176 0.262191 
0.262206 0.262221 0.262236 0.262251 0.262266 0.262281 0.262296 0.262311 0.262326 
0.262341 0.262356 0.262371 0.262385 0.2624 0.262415 0.26243 0.262445 0.26246 
0.262475 0.26249 0.262505 0.26252 0.262535 0.26255 0.262565 0.26258 0.262595 
0.26261 0.262625 0.26264 0.262655 0.262671 0.262686 0.262701 0.262716 0.262732 
0.262747 0.262762 0.262778 0.262793 0.262809 0.262824 0.26284 0.262856 0.262872 
0.262888 0.262904 0.262921 0.262938 0.262955 0.262974 0.263006 0.263075 0.441333 
0.44134 0.441344 0.441348 0.441351 0.441354 0.441356 0.441359 0.441361 0.441363 
0.441365 0.441368 0.44137 0.441372 0.441374 0.441377 0.441379 0.441382 0.441384 
0.441386 0.441389 0.441391 0.441394 0.441396 0.441399 0.441401 0.441403 0.441406 
0.441408 0.441411 0.441413 0.441416 0.441418 0.441421 0.441423 0.441426 0.441428 
0.441431 0.441433 0.441436 0.441439 0.441441 0.441444 0.441446 0.441449 0.441451 
0.441454 0.441456 0.441459 0.441461 0.441464 0.441466 0.441469 0.441471 0.441474 
0.441476 0.441479 0.441482 0.441484 0.441487 0.441489 0.441492 0.441494 0.441497 
0.441499 0.441502 0.441504 0.441507 0.441509 0.441512 0.441514 0.441517 0.44152 
0.441522 0.441525 0.441527 0.44153 0.441532 0.441535 0.441537 0.44154 0.441542 
0.441545 0.441547 0.44155 0.441552 0.441555 0.441557 0.44156 0.441563 0.441565 
0.441568 0.44157 0.441573 0.441575 0.441578 0.436496 0.260008 0.260023 0.260039 
0.260054 0.260069 0.260085 0.2601 0.260115 0.260131 0.260146 0.260162 0.260177 
0.260192 0.260208 0.260223 0.260238 0.260254 0.260269 0.260284 0.2603 0.260315 
0.26033 0.260346 0.260361 0.260376 0.260391 0.260407 0.260422 0.260437 0.260453 
0.260468 0.260483 0.260499 0.260514 0.260529 0.260544 0.26056 0.260575 0.26059 
0.260605 0.260621 0.260636 0.260651 0.260666 0.260682 0.260697 0.260712 0.260727 
0.260743 0.260758 0.260773 0.260788 0.260804 0.260819 0.260834 0.260849 0.260864 
0.26088 0.260895 0.26091 0.260925 0.26094 0.260956 0.260971 0.260986 0.261001 
0.261016 0.261032 0.261047 0.261062 0.261077 0.261092 0.261107 0.261123 0.261138 
0.261153 0.261168 0.261183 0.261198 0.261213 0.261229 0.261244 0.261259 0.261274 
0.261289 0.261304 0.261319 0.261334 0.26135 0.261365 0.26138 0.261395 0.26141 
0.261425 0.26144 0.261455 0.26147 0.261485 0.261501 0.261516 0.261531 0.261546 
0.261561 0.261576 0.261591 0.261606 0.261621 0.261636 0.261651 0.261666 0.261681 
0.261696 0.261711 0.261726 0.261741 0.261757 0.261772 0.261787 0.261802 0.261817 
0.261832 0.261847 0.261862 0.261877 0.261892 0.261907 0.261922 0.261937 0.261952 
0.261967 0.261982 0.261997 0.262012 0.262027 0.262042 0.262056 0.262071 0.262086 
0.262101 0.262116 0.262131 0.262146 0.262161 0.262176 0.262191 0.262206 0.262221 
0.262236 0.262251 0.262266 0.262281 0.262296 0.262311 0.262326 0.262341 0.262356 
0.26237 0.262385 0.2624 0.262415 0.26243 0.262445 0.26246 0.262475 0.26249 
0.262505 0.26252 0.262535 0.26255 0.262565 0.26258 0.262595 0.26261 0.262625 
0.26264 0.262655 0.26267 0.262686 0.262701 0.262716 0.262731 0.262746 0.262762 
0.262777 0.262793 0.262808 0.262824 0.262839 0.262855 0.262871 0.262887 0.262903 
0.262919 0.262936 0.262953 0.262971 0.263 0.263065 0.441332 0.441338 0.441342 
0.441346 0.44135 0.441353 0.441355 0.441358 0.44136 0.441363 0.441365 0.441367 
0.44137 0.441372 0.441374 0.441377 0.441379 0.441381 0.441384 0.441386 0.441389 
0.441391 0.441394 0.441396 0.441398 0.441401 0.441403 0.441406 0.441408 0.441411 
0.441413 0.441416 0.441418 0.441421 0.441423 0.441426 0.441428 0.441431 0.441433 
0.441436 0.441439 0.441441 0.441444 0.441446 0.441449 0.441451 0.441454 0.441456 
0.441459 0.441461 0.441464 0.441466 0.441469 0.441471 0.441474 0.441476 0.441479 
0.441482 0.441484 0.441487 0.441489 0.441492 0.441494 0.441497 0.441499 0.441502 
0.441504 0.441507 0.441509 0.441512 0.441514 0.441517 0.44152 0.441522 0.441525 
0.441527 0.44153 0.441532 0.441535 0.441537 0.44154 0.441542 0.441545 0.441547 
0.44155 0.441552 0.441555 0.441557 0.44156 0.441563 0.441565 0.441568 0.44157 
0.441573 0.441575 0.441578 0.436496 0.260008 0.260023 0.260039 0.260054 0.260069 
0.260085 0.2601 0.260115 0.260131 0.260146 0.260162 0.260177 0.260192 0.260208 
0.260223 0.260238 0.260254 0.260269 0.260284 0.2603 0.260315 0.26033 0.260346 
0.260361 0.260376 0.260391 0.260407 0.260422 0.260437 0.260453 0.260468 0.260483 
0.260499 0.260514 0.260529 0.260544 0.26056 0.260575 0.26059 0.260605 0.260621 
0.260636 0.260651 0.260666 0.260682 0.260697 0.260712 0.260727 0.260743 0.260758 
0.260773 0.260788 0.260804 0.260819 0.260834 0.260849 0.260864 0.26088 0.260895 
0.26091 0.260925 0.26094 0.260956 0.260971 0.260986 0.261001 0.261016 0.261032 
0.261047 0.261062 0.261077 0.261092 0.261107 0.261123 0.261138 0.261153 0.261168 
0.261183 0.261198 0.261213 0.261229 0.261244 0.261259 0.261274 0.261289 0.261304 
0.261319 0.261334 0.26135 0.261365 0.26138 0.261395 0.26141 0.261425 0.26144 
0.261455 0.26147 0.261485 0.261501 0.261516 0.261531 0.261546 0.261561 0.261576 
0.261591 0.261606 0.261621 0.261636 0.261651 0.261666 0.261681 0.261696 0.261711 
0.261726 0.261741 0.261756 0.261772 0.261787 0.261802 0.261817 0.261832 0.261847 
0.261862 0.261877 0.261892 0.261907 0.261922 0.261937 0.261952 0.261967 0.261982 
0.261997 0.262012 0.262027 0.262042 0.262056 0.262071 0.262086 0.262101 0.262116 
0.262131 0.262146 0.262161 0.262176 0.262191 0.262206 0.262221 0.262236 0.262251 