# vtk DataFile Version 5.1
vtk output
ASCII
DATASET UNSTRUCTURED_GRID
POINTS 10043 double
-10.1 1.4499999993 0 -10.049999999 1.4499999993 0 -10.049999999 1.5 0 
-9.9999999985 1.4499999993 0 -9.9999999985 1.5 0 -9.9499999978 1.4499999993 0 
-9.9499999978 1.5 0 -9.899999997 1.4499999993 0 -9.899999997 1.5 0 
-9.8499999963 1.4499999993 0 -9.8499999963 1.5 0 -9.7999999955 1.4499999993 0 
-9.7999999955 1.5 0 -9.7499999948 1.4499999993 0 -9.7499999948 1.5 0 
-9.699999994 1.4499999993 0 -9.699999994 1.5 0 -9.6499999933 1.4499999993 0 
-9.6499999933 1.5 0 -9.5999999925 1.4499999993 0 -9.5999999925 1.5 0 
-9.5499999918 1.4499999993 0 -9.5499999918 1.5 0 -9.4999999911 1.4499999993 0 
-9.4999999911 1.5 0 -9.4499999903 1.4499999993 0 -9.4499999903 1.5 0 
-9.3999999896 1.4499999993 0 -9.3999999896 1.5 0 -9.3499999888 1.4499999993 0 
-9.3499999888 1.5 0 -9.2999999881 1.4499999993 0 -9.2999999881 1.5 0 
-9.2499999873 1.4499999993 0 -9.2499999873 1.5 0 -9.1999999866 1.4499999993 0 
-9.1999999866 1.5 0 -9.1499999858 1.4499999993 0 -9.1499999858 1.5 0 
-9.0999999851 1.4499999993 0 -9.0999999851 1.5 0 -9.0499999844 1.4499999993 0 
-9.0499999844 1.5 0 -8.9999999836 1.4499999993 0 -8.9999999836 1.5 0 
-8.9499999829 1.4499999993 0 -8.9499999829 1.5 0 -8.8999999821 1.4499999993 0 
-8.8999999821 1.5 0 -8.8499999814 1.4499999993 0 -8.8499999814 1.5 0 
-8.7999999806 1.4499999993 0 -8.7999999806 1.5 0 -8.7499999799 1.4499999993 0 
-8.7499999799 1.5 0 -8.6999999791 1.4499999993 0 -8.6999999791 1.5 0 
-8.6499999784 1.4499999993 0 -8.6499999784 1.5 0 -8.5999999776 1.4499999993 0 
-8.5999999776 1.5 0 -8.5499999769 1.4499999993 0 -8.5499999769 1.5 0 
-8.4999999762 1.4499999993 0 -8.4999999762 1.5 0 -8.4499999754 1.4499999993 0 
-8.4499999754 1.5 0 -8.3999999747 1.4499999993 0 -8.3999999747 1.5 0 
-8.3499999739 1.4499999993 0 -8.3499999739 1.5 0 -8.2999999732 1.4499999993 0 
-8.2999999732 1.5 0 -8.2499999724 1.4499999993 0 -8.2499999724 1.5 0 
-8.1999999717 1.4499999993 0 -8.1999999717 1.5 0 -8.1499999709 1.4499999993 0 
-8.1499999709 1.5 0 -8.0999999702 1.4499999993 0 -8.0999999702 1.5 0 
-8.0499999695 1.4499999993 0 -8.0499999695 1.5 0 -7.9999999687 1.4499999993 0 
-7.9999999687 1.5 0 -7.949999968 1.4499999993 0 -7.949999968 1.5 0 
-7.8999999672 1.4499999993 0 -7.8999999672 1.5 0 -7.8499999665 1.4499999993 0 
-7.8499999665 1.5 0 -7.7999999657 1.4499999993 0 -7.7999999657 1.5 0 
-7.749999965 1.4499999993 0 -7.749999965 1.5 0 -7.6999999642 1.4499999993 0 
-7.6999999642 1.5 0 -7.6499999635 1.4499999993 0 -7.6499999635 1.5 0 
-7.5999999627 1.4499999993 0 -7.5999999627 1.5 0 -7.549999962 1.4499999993 0 
-7.549999962 1.5 0 -7.4999999613 1.4499999993 0 -7.4999999613 1.5 0 
-7.4499999605 1.4499999993 0 -7.4499999605 1.5 0 -7.3999999598 1.4499999993 0 
-7.3999999598 1.5 0 -7.349999959 1.4499999993 0 -7.349999959 1.5 0 
-7.2999999583 1.4499999993 0 -7.2999999583 1.5 0 -7.2499999575 1.4499999993 0 
-7.2499999575 1.5 0 -7.1999999568 1.4499999993 0 -7.1999999568 1.5 0 
-7.149999956 1.4499999993 0 -7.149999956 1.5 0 -7.0999999553 1.4499999993 0 
-7.0999999553 1.5 0 -7.0499999546 1.4499999993 0 -7.0499999546 1.5 0 
-6.9999999538 1.4499999993 0 -6.9999999538 1.5 0 -6.9499999531 1.4499999993 0 
-6.9499999531 1.5 0 -6.8999999523 1.4499999993 0 -6.8999999523 1.5 0 
-6.8499999516 1.4499999993 0 -6.8499999516 1.5 0 -6.7999999508 1.4499999993 0 
-6.7999999508 1.5 0 -6.7499999501 1.4499999993 0 -6.7499999501 1.5 0 
-6.6999999493 1.4499999993 0 -6.6999999493 1.5 0 -6.6499999486 1.4499999993 0 
-6.6499999486 1.5 0 -6.5999999478 1.4499999993 0 -6.5999999478 1.5 0 
-6.5499999471 1.4499999993 0 -6.5499999471 1.5 0 -6.4999999464 1.4499999993 0 
-6.4999999464 1.5 0 -6.4499999456 1.4499999993 0 -6.4499999456 1.5 0 
-6.3999999449 1.4499999993 0 -6.3999999449 1.5 0 -6.3499999441 1.4499999993 0 
-6.3499999441 1.5 0 -6.2999999434 1.4499999993 0 -6.2999999434 1.5 0 
-6.2499999426 1.4499999993 0 -6.2499999426 1.5 0 -6.1999999419 1.4499999993 0 
-6.1999999419 1.5 0 -6.1499999411 1.4499999993 0 -6.1499999411 1.5 0 
-6.0999999404 1.4499999993 0 -6.0999999404 1.5 0 -6.0499999397 1.4499999993 0 
-6.0499999397 1.5 0 -5.9999999389 1.4499999993 0 -5.9999999389 1.5 0 
-5.9499999382 1.4499999993 0 -5.9499999382 1.5 0 -5.8999999374 1.4499999993 0 
-5.8999999374 1.5 0 -5.8499999367 1.4499999993 0 -5.8499999367 1.5 0 
-5.7999999359 1.4499999993 0 -5.7999999359 1.5 0 -5.7499999352 1.4499999993 0 
-5.7499999352 1.5 0 -5.6999999344 1.4499999993 0 -5.6999999344 1.5 0 
-5.6499999337 1.4499999993 0 -5.6499999337 1.5 0 -5.5999999329 1.4499999993 0 
-5.5999999329 1.5 0 -5.5499999322 1.4499999993 0 -5.5499999322 1.5 0 
-5.4999999315 1.4499999993 0 -5.4999999315 1.5 0 -5.4499999307 1.4499999993 0 
-5.4499999307 1.5 0 -5.39999993 1.4499999993 0 -5.39999993 1.5 0 
-5.3499999292 1.4499999993 0 -5.3499999292 1.5 0 -5.2999999285 1.4499999993 0 
-5.2999999285 1.5 0 -5.2499999277 1.4499999993 0 -5.2499999277 1.5 0 
-5.199999927 1.4499999993 0 -5.199999927 1.5 0 -5.1499999262 1.4499999993 0 
-5.1499999262 1.5 0 -5.0999999255 1.4499999993 0 -5.0999999255 1.5 0 
-5.0499999247 1.4499999993 0 -5.0499999247 1.5 0 -4.999999924 1.4499999993 0 
-4.999999924 1.5 0 -4.9499999233 1.4499999993 0 -4.9499999233 1.5 0 
-4.8999999225 1.4499999993 0 -4.8999999225 1.5 0 -4.8499999218 1.4499999993 0 
-4.8499999218 1.5 0 -4.799999921 1.4499999993 0 -4.799999921 1.5 0 
-4.7499999203 1.4499999993 0 -4.7499999203 1.5 0 -4.6999999195 1.4499999993 0 
-4.6999999195 1.5 0 -4.6499999188 1.4499999993 0 -4.6499999188 1.5 0 
-4.599999918 1.4499999993 0 -4.599999918 1.5 0 -4.5499999173 1.4499999993 0 
-4.5499999173 1.5 0 -4.4999999166 1.4499999993 0 -4.4999999166 1.5 0 
-4.4499999158 1.4499999993 0 -4.4499999158 1.5 0 -4.3999999151 1.4499999993 0 
-4.3999999151 1.5 0 -4.3499999143 1.4499999993 0 -4.3499999143 1.5 0 
-4.2999999136 1.4499999993 0 -4.2999999136 1.5 0 -4.2499999128 1.4499999993 0 
-4.2499999128 1.5 0 -4.1999999121 1.4499999993 0 -4.1999999121 1.5 0 
-4.1499999113 1.4499999993 0 -4.1499999113 1.5 0 -4.0999999106 1.4499999993 0 
-4.0999999106 1.5 0 -4.0499999098 1.4499999993 0 -4.0499999098 1.5 0 
-3.9999999091 1.4499999993 0 -3.9999999091 1.5 0 -3.9499999084 1.4499999993 0 
-3.9499999084 1.5 0 -3.8999999076 1.4499999993 0 -3.8999999076 1.5 0 
-3.8499999069 1.4499999993 0 -3.8499999069 1.5 0 -3.7999999061 1.4499999993 0 
-3.7999999061 1.5 0 -3.7499999054 1.4499999993 0 -3.7499999054 1.5 0 
-3.6999999046 1.4499999993 0 -3.6999999046 1.5 0 -3.6499999039 1.4499999993 0 
-3.6499999039 1.5 0 -3.5999999031 1.4499999993 0 -3.5999999031 1.5 0 
-3.5499999024 1.4499999993 0 -3.5499999024 1.5 0 -3.4999999017 1.4499999993 0 
-3.4999999017 1.5 0 -3.4499999009 1.4499999993 0 -3.4499999009 1.5 0 
-3.3999999002 1.4499999993 0 -3.3999999002 1.5 0 -3.3499998994 1.4499999993 0 
-3.3499998994 1.5 0 -3.2999998987 1.4499999993 0 -3.2999998987 1.5 0 
-3.2499998979 1.4499999993 0 -3.2499998979 1.5 0 -3.1999998972 1.4499999993 0 
-3.1999998972 1.5 0 -3.1499998964 1.4499999993 0 -3.1499998964 1.5 0 
-3.0999998957 1.4499999993 0 -3.0999998957 1.5 0 -3.0499998949 1.4499999993 0 
-3.0499998949 1.5 0 -2.9999998942 1.4499999993 0 -2.9999998942 1.5 0 
-2.9499998935 1.4499999993 0 -2.9499998935 1.5 0 -2.8999998927 1.4499999993 0 
-2.8999998927 1.5 0 -2.849999892 1.4499999993 0 -2.849999892 1.5 0 
-2.7999998912 1.4499999993 0 -2.7999998912 1.5 0 -2.7499998905 1.4499999993 0 
-2.7499998905 1.5 0 -2.6999998897 1.4499999993 0 -2.6999998897 1.5 0 
-2.649999889 1.4499999993 0 -2.649999889 1.5 0 -2.5999998882 1.4499999993 0 
-2.5999998882 1.5 0 -2.5499998875 1.4499999993 0 -2.5499998875 1.5 0 
-2.4999998868 1.4499999993 0 -2.4999998868 1.5 0 -2.449999886 1.4499999993 0 
-2.449999886 1.5 0 -2.3999998853 1.4499999993 0 -2.3999998853 1.5 0 
-2.3499998845 1.4499999993 0 -2.3499998845 1.5 0 -2.2999998838 1.4499999993 0 
-2.2999998838 1.5 0 -2.249999883 1.4499999993 0 -2.249999883 1.5 0 
-2.1999998823 1.4499999993 0 -2.1999998823 1.5 0 -2.1499998815 1.4499999993 0 
-2.1499998815 1.5 0 -2.0999998808 1.4499999993 0 -2.0999998808 1.5 0 
-2.04999988 1.4499999993 0 -2.04999988 1.5 0 -1.9999998793 1.4499999993 0 
-1.9999998793 1.5 0 -1.9499998786 1.4499999993 0 -1.9499998786 1.5 0 
-1.8999998778 1.4499999993 0 -1.8999998778 1.5 0 -1.8499998771 1.4499999993 0 
-1.8499998771 1.5 0 -1.7999998763 1.4499999993 0 -1.7999998763 1.5 0 
-1.7499998756 1.4499999993 0 -1.7499998756 1.5 0 -1.6999998748 1.4499999993 0 
-1.6999998748 1.5 0 -1.6499998741 1.4499999993 0 -1.6499998741 1.5 0 
-1.5999998733 1.4499999993 0 -1.5999998733 1.5 0 -1.5499998726 1.4499999993 0 
-1.5499998726 1.5 0 -1.4999998718 1.4499999993 0 -1.4999998718 1.5 0 
-1.4499998711 1.4499999993 0 -1.4499998711 1.5 0 -1.3999998704 1.4499999993 0 
-1.3999998704 1.5 0 -1.3499998696 1.4499999993 0 -1.3499998696 1.5 0 
-1.2999998689 1.4499999993 0 -1.2999998689 1.5 0 -1.2499998681 1.4499999993 0 
-1.2499998681 1.5 0 -1.1999998674 1.4499999993 0 -1.1999998674 1.5 0 
-1.1499998666 1.4499999993 0 -1.1499998666 1.5 0 -1.0999998659 1.4499999993 0 
-1.0999998659 1.5 0 -1.0499998651 1.4499999993 0 -1.0499998651 1.5 0 
-0.9999998644 1.4499999993 0 -0.9999998644 1.5 0 -0.94999986365 1.4499999993 0 
-0.94999986365 1.5 0 -0.89999986291 1.4499999993 0 -0.89999986291 1.5 0 
-0.84999986216 1.4499999993 0 -0.84999986216 1.5 0 -0.79999986142 1.4499999993 0 
-0.79999986142 1.5 0 -0.74999986067 1.4499999993 0 -0.74999986067 1.5 0 
-0.69999985993 1.4499999993 0 -0.69999985993 1.5 0 -0.64999985918 1.4499999993 0 
-0.64999985918 1.5 0 -0.59999985844 1.4499999993 0 -0.59999985844 1.5 0 
-0.54999985769 1.4499999993 0 -0.54999985769 1.5 0 -0.49999985695 1.4499999993 0 
-0.49999985695 1.5 0 -0.4499998562 1.4499999993 0 -0.4499998562 1.5 0 
-0.39999985546 1.4499999993 0 -0.39999985546 1.5 0 -0.34999985471 1.4499999993 0 
-0.34999985471 1.5 0 -0.29999985397 1.4499999993 0 -0.29999985397 1.5 0 
-0.24999985322 1.4499999993 0 -0.24999985322 1.5 0 -0.191663057 1.4499999993 0 
-0.17548248559 1.5 0 0.18862900414 1.4499999993 0 0.25000015423 1.4499999993 0 
[...]
CELL_DATA 9510
FIELD FieldData 4
Water_Depth_m 1 9510 float
0.344958 0.344865 0.344762 0.344651 0.344529 0.344398 0.344257 0.344108 0.343952 
0.343792 0.34363 0.34347 0.343315 0.343167 0.343029 0.342903 0.34279 0.342691 
0.342606 0.342535 0.342476 0.342429 0.342392 0.342365 0.342347 0.342337 0.342334 
0.342337 0.342345 0.342359 0.342378 0.342401 0.342428 0.34246 0.342497 0.342539 
0.342585 0.342637 0.342694 0.342756 0.342824 0.342898 0.342977 0.343062 0.343153 
0.343249 0.343351 0.343457 0.343568 0.343683 0.343801 0.343922 0.344045 0.34417 
0.344296 0.344421 0.344545 0.344668 0.344789 0.344907 0.34502 0.34513 0.345235 
0.345334 0.345428 0.345515 0.345596 0.34567 0.345737 0.345797 0.34585 0.345896 
0.345934 0.345965 0.345988 0.346004 0.346013 0.346013 0.346007 0.345992 0.34597 
0.345939 0.3459 0.345852 0.345795 0.34573 0.345655 0.34557 0.345477 0.345374 
0.345262 0.345142 0.345014 0.34488 0.344741 0.344599 0.344457 0.344316 0.344179 
0.344048 0.343926 0.343815 0.343717 0.343633 0.343565 0.343512 0.343476 0.343456 
0.343451 0.343461 0.343484 0.343517 0.343559 0.343608 0.343661 0.343716 0.343771 
0.343824 0.343874 0.343918 0.343956 0.343985 0.344006 0.344018 0.344021 0.344014 
0.343999 0.343975 0.343945 0.343908 0.343866 0.343822 0.343775 0.343729 0.343685 
0.343644 0.343608 0.343578 0.343554 0.343538 0.343528 0.343525 0.343528 0.343535 
0.343546 0.343559 0.343573 0.343586 0.343598 0.343608 0.343615 0.343618 0.343619 
0.343616 0.34361 0.343602 0.343593 0.343582 0.343571 0.34356 0.343549 0.34354 
0.343533 0.343527 0.343523 0.343522 0.343524 0.343528 0.343535 0.343544 0.343556 
0.343573 0.343593 0.343615 0.343641 0.343673 0.34371 0.343753 0.343802 0.343858 
0.343923 0.343999 0.344085 0.344184 0.344296 0.344424 0.344569 0.344734 0.344918 
0.345123 0.345353 0.345607 0.345888 0.346193 0.346525 0.346884 0.347254 0.34771 
0.351304 0.351694 0.352016 0.352314 0.352588 0.352839 0.353066 0.353273 0.353459 
0.353627 0.353777 0.353913 0.354035 0.354144 0.354242 0.35433 0.354409 0.35448 
0.354545 0.354602 0.354655 0.354702 0.354745 0.354783 0.354818 0.35485 0.35488 
0.354906 0.35493 0.354953 0.354973 0.354992 0.35501 0.355026 0.355041 0.355055 
0.355068 0.35508 0.355091 0.355102 0.355112 0.355122 0.355131 0.35514 0.355148 
0.355156 0.355164 0.355172 0.355179 0.355186 0.355193 0.3552 0.355206 0.355213 
0.355219 0.355226 0.355232 0.355238 0.355244 0.35525 0.355256 0.355262 0.355268 
0.355274 0.35528 0.355286 0.355292 0.355297 0.355303 0.355309 0.355315 0.355321 
0.355327 0.355333 0.355339 0.355345 0.355351 0.355357 0.355363 0.355369 0.355375 
0.355381 0.355387 0.355393 0.3554 0.355406 0.355412 0.355418 0.355425 0.355431 
0.355437 0.355444 0.35545 0.35545 0.355033 0.352996 0.349651 0.344958 0.344864 
0.344761 0.344648 0.344526 0.344393 0.344251 0.344101 0.343943 0.343782 0.343618 
0.343457 0.3433 0.343152 0.343014 0.342888 0.342776 0.342678 0.342593 0.342523 
0.342465 0.342419 0.342383 0.342357 0.34234 0.34233 0.342328 0.342331 0.34234 
0.342354 0.342372 0.342395 0.342423 0.342455 0.342491 0.342532 0.342579 0.34263 
0.342687 0.342749 0.342816 0.34289 0.342969 0.343054 0.343145 0.343241 0.343342 
0.343449 0.34356 0.343675 0.343793 0.343915 0.344039 0.344164 0.34429 0.344416 
0.344541 0.344665 0.344786 0.344905 0.345019 0.34513 0.345235 0.345335 0.345429 
0.345518 0.345599 0.345674 0.345742 0.345802 0.345856 0.345902 0.34594 0.345971 
0.345995 0.346011 0.34602 0.346021 0.346014 0.346 0.345977 0.345947 0.345907 
0.345859 0.345802 0.345736 0.34566 0.345575 0.345481 0.345377 0.345264 0.345142 
0.345013 0.344877 0.344737 0.344593 0.344449 0.344306 0.344168 0.344035 0.343912 
0.3438 0.343701 0.343617 0.343548 0.343496 0.343461 0.343442 0.343438 0.343449 
0.343473 0.343508 0.343552 0.343603 0.343658 0.343715 0.343772 0.343827 0.343879 
0.343924 0.343963 0.343993 0.344015 0.344027 0.34403 0.344023 0.344007 0.343982 
0.34395 0.343912 0.343869 0.343822 0.343774 0.343727 0.343681 0.343639 0.343602 
0.343571 0.343547 0.343531 0.343522 0.34352 0.343523 0.343532 0.343544 0.343559 
0.343574 0.343588 0.3436 0.343611 0.343618 0.343621 0.343622 0.343618 0.343613 
0.343604 0.343594 0.343583 0.343571 0.343559 0.343548 0.343539 0.34353 0.343524 
0.343521 0.34352 0.343521 0.343525 0.343532 0.343542 0.343554 0.34357 0.343589 
0.343611 0.343638 0.343669 0.343705 0.343746 0.343794 0.34385 0.343915 0.343988 
0.344073 0.34417 0.344281 0.344408 0.344551 0.344712 0.344894 0.345098 0.345327 
0.345577 0.345854 0.346158 0.346491 0.346846 0.34722 0.347665 0.351307 0.3517 
0.352025 0.352325 0.3526 0.352851 0.353079 0.353285 0.353471 0.353638 0.353788 
0.353923 0.354044 0.354152 0.35425 0.354337 0.354416 0.354486 0.35455 0.354607 
0.354659 0.354706 0.354748 0.354787 0.354821 0.354853 0.354882 0.354908 0.354932 
0.354954 0.354975 0.354993 0.355011 0.355027 0.355042 0.355055 0.355068 0.35508 
0.355092 0.355103 0.355113 0.355122 0.355131 0.35514 0.355149 0.355157 0.355164 
0.355172 0.355179 0.355186 0.355193 0.3552 0.355207 0.355213 0.355219 0.355226 
0.355232 0.355238 0.355244 0.35525 0.355256 0.355262 0.355268 0.355274 0.35528 
0.355286 0.355292 0.355298 0.355303 0.355309 0.355315 0.355321 0.355327 0.355333 
0.355339 0.355345 0.355351 0.355357 0.355363 0.355369 0.355375 0.355381 0.355387 
0.355393 0.3554 0.355406 0.355412 0.355418 0.355425 0.355431 0.355437 0.355444 
0.35545 0.35545 0.355033 0.352996 0.349651 0.344957 0.344862 0.344758 0.344644 
0.344519 0.344384 0.344239 0.344086 0.343925 0.343761 0.343594 0.34343 0.343271 
0.343122 0.342983 0.342858 0.342746 0.34265 0.342568 0.342499 0.342443 0.342399 
0.342365 0.342341 0.342325 0.342317 0.342315 0.34232 0.342329 0.342344 0.342362 
0.342385 0.342412 0.342444 0.34248 0.342521 0.342566 0.342617 0.342673 0.342734 
0.342801 0.342874 0.342953 0.343038 0.343128 0.343224 0.343326 0.343433 0.343544 
0.343659 0.343779 0.343901 0.344025 0.344152 0.344279 0.344406 0.344533 0.344658 
0.344781 0.3449 0.345017 0.345129 0.345236 0.345337 0.345433 0.345523 0.345606 
0.345682 0.345751 0.345812 0.345867 0.345914 0.345953 0.345985 0.346009 0.346026 
0.346035 0.346036 0.34603 0.346015 0.345993 0.345962 0.345922 0.345873 0.345816 
0.345749 0.345672 0.345585 0.345489 0.345383 0.345268 0.345143 0.345011 0.344872 
0.344728 0.344581 0.344433 0.344287 0.344145 0.34401 0.343884 0.34377 0.34367 
0.343585 0.343516 0.343464 0.34343 0.343412 0.343411 0.343425 0.343452 0.343491 
0.343538 0.343593 0.343652 0.343714 0.343775 0.343834 0.343888 0.343937 0.343978 
0.34401 0.344033 0.344046 0.344048 0.34404 0.344023 0.343996 0.343962 0.34392 
0.343874 0.343824 0.343772 0.343721 0.343672 0.343628 0.343589 0.343557 0.343533 
0.343517 0.343509 0.343508 0.343514 0.343526 0.34354 0.343557 0.343574 0.343591 
0.343605 0.343616 0.343624 0.343628 0.343628 0.343624 0.343617 0.343608 0.343596 
0.343584 0.343571 0.343558 0.343546 0.343535 0.343527 0.34352 0.343516 0.343515 
0.343516 0.34352 0.343527 0.343536 0.343549 0.343564 0.343582 0.343604 0.34363 
0.343659 0.343694 0.343734 0.343781 0.343835 0.343896 0.343968 0.34405 0.344144 
0.344251 0.344373 0.344513 0.34467 0.344848 0.345048 0.34527 0.345517 0.34579 
0.346092 0.346423 0.346776 0.34715 0.347597 0.351313 0.351713 0.352043 0.352346 
0.352623 0.352875 0.353104 0.353309 0.353494 0.35366 0.353809 0.353943 0.354062 
0.354169 0.354265 0.354351 0.354428 0.354498 0.35456 0.354617 0.354668 0.354714 
0.354755 0.354793 0.354827 0.354858 0.354887 0.354912 0.354936 0.354958 0.354978 
0.354996 0.355013 0.355029 0.355044 0.355057 0.35507 0.355082 0.355093 0.355104 
0.355114 0.355123 0.355132 0.355141 0.355149 0.355157 0.355165 0.355172 0.35518 
0.355187 0.355194 0.3552 0.355207 0.355213 0.35522 0.355226 0.355232 0.355238 
0.355244 0.35525 0.355256 0.355262 0.355268 0.355274 0.35528 0.355286 0.355292 
0.355298 0.355303 0.355309 0.355315 0.355321 0.355327 0.355333 0.355339 0.355345 
0.355351 0.355357 0.355363 0.355369 0.355375 0.355381 0.355387 0.355393 0.3554 
0.355406 0.355412 0.355418 0.355425 0.355431 0.355437 0.355444 0.355449 0.35545 
0.355033 0.352996 0.349651 0.344956 0.34486 0.344754 0.344638 0.34451 0.344371 
0.344222 0.344064 0.343898 0.343728 0.343558 0.343389 0.343228 0.343076 0.342938 
0.342813 0.342703 0.342609 0.34253 0.342464 0.342412 0.342371 0.34234 0.342318 
0.342305 0.342299 0.342299 0.342304 0.342315 0.342329 0.342348 0.342371 0.342397 
0.342428 0.342464 0.342503 0.342548 0.342598 0.342652 0.342713 0.342779 0.342851 
0.34293 0.343014 0.343104 0.3432 0.343301 0.343408 0.34352 0.343636 0.343756 
0.343879 0.344005 0.344133 0.344262 0.344391 0.34452 0.344647 0.344772 0.344894 
0.345013 0.345127 0.345236 0.34534 0.345438 0.34553 0.345615 0.345693 0.345764 
0.345827 0.345883 0.345931 0.345972 0.346005 0.34603 0.346047 0.346057 0.346059 
0.346052 0.346038 0.346015 0.345984 0.345944 0.345895 0.345836 0.345767 0.345689 
0.3456 0.345501 0.345392 0.345273 0.345145 0.345009 0.344865 0.344716 0.344563 
0.34441 0.344258 0.344111 0.343971 0.343841 0.343724 0.343622 0.343535 0.343466 
0.343415 0.343383 0.343368 0.34337 0.343388 0.34342 0.343464 0.343518 0.343579 
0.343644 0.343712 0.343779 0.343844 0.343903 0.343956 0.344001 0.344036 0.344061 
0.344074 0.344076 0.344067 0.344047 0.344017 0.343979 0.343933 0.343881 0.343826 
0.343769 0.343712 0.343659 0.34361 0.343569 0.343535 0.34351 0.343495 0.343489 
0.343491 0.3435 0.343516 0.343535 0.343556 0.343576 0.343596 0.343613 0.343626 
0.343634 0.343638 0.343638 0.343633 0.343624 0.343613 0.343599 0.343585 0.34357 
0.343555 0.343542 0.34353 0.343521 0.343514 0.34351 0.343508 0.343509 0.343513 
0.343519 0.343528 0.34354 0.343555 0.343573 0.343594 0.343618 0.343646 0.343679 
0.343717 0.343761 0.343812 0.34387 0.343937 0.344015 0.344105 0.344207 0.344323 
0.344456 0.344608 0.344779 0.344971 0.345187 0.345428 0.345694 0.345992 0.346319 
0.34667 0.347044 0.347493 0.351324 0.351734 0.352071 0.352379 0.352659 0.352913 
0.353141 0.353346 0.35353 0.353694 0.353841 0.353972 0.354089 0.354194 0.354288 
0.354372 0.354447 0.354515 0.354576 0.354631 0.354681 0.354725 0.354766 0.354802 
0.354836 0.354866 0.354893 0.354919 0.354942 0.354963 0.354982 0.355 0.355017 
0.355032 0.355047 0.35506 0.355072 0.355084 0.355095 0.355105 0.355115 0.355125 
0.355134 0.355142 0.35515 0.355158 0.355166 0.355173 0.35518 0.355187 0.355194 
0.355201 0.355207 0.355214 0.35522 0.355226 0.355232 0.355238 0.355244 0.35525 
0.355256 0.355262 0.355268 0.355274 0.35528 0.355286 0.355292 0.355298 0.355304 
0.355309 0.355315 0.355321 0.355327 0.355333 0.355339 0.355345 0.355351 0.355357 
0.355363 0.355369 0.355375 0.355381 0.355387 0.355394 0.3554 0.355406 0.355412 
0.355418 0.355425 0.355431 0.355437 0.355444 0.355449 0.35545 0.355033 0.352996 
0.349651 0.344956 0.344857 0.344749 0.344629 0.344498 0.344354 0.344199 0.344034 
0.343862 0.343686 0.343509 0.343337 0.343172 0.343019 0.34288 0.342757 0.34265 
0.342559 0.342484 0.342423 0.342374 0.342337 0.342309 0.342291 0.34228 0.342276 
0.342278 0.342285 0.342296 0.342312 0.34233 0.342353 0.342379 0.342409 0.342443 
0.342482 0.342525 0.342573 0.342627 0.342686 0.342751 0.342822 0.342899 0.342983 
0.343072 0.343168 0.343269 0.343376 0.343488 0.343605 0.343726 0.343851 0.343979 
0.344108 0.344239 0.344371 0.344502 0.344632 0.34476 0.344885 0.345007 0.345124 
0.345237 0.345344 0.345445 0.34554 0.345627 0.345708 0.345781 0.345846 0.345904 
0.345954 0.345996 0.346031 0.346057 0.346076 0.346086 0.346088 0.346082 0.346068 
0.346045 0.346014 0.345973 0.345922 0.345862 0.345792 0.345711 0.34562 0.345518 
0.345404 0.345281 0.345147 0.345005 0.344854 0.344698 0.344538 0.344377 0.344217 
0.344063 0.343917 0.343782 0.343661 0.343556 0.343468 0.343398 0.343349 0.343318 
0.343307 0.343314 0.343337 0.343376 0.343428 0.343489 0.343559 0.343633 0.343709 
0.343785 0.343857 0.343924 0.343983 0.344033 0.344072 0.344099 0.344113 0.344114 
0.344103 0.34408 0.344046 0.344002 0.34395 0.343891 0.343828 0.343763 0.3437 
0.34364 0.343586 0.34354 0.343504 0.343478 0.343464 0.34346 0.343467 0.343481 
0.343502 0.343527 0.343554 0.34358 0.343604 0.343624 0.343639 0.343649 0.343653 
0.343651 0.343645 0.343634 0.34362 0.343604 0.343586 0.343569 0.343552 0.343537 
0.343523 0.343513 0.343505 0.3435 0.343498 0.343499 0.343503 0.343509 0.343518 
0.34353 0.343544 0.34356 0.34358 0.343603 0.343629 0.343659 0.343694 0.343735 
0.343781 0.343835 0.343898 0.34397 0.344053 0.344148 0.344257 0.344382 0.344525 
0.344687 0.34487 0.345075 0.345307 0.345565 0.345854 0.346177 0.346525 0.346898 
0.34735 0.351339 0.351764 0.35211 0.352425 0.352709 0.352964 0.353193 0.353397 
0.353578 0.35374 0.353884 0.354012 0.354126 0.354228 0.354319 0.3544 0.354473 
0.354538 0.354597 0.35465 0.354697 0.354741 0.35478 0.354815 0.354847 0.354876 
0.354903 0.354927 0.354949 0.35497 0.354988 0.355006 0.355022 0.355037 0.355051 
0.355063 0.355076 0.355087 0.355098 0.355108 0.355117 0.355127 0.355135 0.355144 
0.355152 0.355159 0.355167 0.355174 0.355181 0.355188 0.355195 0.355201 0.355208 
0.355214 0.35522 0.355227 0.355233 0.355239 0.355245 0.355251 0.355257 0.355263 
0.355268 0.355274 0.35528 0.355286 0.355292 0.355298 0.355304 0.355309 0.355315 
0.355321 0.355327 0.355333 0.355339 0.355345 0.355351 0.355357 0.355363 0.355369 
0.355375 0.355381 0.355387 0.355394 0.3554 0.355406 0.355412 0.355418 0.355425 
0.355431 0.355437 0.355444 0.355449 0.35545 0.355033 0.352996 0.349651 0.344955 
0.344854 0.344743 0.344619 0.344483 0.344334 0.344172 0.344 0.34382 0.343636 
0.343453 0.343276 0.343109 0.342955 0.342817 0.342697 0.342593 0.342507 0.342436 
0.342378 0.342334 0.3423 0.342277 0.342261 0.342253 0.342252 0.342255 0.342264 
0.342276 0.342291 0.34231 0.342332 0.342358 0.342387 0.34242 0.342457 0.342499 
0.342545 0.342597 0.342655 0.342719 0.342788 0.342864 0.342947 0.343035 0.34313 
0.343232 0.343339 0.343451 0.343569 0.343691 0.343817 0.343946 0.344078 0.344212 
0.344346 0.34448 0.344614 0.344745 0.344874 0.345 0.345121 0.345237 0.345348 
0.345453 0.345551 0.345642 0.345726 0.345802 0.34587 0.34593 0.345982 0.346026 
0.346062 0.34609 0.34611 0.346122 0.346125 0.346119 0.346105 0.346082 0.34605 
0.346008 0.345957 0.345895 0.345823 0.345739 0.345644 0.345538 0.34542 0.34529 
0.34515 0.344999 0.34484 0.344675 0.344505 0.344334 0.344165 0.344002 0.343848 
0.343706 0.343579 0.34347 0.34338 0.343311 0.343263 0.343235 0.343229 0.343242 
0.343273 0.34332 0.343381 0.343453 0.343533 0.343619 0.343706 0.343792 0.343874 
0.34395 0.344017 0.344074 0.344118 0.344148 0.344163 0.344164 0.344151 0.344124 
0.344084 0.344032 0.343971 0.343903 0.34383 0.343756 0.343683 0.343614 0.343553 
0.343501 0.343462 0.343435 0.343423 0.343423 0.343435 0.343456 0.343485 0.343517 
0.343551 0.343585 0.343615 0.34364 0.343658 0.343669 0.343673 0.34367 0.343661 
0.343647 0.343629 0.343609 0.343588 0.343567 0.343547 0.343529 0.343514 0.343502 
0.343493 0.343488 0.343486 0.343487 0.34349 0.343497 0.343506 0.343517 0.34353 
0.343546 0.343564 0.343585 0.343608 0.343635 0.343667 0.343703 0.343745 0.343793 
0.343849 0.343914 0.34399 0.344076 0.344176 0.344291 0.344422 0.344573 0.344743 
0.344937 0.345155 0.345401 0.34568 0.345994 0.346335 0.346707 0.347163 0.351361 
0.351804 0.352163 0.352485 0.352774 0.353031 0.353259 0.353461 0.353639 0.353797 
0.353937 0.354061 0.354171 0.354269 0.354356 0.354434 0.354504 0.354567 0.354623 
0.354673 0.354718 0.354759 0.354797 0.35483 0.354861 0.354888 0.354914 0.354937 
0.354958 0.354978 0.354996 0.355012 0.355028 0.355042 0.355055 0.355068 0.355079 
0.35509 0.355101 0.355111 0.35512 0.355129 0.355137 0.355146 0.355153 0.355161 
0.355168 0.355175 0.355182 0.355189 0.355196 0.355202 0.355209 0.355215 0.355221 
0.355227 0.355233 0.355239 0.355245 0.355251 0.355257 0.355263 0.355269 0.355275 
0.35528 0.355286 0.355292 0.355298 0.355304 0.35531 0.355315 0.355321 0.355327 
0.355333 0.355339 0.355345 0.355351 0.355357 0.355363 0.355369 0.355375 0.355381 
0.355387 0.355394 0.3554 0.355406 0.355412 0.355419 0.355425 0.355431 0.355437 
0.355444 0.355449 0.35545 0.355033 0.352996 0.349651 0.344954 0.344851 0.344737 
0.344609 0.344468 0.344313 0.344144 0.343964 0.343775 0.343584 0.343395 0.343214 
0.343045 0.342892 0.342756 0.342639 0.342539 0.342456 0.342388 0.342334 0.342293 
0.342262 0.342241 0.342229 0.342224 0.342224 0.34223 0.34224 0.342253 0.342269 
0.342288 0.34231 0.342334 0.342362 0.342394 0.342429 0.342469 0.342514 0.342565 
0.34262 0.342682 0.342751 0.342825 0.342907 0.342995 0.343089 0.34319 0.343297 
0.34341 0.343529 0.343652 0.34378 0.343911 0.344045 0.344181 0.344318 0.344455 
0.344592 0.344728 0.344861 0.344991 0.345116 0.345237 0.345352 0.345461 0.345564 
0.345659 0.345746 0.345825 0.345897 0.34596 0.346015 0.346061 0.346099 0.346129 
0.34615 0.346163 0.346167 0.346162 0.346148 0.346125 0.346092 0.34605 0.345997 
0.345934 0.345859 0.345772 0.345673 0.345562 0.345438 0.345301 0.345153 0.344993 
0.344823 0.344646 0.344464 0.34428 0.344099 0.343924 0.34376 0.34361 0.343477 
0.343363 0.343272 0.343202 0.343156 0.343133 0.343132 0.343152 0.343192 0.34325 
0.343323 0.343408 0.343502 0.343601 0.343702 0.343802 0.343896 0.343983 0.34406 
0.344125 0.344175 0.344209 0.344227 0.344227 0.344211 0.344178 0.344131 0.34407 
0.343999 0.343919 0.343833 0.343745 0.34366 0.343579 0.343508 0.34345 0.343406 
0.343379 0.343369 0.343374 0.343394 0.343425 0.343464 0.343507 0.343551 0.343594 
0.343631 0.343662 0.343684 0.343696 0.3437 0.343694 0.343682 0.343663 0.343641 
0.343615 0.343589 0.343563 0.34354 0.343519 0.343502 0.343488 0.343479 0.343473 
0.343471 0.343472 0.343476 0.343482 0.343491 0.343502 0.343515 0.343529 0.343546 
0.343564 0.343585 0.343608 0.343635 0.343666 0.343702 0.343744 0.343793 0.34385 
0.343916 0.343992 0.344081 0.344183 0.344301 0.344437 0.344592 0.34477 0.344973 
0.345204 0.345466 0.345766 0.346096 0.346464 0.346923 0.351392 0.351859 0.352232 
0.352563 0.352856 0.353114 0.35334 0.353539 0.353713 0.353866 0.354001 0.35412 
0.354225 0.354318 0.354401 0.354475 0.354541 0.3546 0.354653 0.3547 0.354743 
0.354782 0.354817 0.354848 0.354877 0.354903 0.354927 0.354949 0.354969 0.354987 
0.355004 0.35502 0.355035 0.355048 0.355061 0.355073 0.355084 0.355095 0.355105 
0.355114 0.355123 0.355132 0.35514 0.355148 0.355155 0.355163 0.35517 0.355177 
0.355184 0.35519 0.355197 0.355203 0.355209 0.355216 0.355222 0.355228 0.355234 
0.35524 0.355246 0.355251 0.355257 0.355263 0.355269 0.355275 0.355281 0.355286 
0.355292 0.355298 0.355304 0.35531 0.355316 0.355321 0.355327 0.355333 0.355339 
0.355345 0.355351 0.355357 0.355363 0.355369 0.355375 0.355381 0.355387 0.355394 
0.3554 0.355406 0.355412 0.355419 0.355425 0.355431 0.355437 0.355444 0.355449 
0.35545 0.355033 0.352996 0.349651 0.344953 0.344848 0.344731 0.3446 0.344454 
0.344293 0.344116 0.343928 0.343732 0.343534 0.34334 0.343156 0.342986 0.342833 
0.3427 0.342584 0.342487 0.342406 0.34234 0.342289 0.34225 0.342222 0.342204 
0.342194 0.342192 0.342195 0.342203 0.342214 0.342229 0.342245 0.342264 0.342286 
0.342309 0.342336 0.342366 0.342399 0.342438 0.34248 0.342529 0.342583 0.342643 
0.34271 0.342783 0.342863 0.342951 0.343045 0.343146 0.343253 0.343367 0.343486 
0.343611 0.34374 0.343874 0.34401 0.344149 0.344289 0.34443 0.344571 0.34471 
0.344847 0.344981 0.345112 0.345237 0.345357 0.345471 0.345577 0.345677 0.345768 
0.345852 0.345927 0.345993 0.346051 0.3461 0.34614 0.346172 0.346195 0.346209 
0.346214 0.34621 0.346196 0.346173 0.34614 0.346097 0.346043 0.345978 0.3459 
0.34581 0.345707 0.34559 0.345459 0.345314 0.345155 0.344984 0.344802 0.34461 
0.344413 0.344214 0.344018 0.34383 0.343653 0.343492 0.343352 0.343234 0.34314 
0.343071 0.343028 0.34301 0.343016 0.343045 0.343095 0.343166 0.343253 0.343354 
0.343465 0.34358 0.343698 0.343813 0.343923 0.344024 0.344112 0.344187 0.344245 
0.344284 0.344304 0.344303 0.344283 0.344244 0.344188 0.344117 0.344032 0.343937 
0.343835 0.343731 0.343629 0.343534 0.343451 0.343383 0.343335 0.343307 0.3433 
0.343313 0.343342 0.343386 0.343438 0.343496 0.343553 0.343607 0.343654 0.343692 