# vtk DataFile Version 5.1
vtk output
ASCII
DATASET UNSTRUCTURED_GRID
POINTS 10043 double
-10.1 1.4499999993 -6.5110748437e-07 -10.049999999 1.4499999993 -4.742580586e-07 -10.049999999 1.5 1.7679119537e-06 
-9.9999999985 1.4499999993 -4.035521215e-07 -9.9999999985 1.5 1.5303246528e-06 -9.9499999978 1.4499999993 -3.6664664549e-07 
-9.9499999978 1.5 1.3956757812e-06 -9.899999997 1.4499999993 -3.4299978324e-07 -9.899999997 1.5 1.3077440144e-06 
-9.8499999963 1.4499999993 -3.2643606573e-07 -9.8499999963 1.5 1.2454199805e-06 -9.7999999955 1.4499999993 -3.1417971513e-07 
-9.7999999955 1.5 1.1994832221e-06 -9.7499999948 1.4499999993 -3.0487740332e-07 -9.7499999948 1.5 1.1643348898e-06 
-9.699999994 1.4499999993 -2.9767784326e-07 -9.699999994 1.5 1.1368626929e-06 -9.6499999933 1.4499999993 -2.9196075957e-07 
-9.6499999933 1.5 1.1152694697e-06 -9.5999999925 1.4499999993 -2.8744966585e-07 -9.5999999925 1.5 1.0980974139e-06 
-9.5499999918 1.4499999993 -2.8384442885e-07 -9.5499999918 1.5 1.084492169e-06 -9.4999999911 1.4499999993 -2.8108138395e-07 
-9.4999999911 1.5 1.0737182947e-06 -9.4499999903 1.4499999993 -2.7887858778e-07 -9.4499999903 1.5 1.065432798e-06 
-9.3999999896 1.4499999993 -2.7716146178e-07 -9.3999999896 1.5 1.0590517832e-06 -9.3499999888 1.4499999993 -2.7598093766e-07 
-9.3499999888 1.5 1.0543515145e-06 -9.2999999881 1.4499999993 -2.7515329748e-07 -9.2999999881 1.5 1.0511701021e-06 
-9.2499999873 1.4499999993 -2.7466580832e-07 -9.2499999873 1.5 1.0493238278e-06 -9.1999999866 1.4499999993 -2.7437295103e-07 
-9.1999999866 1.5 1.0485216535e-06 -9.1499999858 1.4499999993 -2.7442388273e-07 -9.1499999858 1.5 1.048774493e-06 
-9.0999999851 1.4499999993 -2.7480405151e-07 -9.0999999851 1.5 1.0498367828e-06 -9.0499999844 1.4499999993 -2.7528062674e-07 
-9.0499999844 1.5 1.0519904663e-06 -8.9999999836 1.4499999993 -2.7602095543e-07 -8.9999999836 1.5 1.0547626061e-06 
-8.9499999829 1.4499999993 -2.7695955396e-07 -8.9499999829 1.5 1.0582023151e-06 -8.8999999821 1.4499999993 -2.7799637792e-07 
-8.8999999821 1.5 1.062340516e-06 -8.8499999814 1.4499999993 -2.7923329071e-07 -8.8499999814 1.5 1.0671772088e-06 
-8.7999999806 1.4499999993 -2.8065028346e-07 -8.7999999806 1.5 1.0724395452e-06 -8.7499999799 1.4499999993 -2.8220915738e-07 
-8.7499999799 1.5 1.078471314e-06 -8.6999999791 1.4499999993 -2.8303134059e-07 -8.6999999791 1.5 1.0816945633e-06 
-8.6499999784 1.4499999993 -2.8484123504e-07 -8.6499999784 1.5 1.0884848507e-06 -8.5999999776 1.4499999993 -2.8673844099e-07 
-8.5999999776 1.5 1.0957735412e-06 -8.5499999769 1.4499999993 -2.8880026548e-07 -8.5499999769 1.5 1.1035178886e-06 
-8.4999999762 1.4499999993 -2.9096577236e-07 -8.4999999762 1.5 1.1117933809e-06 -8.4499999754 1.4499999993 -2.9324132811e-07 
-8.4499999754 1.5 1.1205809187e-06 -8.3999999747 1.4499999993 -2.9567786441e-07 -8.3999999747 1.5 1.1297249785e-06 
-8.3499999739 1.4499999993 -2.9820262171e-07 -8.3499999739 1.5 1.1394256489e-06 -8.2999999732 1.4499999993 -3.0080650504e-07 
-8.2999999732 1.5 1.1496074421e-06 -8.2499999724 1.4499999993 -3.0361775316e-07 -8.2499999724 1.5 1.1601848655e-06 
-8.1999999717 1.4499999993 -3.0648629945e-07 -8.1999999717 1.5 1.1712370451e-06 -8.1499999709 1.4499999993 -3.0947944651e-07 
-8.1499999709 1.5 1.1827439721e-06 -8.0999999702 1.4499999993 -3.1259810385e-07 -8.0999999702 1.5 1.1947211078e-06 
-8.0499999695 1.4499999993 -3.1591321203e-07 -8.0499999695 1.5 1.2071129731e-06 -7.9999999687 1.4499999993 -3.19266519e-07 
-7.9999999687 1.5 1.2200305264e-06 -7.949999968 1.4499999993 -3.2275534068e-07 -7.949999968 1.5 1.2334264738e-06 
-7.8999999672 1.4499999993 -3.2638240555e-07 -7.8999999672 1.5 1.2472471553e-06 -7.8499999665 1.4499999993 -3.3012861422e-07 
-7.8499999665 1.5 1.2616045524e-06 -7.7999999657 1.4499999993 -3.3401397559e-07 -7.7999999657 1.5 1.2764364783e-06 
-7.749999965 1.4499999993 -3.3799665289e-07 -7.749999965 1.5 1.2917814729e-06 -7.6999999642 1.4499999993 -3.4214758671e-07 
-7.6999999642 1.5 1.3075584775e-06 -7.6499999635 1.4499999993 -3.4645495361e-07 -7.6499999635 1.5 1.3239803138e-06 
-7.5999999627 1.4499999993 -3.5084690353e-07 -7.5999999627 1.5 1.3407868664e-06 -7.549999962 1.4499999993 -3.5546349864e-07 
-7.549999962 1.5 1.3582655356e-06 -7.4999999613 1.4499999993 -3.6018104765e-07 -7.4999999613 1.5 1.376303544e-06 
-7.4499999605 1.4499999993 -3.6505957723e-07 -7.4499999605 1.5 1.3948972537e-06 -7.3999999598 1.4499999993 -3.7002450881e-07 
-7.3999999598 1.5 1.4140202893e-06 -7.349999959 1.4499999993 -3.7520044316e-07 -7.349999959 1.5 1.4338718302e-06 
-7.2999999583 1.4499999993 -3.8055918594e-07 -7.2999999583 1.5 1.4542872577e-06 -7.2499999575 1.4499999993 -3.8607890929e-07 
-7.2499999575 1.5 1.475349336e-06 -7.1999999568 1.4499999993 -3.9182418732e-07 -7.1999999568 1.5 1.4971562905e-06 
-7.149999956 1.4499999993 -3.9767678572e-07 -7.149999956 1.5 1.5195507785e-06 -7.0999999553 1.4499999993 -4.0066356632e-07 
-7.0999999553 1.5 1.5310176877e-06 -7.0499999546 1.4499999993 -4.0681811697e-07 -7.0499999546 1.5 1.5546127088e-06 
-6.9999999538 1.4499999993 -4.1320640776e-07 -6.9999999538 1.5 1.578864385e-06 -6.9499999531 1.4499999993 -4.1973021325e-07 
-6.9499999531 1.5 1.6039928141e-06 -6.8999999523 1.4499999993 -4.2655142352e-07 -6.8999999523 1.5 1.6298988612e-06 
-6.8499999516 1.4499999993 -4.3358090807e-07 -6.8499999516 1.5 1.6566116301e-06 -6.7999999508 1.4499999993 -4.4074954531e-07 
-6.7999999508 1.5 1.6843084722e-06 -6.7499999501 1.4499999993 -4.4825105761e-07 -6.7499999501 1.5 1.7128643321e-06 
-6.6999999493 1.4499999993 -4.5597448661e-07 -6.6999999493 1.5 1.7424297312e-06 -6.6499999486 1.4499999993 -4.6396485232e-07 
-6.6499999486 1.5 1.7729564661e-06 -6.5999999478 1.4499999993 -4.7226171773e-07 -6.5999999478 1.5 1.8045377601e-06 
-6.5499999471 1.4499999993 -4.8081324167e-07 -6.5499999471 1.5 1.837251375e-06 -6.4999999464 1.4499999993 -4.8966717259e-07 
-6.4999999464 1.5 1.8710959466e-06 -6.4499999456 1.4499999993 -4.9884579312e-07 -6.4499999456 1.5 1.906130592e-06 
-6.3999999449 1.4499999993 -5.0834864851e-07 -6.3999999449 1.5 1.9424294351e-06 -6.3499999441 1.4499999993 -5.1820029512e-07 
-6.3499999441 1.5 1.9800402242e-06 -6.2999999434 1.4499999993 -5.2840118769e-07 -6.2999999434 1.5 2.0190702799e-06 
-6.2499999426 1.4499999993 -5.3899043451e-07 -6.2499999426 1.5 2.0595432488e-06 -6.1999999419 1.4499999993 -5.5000532484e-07 
-6.1999999419 1.5 2.1015418952e-06 -6.1499999411 1.4499999993 -5.6141448113e-07 -6.1499999411 1.5 2.1452076453e-06 
-6.0999999404 1.4499999993 -5.7329748415e-07 -6.0999999404 1.5 2.1905323138e-06 -6.0499999397 1.4499999993 -5.8564523897e-07 
-6.0499999397 1.5 2.2376837023e-06 -5.9999999389 1.4499999993 -5.9848593992e-07 -5.9999999389 1.5 2.2867909593e-06 
-5.9499999382 1.4499999993 -6.1184687183e-07 -5.9499999382 1.5 2.3378609058e-06 -5.8999999374 1.4499999993 -6.2579488258e-07 
-5.8999999374 1.5 2.3911131848e-06 -5.8499999367 1.4499999993 -6.4033088165e-07 -5.8499999367 1.5 2.4466351078e-06 
-5.7999999359 1.4499999993 -6.5552035267e-07 -5.7999999359 1.5 2.5046058454e-06 -5.7499999352 1.4499999993 -6.7138785198e-07 
-5.7499999352 1.5 2.5651422675e-06 -5.6999999344 1.4499999993 -6.8796202868e-07 -5.6999999344 1.5 2.6284953947e-06 
-5.6499999337 1.4499999993 -7.052865385e-07 -5.6499999337 1.5 2.6947529932e-06 -5.5999999329 1.4499999993 -7.2349553193e-07 
-5.5999999329 1.5 2.7641897304e-06 -5.5499999322 1.4499999993 -7.3291926128e-07 -5.5499999322 1.5 2.8001702503e-06 
-5.4999999315 1.4499999993 -7.5245293374e-07 -5.4999999315 1.5 2.8747879242e-06 -5.4499999307 1.4499999993 -7.7296976997e-07 
-5.4499999307 1.5 2.9531895507e-06 -5.39999993 1.4499999993 -7.9458595792e-07 -5.39999993 1.5 3.0356638945e-06 
-5.3499999292 1.4499999993 -8.173299193e-07 -5.3499999292 1.5 3.1225681596e-06 -5.2999999285 1.4499999993 -8.413278465e-07 
-5.2999999285 1.5 3.2142240798e-06 -5.2499999277 1.4499999993 -8.6668546828e-07 -5.2499999277 1.5 3.3110475215e-06 
-5.199999927 1.4499999993 -8.9354170996e-07 -5.199999927 1.5 3.4135091482e-06 -5.1499999262 1.4499999993 -9.2199002211e-07 
-5.1499999262 1.5 3.5221303278e-06 -5.0999999255 1.4499999993 -9.5219229479e-07 -5.0999999255 1.5 3.6374453884e-06 
-5.0499999247 1.4499999993 -9.8431746665e-07 -5.0499999247 1.5 3.7601485019e-06 -4.999999924 1.4499999993 -1.0185947303e-06 
-4.999999924 1.5 3.8909161049e-06 -4.9499999233 1.4499999993 -1.0551846117e-06 -4.9499999233 1.5 4.0306472329e-06 
-4.8999999225 1.4499999993 -1.0943685993e-06 -4.8999999225 1.5 4.1802341002e-06 -4.8499999218 1.4499999993 -1.1364654711e-06 
-4.8499999218 1.5 4.3407562771e-06 -4.799999921 1.4499999993 -1.1817196537e-06 -4.799999921 1.5 4.5135006985e-06 
-4.7499999203 1.4499999993 -1.2305599739e-06 -4.7499999203 1.5 4.6998593461e-06 -4.6999999195 1.4499999993 -1.283410711e-06 
-4.6999999195 1.5 4.9014583965e-06 -4.6499999188 1.4499999993 -1.3407670849e-06 -4.6499999188 1.5 5.1202009672e-06 
-4.599999918 1.4499999993 -1.4031663795e-06 -4.599999918 1.5 5.3582434703e-06 -4.5499999173 1.4499999993 -1.4712975371e-06 
-4.5499999173 1.5 5.6180747379e-06 -4.4999999166 1.4499999993 -1.5458783764e-06 -4.4999999166 1.5 5.9025178416e-06 
-4.4499999158 1.4499999993 -1.627789743e-06 -4.4499999158 1.5 6.2148028519e-06 -4.3999999151 1.4499999993 -1.7179445422e-06 
-4.3999999151 1.5 6.5585095399e-06 -4.3499999143 1.4499999993 -1.8173378749e-06 -4.3499999143 1.5 6.9374714258e-06 
-4.2999999136 1.4499999993 -1.9269762106e-06 -4.2999999136 1.5 7.3554924711e-06 -4.2499999128 1.4499999993 -2.0476709324e-06 
-4.2499999128 1.5 7.8158309407e-06 -4.1999999121 1.4499999993 -2.1797031877e-06 -4.1999999121 1.5 8.3197892309e-06 
-4.1499999113 1.4499999993 -2.3220243293e-06 -4.1499999113 1.5 8.8640254035e-06 -4.0999999106 1.4499999993 -2.4705921078e-06 
-4.0999999106 1.5 9.4343968158e-06 -4.0499999098 1.4499999993 -2.6144921321e-06 -4.0499999098 1.5 9.9926628536e-06 
-3.9999999091 1.4499999993 -2.7268406484e-06 -3.9999999091 1.5 1.0444807231e-05 -3.9499999084 1.4499999993 -2.7532391869e-06 
[...]
CELL_DATA 9510
FIELD FieldData 4
Water_Depth_m 1 9510 float
0.640005 0.640014 0.640023 0.640033 0.640043 0.640053 0.640064 0.640077 0.640089 
0.640103 0.640117 0.640132 0.640147 0.640163 0.640179 0.640195 0.640211 0.640227 
0.640242 0.640257 0.640271 0.640284 0.640295 0.640305 0.640314 0.640321 0.640326 
0.64033 0.640331 0.64033 0.640327 0.640322 0.640314 0.640303 0.64029 0.640274 
0.640255 0.640234 0.640209 0.640181 0.640151 0.640117 0.64008 0.640041 0.639998 
0.639954 0.639907 0.639859 0.639809 0.639759 0.639709 0.63966 0.639613 0.639569 
0.639529 0.639493 0.639464 0.639441 0.639426 0.63942 0.639422 0.639434 0.639455 
0.639485 0.639524 0.639571 0.639625 0.639686 0.639752 0.639822 0.639896 0.639971 
0.640046 0.640121 0.640194 0.640265 0.640333 0.640396 0.640456 0.640511 0.640561 
0.640605 0.640645 0.64068 0.640709 0.640734 0.640755 0.640771 0.640783 0.640792 
0.640797 0.640799 0.640799 0.640796 0.640792 0.640786 0.640779 0.640771 0.640763 
0.640754 0.640746 0.640739 0.640733 0.640728 0.640726 0.640726 0.640729 0.640736 
0.640746 0.64076 0.64078 0.640804 0.640833 0.640869 0.64091 0.640957 0.641009 
0.641068 0.641133 0.641203 0.641277 0.641356 0.641438 0.641522 0.641606 0.641687 
0.641779 0.641942 0.642371 0.641776 0.624046 0.586356 0.540496 0.494571 0.456065 
0.424141 0.394832 0.364443 0.329181 0.292115 0.258454 0.232231 0.217222 0.213783 
0.218898 0.225856 0.232779 0.239003 0.24665 0.251799 0.255446 0.260726 0.26656 
0.274049 0.283054 0.293123 0.305312 0.315337 0.325463 0.337515 0.343154 0.342798 
0.336949 0.324887 0.321588 0.330002 0.33669 0.341613 0.347341 0.353738 0.360807 
0.367536 0.373765 0.380392 0.387238 0.394832 0.402312 0.40968 0.41655 0.424157 
0.433366 0.442822 0.449773 0.456099 0.462318 0.468822 0.475753 0.483165 0.488586 
0.493602 0.49764 0.503857 0.51318 0.516113 0.51741 0.519715 0.519969 0.517239 
0.479712 0.464301 0.451678 0.439063 0.427194 0.40802 0.384889 0.367961 0.364646 
0.365478 0.365434 0.363984 0.363864 0.363862 0.360414 0.356698 0.356726 0.356759 
0.356792 0.356826 0.356859 0.356891 0.356921 0.356949 0.356976 0.357002 0.357025 
0.357047 0.357068 0.357087 0.357105 0.357122 0.357138 0.357152 0.357166 0.357178 
0.35719 0.357201 0.357211 0.357221 0.35723 0.357239 0.357247 0.357255 0.357262 
0.357269 0.357275 0.357281 0.357287 0.357293 0.357299 0.357304 0.357309 0.357314 
0.357319 0.357323 0.357328 0.357332 0.357336 0.35734 0.357344 0.357348 0.357352 
0.357355 0.357359 0.357363 0.357366 0.35737 0.357373 0.357376 0.357379 0.357383 
0.357386 0.357389 0.357392 0.357395 0.357398 0.357401 0.357404 0.357406 0.357409 
0.357412 0.357415 0.357418 0.35742 0.357423 0.357425 0.357428 0.357431 0.357433 
0.357436 0.357438 0.357429 0.357401 0.355993 0.353543 0.350387 0.640005 0.640014 
0.640023 0.640032 0.640042 0.640052 0.640064 0.640075 0.640088 0.640102 0.640116 
0.640131 0.640146 0.640162 0.640179 0.640195 0.640211 0.640227 0.640243 0.640257 
0.640271 0.640284 0.640296 0.640307 0.640316 0.640323 0.640328 0.640332 0.640333 
0.640333 0.64033 0.640324 0.640316 0.640306 0.640293 0.640276 0.640258 0.640236 
0.640211 0.640183 0.640152 0.640117 0.64008 0.64004 0.639997 0.639952 0.639905 
0.639856 0.639806 0.639755 0.639704 0.639655 0.639607 0.639562 0.639521 0.639485 
0.639455 0.639432 0.639417 0.639411 0.639413 0.639425 0.639446 0.639477 0.639516 
0.639564 0.639619 0.63968 0.639747 0.639818 0.639892 0.639968 0.640044 0.640119 
0.640193 0.640265 0.640333 0.640397 0.640457 0.640513 0.640563 0.640608 0.640648 
0.640683 0.640712 0.640737 0.640758 0.640774 0.640786 0.640795 0.6408 0.640802 
0.640801 0.640799 0.640794 0.640788 0.64078 0.640772 0.640763 0.640754 0.640746 
0.640738 0.640732 0.640727 0.640724 0.640724 0.640726 0.640732 0.640742 0.640757 
0.640776 0.640799 0.640829 0.640864 0.640904 0.640951 0.641004 0.641063 0.641128 
0.641198 0.641273 0.641353 0.641436 0.641522 0.641608 0.641692 0.64177 0.64183 
0.641991 0.641552 0.623898 0.5848 0.535157 0.485532 0.445795 0.414173 0.385816 
0.35617 0.322082 0.285829 0.252875 0.228953 0.21501 0.22104 0.23179 0.238573 
0.242326 0.246477 0.250479 0.256366 0.263321 0.269408 0.274824 0.28069 0.286854 
0.292169 0.302627 0.313868 0.327056 0.349365 0.386973 0.412752 0.392179 0.342616 
0.333833 0.343938 0.350436 0.354598 0.356772 0.360166 0.365164 0.371528 0.380152 
0.38834 0.39598 0.404113 0.410339 0.417699 0.421914 0.427747 0.434752 0.442705 
0.45214 0.460396 0.463127 0.467442 0.469395 0.474108 0.481662 0.489697 0.493386 
0.496813 0.503849 0.510215 0.510824 0.509914 0.512908 0.514538 0.474647 0.464129 
0.458375 0.449862 0.441528 0.428621 0.408706 0.385846 0.367907 0.367049 0.366976 
0.364934 0.363905 0.363897 0.360334 0.356696 0.356729 0.35676 0.356794 0.356829 
0.356862 0.356893 0.356924 0.356952 0.356979 0.357005 0.357028 0.35705 0.357071 
0.35709 0.357108 0.357124 0.35714 0.357154 0.357167 0.35718 0.357192 0.357203 
0.357213 0.357222 0.357231 0.35724 0.357248 0.357256 0.357263 0.35727 0.357276 
0.357282 0.357288 0.357294 0.357299 0.357305 0.35731 0.357315 0.357319 0.357324 
0.357328 0.357333 0.357337 0.357341 0.357345 0.357349 0.357352 0.357356 0.35736 
0.357363 0.357367 0.35737 0.357373 0.357377 0.35738 0.357383 0.357386 0.357389 
0.357392 0.357395 0.357398 0.357401 0.357404 0.357407 0.35741 0.357412 0.357415 
0.357418 0.357421 0.357423 0.357426 0.357428 0.357431 0.357433 0.357436 0.357438 
0.35743 0.357402 0.355993 0.353544 0.350388 0.640004 0.640013 0.640021 0.64003 
0.64004 0.64005 0.640061 0.640073 0.640085 0.640099 0.640113 0.640128 0.640144 
0.64016 0.640177 0.640193 0.64021 0.640226 0.640242 0.640258 0.640272 0.640286 
0.640298 0.640309 0.640318 0.640326 0.640332 0.640336 0.640338 0.640337 0.640334 
0.640329 0.640321 0.64031 0.640297 0.64028 0.640261 0.640239 0.640213 0.640184 
0.640153 0.640118 0.640079 0.640038 0.639994 0.639948 0.639899 0.639849 0.639797 
0.639745 0.639693 0.639641 0.639592 0.639546 0.639504 0.639467 0.639436 0.639413 
0.639397 0.639391 0.639393 0.639405 0.639427 0.639458 0.639498 0.639547 0.639603 
0.639666 0.639734 0.639807 0.639883 0.63996 0.640038 0.640115 0.640191 0.640264 
0.640333 0.640398 0.640459 0.640515 0.640566 0.640612 0.640652 0.640688 0.640718 
0.640743 0.640763 0.640779 0.640791 0.6408 0.640804 0.640806 0.640805 0.640802 
0.640796 0.640789 0.640781 0.640772 0.640763 0.640753 0.640744 0.640735 0.640727 
0.640722 0.640718 0.640717 0.640718 0.640723 0.640732 0.640746 0.640764 0.640787 
0.640816 0.64085 0.64089 0.640936 0.640989 0.641047 0.641112 0.641183 0.641259 
0.64134 0.641425 0.641514 0.641605 0.641696 0.641786 0.641862 0.642121 0.641572 
0.623168 0.582253 0.529957 0.478497 0.436456 0.404298 0.376655 0.348436 0.315961 
0.280897 0.249256 0.225444 0.220435 0.228846 0.239266 0.246287 0.250431 0.254678 
0.259448 0.265678 0.273101 0.280411 0.28718 0.291887 0.294628 0.297164 0.300828 
0.309816 0.326374 0.347966 0.37927 0.397286 0.382008 0.343573 0.348088 0.35608 
0.362848 0.366969 0.367119 0.370473 0.377122 0.385552 0.394978 0.40387 0.411029 
0.417936 0.423373 0.428894 0.436303 0.443414 0.450801 0.459434 0.467034 0.473363 
0.474622 0.476156 0.484009 0.49304 0.49957 0.505522 0.513499 0.52184 0.52552 
0.527345 0.527513 0.530992 0.534584 0.534953 0.500356 0.486361 0.47559 0.465961 
0.45571 0.445051 0.429969 0.412578 0.386279 0.368126 0.367272 0.366127 0.364424 
0.364401 0.36029 0.356688 0.356719 0.356756 0.356792 0.356827 0.356861 0.356893 
0.356924 0.356952 0.356979 0.357005 0.357028 0.35705 0.357071 0.35709 0.357108 
0.357124 0.35714 0.357154 0.357167 0.35718 0.357191 0.357202 0.357212 0.357222 
0.357231 0.357239 0.357247 0.357255 0.357262 0.357269 0.357275 0.357282 0.357288 
0.357293 0.357299 0.357304 0.357309 0.357314 0.357318 0.357323 0.357327 0.357332 
0.357336 0.35734 0.357344 0.357348 0.357352 0.357355 0.357359 0.357362 0.357366 
0.357369 0.357373 0.357376 0.357379 0.357382 0.357385 0.357389 0.357392 0.357395 
0.357398 0.357401 0.357403 0.357406 0.357409 0.357412 0.357415 0.357417 0.35742 
0.357423 0.357425 0.357428 0.35743 0.357433 0.357435 0.357437 0.357429 0.357401 
0.355992 0.353543 0.350387 0.640004 0.640012 0.640019 0.640028 0.640037 0.640046 
0.640057 0.640069 0.640081 0.640095 0.640109 0.640124 0.640141 0.640157 0.640174 
0.640192 0.640209 0.640226 0.640243 0.640259 0.640274 0.640289 0.640302 0.640313 
0.640324 0.640332 0.640338 0.640343 0.640345 0.640345 0.640342 0.640337 0.640329 
0.640318 0.640304 0.640287 0.640267 0.640244 0.640218 0.640188 0.640155 0.640119 
0.640079 0.640036 0.63999 0.639942 0.639891 0.639838 0.639784 0.63973 0.639675 
0.639621 0.63957 0.639521 0.639477 0.639439 0.639407 0.639382 0.639366 0.639359 
0.639362 0.639374 0.639397 0.639429 0.63947 0.63952 0.639579 0.639644 0.639715 
0.639791 0.639869 0.639949 0.64003 0.64011 0.640187 0.640262 0.640334 0.640401 
0.640463 0.640521 0.640573 0.64062 0.640661 0.640697 0.640727 0.640753 0.640773 
0.640789 0.640801 0.640809 0.640813 0.640815 0.640813 0.640809 0.640802 0.640794 
0.640785 0.640774 0.640763 0.640752 0.640742 0.640732 0.640723 0.640715 0.64071 
0.640707 0.640708 0.640711 0.640719 0.640731 0.640748 0.64077 0.640797 0.64083 
0.64087 0.640915 0.640967 0.641026 0.641091 0.641162 0.641239 0.641323 0.641411 
0.641505 0.641602 0.641702 0.641801 0.641875 0.642141 0.641592 0.622483 0.580001 
0.525335 0.470137 0.427603 0.39498 0.367599 0.341465 0.31133 0.280836 0.258886 
0.24345 0.235096 0.237229 0.242603 0.249978 0.257458 0.263659 0.2698 0.276578 
0.284061 0.291649 0.298219 0.302381 0.304369 0.306196 0.309945 0.316457 0.324414 
0.334924 0.336673 0.338022 0.346101 0.354697 0.361252 0.366298 0.368011 0.369753 
0.375446 0.38216 0.390966 0.400533 0.409078 0.416894 0.422903 0.429063 0.436814 
0.444739 0.452299 0.460431 0.466993 0.473018 0.480308 0.486185 0.488678 0.49318 
0.505531 0.517832 0.524332 0.528463 0.537464 0.545357 0.546476 0.549493 0.552125 
0.555638 0.556197 0.555161 0.531499 0.522566 0.510327 0.492422 0.475922 0.461115 
0.445642 0.430142 0.407571 0.379623 0.367712 0.366825 0.364943 0.364749 0.360217 
0.356681 0.356716 0.356755 0.356793 0.356829 0.356864 0.356897 0.356928 0.356957 
0.356984 0.357009 0.357033 0.357055 0.357075 0.357094 0.357111 0.357127 0.357143 
0.357157 0.35717 0.357182 0.357193 0.357204 0.357214 0.357224 0.357232 0.357241 
0.357249 0.357256 0.357263 0.35727 0.357276 0.357282 0.357288 0.357294 0.357299 
0.357304 0.357309 0.357314 0.357319 0.357323 0.357328 0.357332 0.357336 0.35734 
0.357344 0.357348 0.357352 0.357355 0.357359 0.357362 0.357366 0.357369 0.357373 
0.357376 0.357379 0.357382 0.357386 0.357389 0.357392 0.357395 0.357398 0.357401 
0.357403 0.357406 0.357409 0.357412 0.357415 0.357417 0.35742 0.357423 0.357425 
0.357428 0.35743 0.357433 0.357435 0.357437 0.357429 0.357401 0.355992 0.353543 
0.350387 0.640003 0.64001 0.640017 0.640024 0.640032 0.640041 0.640052 0.640063 
0.640075 0.640089 0.640104 0.640119 0.640136 0.640153 0.640171 0.640189 0.640207 
0.640225 0.640243 0.640261 0.640277 0.640293 0.640307 0.64032 0.640331 0.64034 
0.640347 0.640352 0.640355 0.640355 0.640353 0.640348 0.64034 0.640329 0.640315 
0.640297 0.640277 0.640253 0.640225 0.640194 0.640159 0.640121 0.640079 0.640033 
0.639985 0.639934 0.63988 0.639824 0.639766 0.639708 0.63965 0.639593 0.639538 
0.639487 0.63944 0.639399 0.639365 0.639339 0.639322 0.639314 0.639317 0.63933 
0.639354 0.639388 0.639431 0.639484 0.639545 0.639614 0.639689 0.639768 0.639851 
0.639935 0.640019 0.640102 0.640183 0.640261 0.640335 0.640405 0.640469 0.640529 
0.640582 0.640631 0.640673 0.64071 0.640741 0.640767 0.640787 0.640804 0.640815 
0.640823 0.640827 0.640827 0.640824 0.640819 0.640811 0.640801 0.64079 0.640778 
0.640765 0.640752 0.640739 0.640727 0.640716 0.640707 0.640699 0.640695 0.640693 
0.640695 0.6407 0.64071 0.640725 0.640746 0.640771 0.640803 0.640841 0.640886 
0.640937 0.640995 0.64106 0.641132 0.641211 0.641296 0.641389 0.641488 0.641593 
0.641704 0.641817 0.641905 0.642182 0.641611 0.622004 0.578485 0.522874 0.467943 
0.421861 0.386634 0.358005 0.332082 0.30631 0.28395 0.268995 0.258948 0.25175 
0.248177 0.252307 0.25872 0.266199 0.273354 0.279956 0.286951 0.294406 0.301748 
0.308267 0.312226 0.31393 0.315723 0.318789 0.323744 0.330038 0.336445 0.343454 
0.350539 0.357469 0.36449 0.37085 0.374975 0.376249 0.37969 0.3859 0.394027 
0.403249 0.4123 0.420329 0.427512 0.434269 0.441368 0.450049 0.458896 0.466413 
0.474488 0.484059 0.491803 0.494986 0.497717 0.50714 0.518599 0.529965 0.542985 
0.551525 0.559545 0.564055 0.566217 0.569477 0.577454 0.578327 0.579417 0.580686 
0.581978 0.553933 0.548798 0.538893 0.521979 0.500628 0.481186 0.463036 0.445236 
0.424979 0.400249 0.376427 0.366558 0.365261 0.364842 0.360143 0.356674 0.356713 
0.356755 0.356795 0.356833 0.356869 0.356903 0.356934 0.356963 0.35699 0.357015 
0.357038 0.35706 0.35708 0.357098 0.357116 0.357131 0.357146 0.35716 0.357173 
0.357185 0.357196 0.357206 0.357216 0.357225 0.357234 0.357242 0.35725 0.357257 
0.357264 0.357271 0.357277 0.357283 0.357289 0.357294 0.3573 0.357305 0.35731 
0.357315 0.357319 0.357324 0.357328 0.357332 0.357336 0.35734 0.357344 0.357348 
0.357352 0.357355 0.357359 0.357363 0.357366 0.357369 0.357373 0.357376 0.357379 
0.357382 0.357386 0.357389 0.357392 0.357395 0.357398 0.357401 0.357403 0.357406 
0.357409 0.357412 0.357415 0.357417 0.35742 0.357423 0.357425 0.357428 0.35743 
0.357433 0.357435 0.357437 0.357429 0.357401 0.355992 0.353543 0.350387 0.640002 
0.640008 0.640013 0.640019 0.640027 0.640035 0.640044 0.640055 0.640068 0.640081 
0.640096 0.640112 0.64013 0.640148 0.640166 0.640186 0.640205 0.640225 0.640244 
0.640263 0.640281 0.640298 0.640314 0.640328 0.640341 0.640351 0.64036 0.640366 
0.640369 0.64037 0.640368 0.640363 0.640355 0.640344 0.640329 0.640311 0.64029 
0.640264 0.640235 0.640202 0.640165 0.640124 0.640079 0.64003 0.639978 0.639923 
0.639865 0.639805 0.639743 0.639681 0.639618 0.639556 0.639497 0.639442 0.639391 
0.639347 0.63931 0.639282 0.639264 0.639256 0.639259 0.639274 0.639299 0.639335 
0.639381 0.639437 0.639503 0.639576 0.639656 0.63974 0.639828 0.639916 0.640005 
0.640093 0.640178 0.64026 0.640338 0.64041 0.640478 0.640539 0.640595 0.640645 
0.640688 0.640726 0.640758 0.640785 0.640806 0.640822 0.640833 0.64084 0.640843 
0.640843 0.640839 0.640832 0.640823 0.640811 0.640798 0.640783 0.640768 0.640752 
0.640737 0.640722 0.640708 0.640696 0.640686 0.640678 0.640674 0.640673 0.640676 
0.640684 0.640696 0.640714 0.640738 0.640768 0.640805 0.640848 0.640898 0.640955 
0.64102 0.641092 0.641172 0.64126 0.641357 0.641462 0.641575 0.641697 0.641825 
0.641923 0.642211 0.641624 0.621544 0.577027 0.52015 0.462474 0.415712 0.379073 
0.349818 0.324491 0.303114 0.285831 0.274515 0.268274 0.262568 0.259294 0.262861 
0.269036 0.276361 0.28355 0.290626 0.297057 0.303029 0.309125 0.315343 0.319238 
0.321151 0.323948 0.327766 0.332312 0.337459 0.343556 0.351012 0.358844 0.366113 
0.371768 0.374409 0.37767 0.384068 0.390481 0.397555 0.405469 0.414702 0.423415 
0.430665 0.437868 0.446434 0.455029 0.463177 0.471453 0.480654 0.489481 0.499939 
0.509124 0.512307 0.517887 0.529332 0.542216 0.551925 0.559556 0.574737 0.586937 
0.590695 0.592235 0.598154 0.602714 0.604414 0.608789 0.612414 0.612681 0.567769 
0.564995 0.557643 0.546619 0.528038 0.506957 0.485756 0.463207 0.439881 0.419554 
0.391814 0.369108 0.365672 0.365313 0.360095 0.356667 0.356711 0.356757 0.356799 
0.356839 0.356876 0.35691 0.356942 0.356971 0.356998 0.357023 0.357046 0.357067 
0.357086 0.357104 0.357121 0.357137 0.357151 0.357164 0.357177 0.357189 0.357199 
0.35721 0.357219 0.357228 0.357236 0.357244 0.357252 0.357259 0.357266 0.357272 
0.357278 0.357284 0.35729 0.357295 0.357301 0.357306 0.357311 0.357315 0.35732 
0.357324 0.357328 0.357333 0.357337 0.357341 0.357345 0.357348 0.357352 0.357356 
0.357359 0.357363 0.357366 0.35737 0.357373 0.357376 0.357379 0.357383 0.357386 
0.357389 0.357392 0.357395 0.357398 0.357401 0.357403 0.357406 0.357409 0.357412 
0.357415 0.357417 0.35742 0.357423 0.357425 0.357428 0.35743 0.357433 0.357435 
0.357437 0.357429 0.357401 0.355992 0.353543 0.350387 0.640001 0.640005 0.640008 
0.640013 0.640019 0.640027 0.640035 0.640046 0.640058 0.640072 0.640087 0.640104 
0.640122 0.640141 0.640161 0.640181 0.640203 0.640224 0.640245 0.640266 0.640286 
0.640305 0.640323 0.640339 0.640353 0.640365 0.640375 0.640383 0.640387 0.640389 
0.640388 0.640383 0.640375 0.640364 0.640348 0.64033 0.640307 0.64028 0.640248 
0.640213 0.640173 0.640129 0.64008 0.640028 0.639971 0.639911 0.639848 0.639783 
0.639715 0.639647 0.639578 0.639511 0.639447 0.639386 0.639331 0.639283 0.639243 
0.639213 0.639193 0.639185 0.639189 0.639204 0.639232 0.639271 0.63932 0.639382 
0.639453 0.639532 0.639618 0.639708 0.639802 0.639897 0.639991 0.640084 0.640174 
0.64026 0.640342 0.640418 0.640488 0.640553 0.640611 0.640662 0.640708 0.640747 
0.64078 0.640807 0.640828 0.640844 0.640856 0.640862 0.640864 0.640862 0.640857 
0.640848 0.640837 0.640823 0.640807 0.64079 0.640772 0.640753 0.640734 0.640716 
0.640699 0.640683 0.640669 0.640658 0.64065 0.640646 0.640646 0.640651 0.640661 
0.640676 0.640698 0.640725 0.64076 0.640801 0.640849 0.640905 0.640969 0.641041 
0.641122 0.641212 0.641312 0.641423 0.641544 0.641677 0.641819 0.641929 0.642235 
0.641626 0.620862 0.574889 0.516602 0.45943 0.409477 0.371683 0.34365 0.322121 
0.302431 0.286075 0.275235 0.269362 0.264909 0.268407 0.274743 0.280473 0.285875 
0.292254 0.299004 0.304554 0.308923 0.313049 0.316626 0.320534 0.324981 0.329579 
0.334965 0.339607 0.343475 0.348725 0.355266 0.362935 0.370813 0.376403 0.379942 
0.384774 0.39216 0.400525 0.40821 0.416756 0.424527 0.432879 0.441696 0.450024 
0.458934 0.467966 0.477404 0.487481 0.497892 0.506465 0.513 0.518774 0.527144 
0.538118 0.551246 0.565091 0.575751 0.58656 0.597128 0.607002 0.613079 0.618625 
0.626126 0.630299 0.632963 0.639453 0.641549 0.641733 0.576004 0.574389 0.572672 
0.567711 0.55587 0.538257 0.512974 0.485764 0.457143 0.433161 0.408104 0.378867 
0.36577 0.36533 0.360057 0.356663 0.356711 0.356761 0.356806 0.356848 0.356885 
0.35692 0.356952 0.356981 0.357008 0.357032 0.357055 0.357075 0.357094 0.357112 
0.357128 0.357143 0.357157 0.35717 0.357182 0.357193 0.357203 0.357213 0.357222 
0.357231 0.357239 0.357247 0.357254 0.357261 0.357268 0.357274 0.35728 0.357286 
0.357291 0.357297 0.357302 0.357307 0.357311 0.357316 0.35732 0.357325 0.357329 
0.357333 0.357337 0.357341 0.357345 0.357349 0.357352 0.357356 0.35736 0.357363 
0.357366 0.35737 0.357373 0.357376 0.357379 0.357383 0.357386 0.357389 0.357392 
0.357395 0.357398 0.357401 0.357404 0.357406 0.357409 0.357412 0.357415 0.357417 
0.35742 0.357423 0.357425 0.357428 0.35743 0.357433 0.357435 0.357437 0.357429 
0.357401 0.355992 0.353543 0.350387 0.64 0.640001 0.640003 0.640006 0.64001 
0.640016 0.640025 0.640034 0.640046 0.64006 0.640076 0.640093 0.640112 0.640133 
0.640154 0.640176 0.640199 0.640223 0.640246 0.640269 0.640291 0.640313 0.640333 
0.640351 0.640368 0.640382 0.640394 0.640403 0.640409 0.640412 0.640411 0.640407 
0.6404 0.640388 0.640372 0.640352 0.640328 0.640299 0.640265 0.640227 0.640184 
0.640135 0.640083 0.640025 0.639964 0.639898 0.639829 0.639757 0.639682 0.639607 
0.639532 0.639458 0.639387 0.63932 0.63926 0.639207 0.639163 0.639131 0.63911 
0.639101 0.639106 0.639125 0.639156 0.639199 0.639254 0.639321 0.639399 0.639486 
0.639579 0.639676 0.639777 0.639878 0.639978 0.640077 0.640172 0.640263 0.640349 
0.640429 0.640503 0.64057 0.64063 0.640684 0.640731 0.640771 0.640805 0.640833 
0.640855 0.640871 0.640882 0.640887 0.640889 0.640885 0.640878 0.640867 0.640853 
0.640837 0.640818 0.640797 0.640776 0.640754 0.640731 0.640709 0.640687 0.640668 
0.64065 0.640635 0.640623 0.640615 0.640611 0.640612 0.640619 0.640631 0.640649 
0.640674 0.640706 0.640745 0.640791 0.640846 0.640908 0.640979 0.64106 0.641151 
0.641253 0.641368 0.641496 0.641639 0.641793 0.641914 0.642237 0.641612 0.619993 
0.572046 0.510409 0.448019 0.399603 0.363606 0.336453 0.315624 0.298327 0.284431 