# vtk DataFile Version 5.1
vtk output
ASCII
DATASET UNSTRUCTURED_GRID
POINTS 10043 double
-10.1 1.4499999993 -3.1683089219e-07 -10.049999999 1.4499999993 -1.9979982824e-07 -10.049999999 1.5 7.3252681432e-07 
-9.9999999985 1.4499999993 -1.5377302987e-07 -9.9999999985 1.5 5.7977899814e-07 -9.9499999978 1.4499999993 -1.3029988111e-07 
-9.9499999978 1.5 4.9448112804e-07 -9.899999997 1.4499999993 -1.1525775534e-07 -9.899999997 1.5 4.387336503e-07 
-9.8499999963 1.4499999993 -1.0465395661e-07 -9.8499999963 1.5 3.9890323933e-07 -9.7999999955 1.4499999993 -9.6690421003e-08 
-9.7999999955 1.5 3.688335255e-07 -9.7499999948 1.4499999993 -9.0487667137e-08 -9.7499999948 1.5 3.4527306525e-07 
-9.699999994 1.4499999993 -8.5529102023e-08 -9.699999994 1.5 3.2626644497e-07 -9.6499999933 1.4499999993 -8.1365435278e-08 
-9.6499999933 1.5 3.1054219107e-07 -9.5999999925 1.4499999993 -7.7907536422e-08 -9.5999999925 1.5 2.9739271667e-07 
-9.5499999918 1.4499999993 -7.4979872977e-08 -9.5499999918 1.5 2.8623685466e-07 -9.4999999911 1.4499999993 -7.2482400526e-08 
-9.4999999911 1.5 2.7661985769e-07 -9.4499999903 1.4499999993 -7.0181378931e-08 -9.4499999903 1.5 2.6828888622e-07 
-9.3999999896 1.4499999993 -6.8335104686e-08 -9.3999999896 1.5 2.6095381145e-07 -9.3499999888 1.4499999993 -6.6678914834e-08 
-9.3499999888 1.5 2.5453550734e-07 -9.2999999881 1.4499999993 -6.5124588389e-08 -9.2999999881 1.5 2.4889845918e-07 
-9.2499999873 1.4499999993 -6.382310147e-08 -9.2499999873 1.5 2.438471256e-07 -9.1999999866 1.4499999993 -6.2686233093e-08 
-9.1999999866 1.5 2.3935422178e-07 -9.1499999858 1.4499999993 -6.1623033787e-08 -9.1499999858 1.5 2.3532426496e-07 
-9.0999999851 1.4499999993 -6.0682616265e-08 -9.0999999851 1.5 2.3169720009e-07 -9.0499999844 1.4499999993 -5.9821324783e-08 
-9.0499999844 1.5 2.2849850723e-07 -8.9999999836 1.4499999993 -5.9046431744e-08 -8.9999999836 1.5 2.2559267165e-07 
-8.9499999829 1.4499999993 -5.8390686064e-08 -8.9499999829 1.5 2.2301243519e-07 -8.8999999821 1.4499999993 -5.7783143603e-08 
-8.8999999821 1.5 2.2062501159e-07 -8.8499999814 1.4499999993 -5.7207433457e-08 -8.8499999814 1.5 2.1856682508e-07 
-8.7999999806 1.4499999993 -5.669538794e-08 -8.7999999806 1.5 2.1664597227e-07 -8.7499999799 1.4499999993 -5.6272472904e-08 
-8.7499999799 1.5 2.1495795011e-07 -8.6999999791 1.4499999993 -5.6091483458e-08 -8.6999999791 1.5 2.1418124163e-07 
-8.6499999784 1.4499999993 -5.5700400736e-08 -8.6499999784 1.5 2.1276788686e-07 -8.5999999776 1.4499999993 -5.5344788308e-08 
-8.5999999776 1.5 2.1145275753e-07 -8.5499999769 1.4499999993 -5.5098315244e-08 -8.5499999769 1.5 2.1039137721e-07 
-8.4999999762 1.4499999993 -5.478817755e-08 -8.4999999762 1.5 2.0936001022e-07 -8.4499999754 1.4499999993 -5.4539885497e-08 
-8.4499999754 1.5 2.0849871873e-07 -8.3999999747 1.4499999993 -5.4419832196e-08 -8.3999999747 1.5 2.0779840781e-07 
-8.3499999739 1.4499999993 -5.4278860517e-08 -8.3499999739 1.5 2.0714448112e-07 -8.2999999732 1.4499999993 -5.4146983786e-08 
-8.2999999732 1.5 2.0662061218e-07 -8.2499999724 1.4499999993 -5.4013288064e-08 -8.2499999724 1.5 2.0620952057e-07 
-8.1999999717 1.4499999993 -5.3902329711e-08 -8.1999999717 1.5 2.0585117966e-07 -8.1499999709 1.4499999993 -5.3865949923e-08 
-8.1499999709 1.5 2.0560925407e-07 -8.0999999702 1.4499999993 -5.3767724495e-08 -8.0999999702 1.5 2.053800614e-07 
-8.0499999695 1.4499999993 -5.379955681e-08 -8.0499999695 1.5 2.0530048062e-07 -7.9999999687 1.4499999993 -5.375317258e-08 
-7.9999999687 1.5 2.0536050727e-07 -7.949999968 1.4499999993 -5.3701331382e-08 -7.949999968 1.5 2.0542826462e-07 
-7.8999999672 1.4499999993 -5.3792735599e-08 -7.8999999672 1.5 2.0551102864e-07 -7.8499999665 1.4499999993 -5.3890051532e-08 
-7.8499999665 1.5 2.0567337344e-07 -7.7999999657 1.4499999993 -5.3901420216e-08 -7.7999999657 1.5 2.0588119298e-07 
-7.749999965 1.4499999993 -5.4016016549e-08 -7.749999965 1.5 2.0627273045e-07 -7.6999999642 1.4499999993 -5.4142436312e-08 
-7.6999999642 1.5 2.065564928e-07 -7.6499999635 1.4499999993 -5.4219743362e-08 -7.6499999635 1.5 2.0698304581e-07 
-7.5999999627 1.4499999993 -5.4352984336e-08 -7.5999999627 1.5 2.0745552831e-07 -7.549999962 1.4499999993 -5.447758511e-08 
-7.549999962 1.5 2.0795711464e-07 -7.4999999613 1.4499999993 -5.4610826083e-08 -7.4999999613 1.5 2.0850553994e-07 
-7.4499999605 1.4499999993 -5.4761802204e-08 -7.4499999605 1.5 2.0908261433e-07 -7.3999999598 1.4499999993 -5.4951886597e-08 
-7.3999999598 1.5 2.0973017456e-07 -7.349999959 1.4499999993 -5.5111502917e-08 -7.349999959 1.5 2.104354877e-07 
-7.2999999583 1.4499999993 -5.5289309131e-08 -7.2999999583 1.5 2.1109669035e-07 -7.2499999575 1.4499999993 -5.5464386861e-08 
-7.2499999575 1.5 2.1185248045e-07 -7.1999999568 1.4499999993 -5.5655835496e-08 -7.1999999568 1.5 2.1260872529e-07 
-7.149999956 1.4499999993 -5.5876970606e-08 -7.149999956 1.5 2.133972572e-07 -7.0999999553 1.4499999993 -5.598643682e-08 
-7.0999999553 1.5 2.137919779e-07 -7.0499999546 1.4499999993 -5.6191982623e-08 -7.0499999546 1.5 2.1461279687e-07 
-6.9999999538 1.4499999993 -5.6443457908e-08 -6.9999999538 1.5 2.1545089623e-07 -6.9499999531 1.4499999993 -5.6645820479e-08 
-6.9499999531 1.5 2.1627444369e-07 -6.8999999523 1.4499999993 -5.6870010923e-08 -6.8999999523 1.5 2.1715347032e-07 
-6.8499999516 1.4499999993 -5.7088744398e-08 -6.8499999516 1.5 2.1806296502e-07 -6.7999999508 1.4499999993 -5.7300656664e-08 
-6.7999999508 1.5 2.1894653912e-07 -6.7499999501 1.4499999993 -5.7545765486e-08 -6.7499999501 1.5 2.1977145082e-07 
-6.6999999493 1.4499999993 -5.7787691077e-08 -6.6999999493 1.5 2.2065638916e-07 -6.6499999486 1.4499999993 -5.8009153037e-08 
-6.6499999486 1.5 2.2149630752e-07 -6.5999999478 1.4499999993 -5.8213334597e-08 -6.5999999478 1.5 2.2233440689e-07 
-6.5499999471 1.4499999993 -5.8471176345e-08 -6.5499999471 1.5 2.2313339798e-07 -6.4999999464 1.4499999993 -5.8634430644e-08 
-6.4999999464 1.5 2.2392283938e-07 -6.4499999456 1.4499999993 -5.8810872616e-08 -6.4499999456 1.5 2.2462951677e-07 
-6.3999999449 1.4499999993 -5.8991862062e-08 -6.3999999449 1.5 2.2531800425e-07 -6.3499999441 1.4499999993 -5.9174670497e-08 
-6.3499999441 1.5 2.2591008531e-07 -6.2999999434 1.4499999993 -5.9264710472e-08 -6.2999999434 1.5 2.2647488152e-07 
-6.2499999426 1.4499999993 -5.9394540841e-08 -6.2499999426 1.5 2.2691575907e-07 -6.1999999419 1.4499999993 -5.951755e-08 
-6.1999999419 1.5 2.2725477322e-07 -6.1499999411 1.4499999993 -5.9548018072e-08 -6.1499999411 1.5 2.2748805861e-07 
-6.0999999404 1.4499999993 -5.9600768765e-08 -6.0999999404 1.5 2.2757355111e-07 -6.0499999397 1.4499999993 -5.9579850387e-08 
-6.0499999397 1.5 2.2749624407e-07 -5.9999999389 1.4499999993 -5.9507545558e-08 -5.9999999389 1.5 2.2728819715e-07 
-5.9499999382 1.4499999993 -5.9404317909e-08 -5.9499999382 1.5 2.2683117606e-07 -5.8999999374 1.4499999993 -5.9202410085e-08 
-5.8999999374 1.5 2.2615746786e-07 -5.8499999367 1.4499999993 -5.8971853178e-08 -5.8499999367 1.5 2.2521818721e-07 
-5.7999999359 1.4499999993 -5.863420327e-08 -5.7999999359 1.5 2.2395421695e-07 -5.7499999352 1.4499999993 -5.8250851254e-08 
-5.7499999352 1.5 2.2237351516e-07 -5.6999999344 1.4499999993 -5.7720843216e-08 -5.6999999344 1.5 2.2039036196e-07 
-5.6499999337 1.4499999993 -5.7060095315e-08 -5.6499999337 1.5 2.1796110161e-07 -5.5999999329 1.4499999993 -5.631684985e-08 
-5.5999999329 1.5 2.1499410252e-07 -5.5499999322 1.4499999993 -5.5848875746e-08 -5.5499999322 1.5 2.1331790379e-07 
-5.4999999315 1.4499999993 -5.4846157838e-08 -5.4999999315 1.5 2.0950302826e-07 -5.4499999307 1.4499999993 -5.365608402e-08 
-5.4499999307 1.5 2.0495419051e-07 -5.39999993 1.4499999993 -5.2272287832e-08 -5.39999993 1.5 1.9960522479e-07 
-5.3499999292 1.4499999993 -5.0623146564e-08 -5.3499999292 1.5 1.9334108003e-07 -5.2999999285 1.4499999993 -4.8693880927e-08 
-5.2999999285 1.5 1.8603283536e-07 -5.2499999277 1.4499999993 -4.6474259108e-08 -5.2499999277 1.5 1.7752451242e-07 
-5.199999927 1.4499999993 -4.3893795265e-08 -5.199999927 1.5 1.6761897825e-07 -5.1499999262 1.4499999993 -4.0875864471e-08 
-5.1499999262 1.5 1.5610704907e-07 -5.0999999255 1.4499999993 -3.7371581385e-08 -5.0999999255 1.5 1.4279341087e-07 
-5.0499999247 1.4499999993 -3.3339336625e-08 -5.0499999247 1.5 1.2732267862e-07 -4.999999924 1.4499999993 -2.8622812565e-08 
-4.999999924 1.5 1.093977815e-07 -4.9499999233 1.4499999993 -2.3178804653e-08 -4.9499999233 1.5 8.8586951108e-08 
-4.8999999225 1.4499999993 -1.6839171835e-08 -4.8999999225 1.5 6.4427361224e-08 -4.8499999218 1.4499999993 -9.4748795476e-09 
-4.8499999218 1.5 3.6297830519e-08 -4.799999921 1.4499999993 -8.7617535449e-10 -4.799999921 1.5 3.5158882472e-09 
-4.7499999203 1.4499999993 9.1651006784e-09 -4.7499999203 1.5 -3.4752350331e-08 -4.6999999195 1.4499999993 2.0937600098e-08 
-4.6999999195 1.5 -7.9583962531e-08 -4.6499999188 1.4499999993 3.4738274479e-08 -4.6499999188 1.5 -1.322865586e-07 
-4.599999918 1.4499999993 5.1064613871e-08 -4.599999918 1.5 -1.9442892096e-07 -4.5499999173 1.4499999993 7.0382277784e-08 
-4.5499999173 1.5 -2.6804138997e-07 -4.4999999166 1.4499999993 9.3374531218e-08 -4.4999999166 1.5 -3.5567643408e-07 
-4.4499999158 1.4499999993 1.2095064506e-07 -4.4499999158 1.5 -4.6057698455e-07 -4.3999999151 1.4499999993 1.5413469612e-07 
-4.3999999151 1.5 -5.8698969951e-07 -4.3499999143 1.4499999993 1.9446373756e-07 -4.3499999143 1.5 -7.4036597653e-07 
-4.2999999136 1.4499999993 2.4384985409e-07 -4.2999999136 1.5 -9.2811546892e-07 -4.2499999128 1.4499999993 3.0493526992e-07 
-4.2499999128 1.5 -1.1601647429e-06 -4.1999999121 1.4499999993 3.8131861402e-07 -4.1999999121 1.5 -1.4501356418e-06 
-4.1499999113 1.4499999993 4.7813898618e-07 -4.1499999113 1.5 -1.8172748923e-06 -4.0999999106 1.4499999993 6.027589734e-07 
-4.0999999106 1.5 -2.2892406832e-06 -4.0499999098 1.4499999993 7.6620642631e-07 -4.0499999098 1.5 -2.9071277368e-06 
-3.9999999091 1.4499999993 9.8542636806e-07 -3.9999999091 1.5 -3.7340157633e-06 -3.9499999084 1.4499999993 1.1239126252e-06 
[...]
CELL_DATA 9510
FIELD FieldData 4
Water_Depth_m 1 9510 float
0.75 0.750001 0.750001 0.750001 0.750002 0.750002 0.750002 0.750003 0.750003 
0.750003 0.750004 0.750004 0.750004 0.750005 0.750005 0.750006 0.750006 0.750006 
0.750007 0.750007 0.750007 0.750008 0.750008 0.750008 0.750009 0.750009 0.750009 
0.75001 0.75001 0.750011 0.750011 0.750011 0.750012 0.750012 0.750012 0.750013 
0.750013 0.750013 0.750014 0.750014 0.750014 0.750015 0.750015 0.750015 0.750016 
0.750016 0.750016 0.750017 0.750017 0.750017 0.750018 0.750018 0.750018 0.750019 
0.750019 0.750019 0.75002 0.75002 0.75002 0.750021 0.750021 0.750021 0.750022 
0.750022 0.750022 0.750023 0.750023 0.750023 0.750024 0.750024 0.750024 0.750025 
0.750025 0.750025 0.750026 0.750026 0.750026 0.750027 0.750027 0.750027 0.750028 
0.750028 0.750028 0.750028 0.750029 0.750029 0.750029 0.75003 0.75003 0.75003 
0.750031 0.750031 0.750031 0.750032 0.750032 0.750032 0.750033 0.750033 0.750034 
0.750034 0.750034 0.750035 0.750035 0.750035 0.750036 0.750036 0.750036 0.750037 
0.750037 0.750038 0.750038 0.750039 0.75004 0.75004 0.750041 0.750042 0.750043 
0.750044 0.750045 0.750046 0.750047 0.750049 0.750051 0.750053 0.750056 0.75006 
0.750066 0.750076 0.750095 0.75016 0.750363 0.750254 0.744812 0.731497 0.712074 
0.688215 0.661216 0.632204 0.602227 0.572278 0.543865 0.517819 0.495125 0.477225 
0.466103 0.464214 0.464211 0.464211 0.464213 0.464216 0.464219 0.464223 0.464226 
0.46423 0.464233 0.464237 0.46424 0.464244 0.464248 0.464252 0.464257 0.464261 
0.464266 0.464271 0.464277 0.464283 0.464289 0.464296 0.464303 0.46431 0.464318 
0.464334 0.467859 0.482913 0.483671 0.482448 0.482161 0.480737 0.480408 0.480813 
0.48186 0.476216 0.447098 0.415701 0.382801 0.355357 0.325568 0.303887 0.315133 
0.328625 0.344811 0.360758 0.384231 0.411159 0.443254 0.476555 0.513686 0.552813 
0.633842 0.603441 0.57769 0.549215 0.520714 0.503735 0.503384 0.506161 0.505863 
0.495294 0.495027 0.494871 0.494815 0.494782 0.494757 0.494736 0.494719 0.494708 
0.494703 0.494704 0.49471 0.494718 0.494724 0.494726 0.494722 0.49471 0.494688 
0.494657 0.494618 0.494577 0.494536 0.494496 0.494459 0.494427 0.494403 0.49439 
0.494388 0.494398 0.49442 0.494453 0.494495 0.494544 0.494597 0.49465 0.494701 
0.494745 0.494778 0.494798 0.494806 0.494804 0.494794 0.494785 0.494779 0.49478 
0.494787 0.494797 0.494804 0.494807 0.494803 0.494792 0.494772 0.494743 0.494706 
0.494666 0.49463 0.494603 0.494587 0.494576 0.494566 0.494551 0.494531 0.494505 
0.494475 0.494444 0.494417 0.4944 0.494397 0.494413 0.494442 0.49448 0.494507 
0.494509 0.494477 0.494412 0.494312 0.494178 0.494017 0.49384 0.493648 0.493449 
0.493254 0.493119 0.493142 0.493375 0.492971 0.491119 0.487845 0.750001 0.750001 
0.750001 0.750001 0.750002 0.750002 0.750002 0.750003 0.750003 0.750003 0.750004 
0.750004 0.750004 0.750005 0.750005 0.750006 0.750006 0.750006 0.750007 0.750007 
0.750007 0.750008 0.750008 0.750008 0.750009 0.750009 0.75001 0.75001 0.75001 
0.750011 0.750011 0.750011 0.750012 0.750012 0.750012 0.750013 0.750013 0.750013 
0.750014 0.750014 0.750014 0.750015 0.750015 0.750015 0.750016 0.750016 0.750016 
0.750017 0.750017 0.750017 0.750018 0.750018 0.750018 0.750019 0.750019 0.750019 
0.75002 0.75002 0.75002 0.750021 0.750021 0.750021 0.750022 0.750022 0.750022 
0.750023 0.750023 0.750023 0.750024 0.750024 0.750024 0.750025 0.750025 0.750025 
0.750026 0.750026 0.750026 0.750027 0.750027 0.750027 0.750028 0.750028 0.750028 
0.750029 0.750029 0.750029 0.75003 0.75003 0.75003 0.75003 0.750031 0.750031 
0.750031 0.750032 0.750032 0.750033 0.750033 0.750033 0.750034 0.750034 0.750034 
0.750035 0.750035 0.750035 0.750036 0.750036 0.750036 0.750037 0.750037 0.750038 
0.750038 0.750039 0.750039 0.75004 0.75004 0.750041 0.750042 0.750042 0.750043 
0.750044 0.750045 0.750046 0.750047 0.750048 0.750049 0.75005 0.750052 0.750053 
0.750055 0.750059 0.750093 0.750052 0.745171 0.732547 0.713579 0.689829 0.662669 
0.633318 0.602897 0.57242 0.543191 0.51633 0.493255 0.475668 0.465763 0.464231 
0.464221 0.464215 0.464216 0.464218 0.464221 0.464224 0.464227 0.46423 0.464234 
0.464237 0.464241 0.464245 0.464249 0.464253 0.464257 0.464262 0.464267 0.464272 
0.464278 0.464284 0.46429 0.464297 0.464304 0.464311 0.464317 0.464334 0.467797 
0.482638 0.483611 0.482004 0.48188 0.481324 0.480575 0.481019 0.48063 0.471608 
0.433292 0.401447 0.367334 0.331818 0.30733 0.29771 0.304809 0.316887 0.334376 
0.35558 0.382699 0.417693 0.453696 0.482546 0.523174 0.545355 0.623637 0.593487 
0.56192 0.538308 0.521831 0.506991 0.510991 0.512184 0.509821 0.495904 0.49477 
0.494765 0.494754 0.494743 0.494729 0.494715 0.494702 0.494694 0.494691 0.494693 
0.494701 0.49471 0.494717 0.49472 0.494716 0.494703 0.494681 0.49465 0.494612 
0.494571 0.49453 0.494488 0.494449 0.494416 0.494391 0.494377 0.494376 0.494386 
0.494408 0.49444 0.494481 0.49453 0.494584 0.494638 0.494689 0.494734 0.494768 
0.494789 0.494797 0.494794 0.494785 0.494775 0.494769 0.494771 0.494781 0.494792 
0.494801 0.494804 0.494801 0.494789 0.494768 0.494737 0.494697 0.494653 0.494614 
0.494588 0.494577 0.494572 0.494565 0.494552 0.494531 0.494503 0.494469 0.494435 
0.494403 0.494383 0.494379 0.494392 0.494424 0.494472 0.494512 0.494523 0.4945 
0.494444 0.494351 0.494208 0.494034 0.493844 0.493652 0.493437 0.493189 0.492972 
0.492896 0.4931 0.492595 0.490822 0.48781 0.75 0.750001 0.750001 0.750001 
0.750002 0.750002 0.750002 0.750003 0.750003 0.750003 0.750004 0.750004 0.750004 
0.750005 0.750005 0.750005 0.750006 0.750006 0.750007 0.750007 0.750007 0.750008 
0.750008 0.750008 0.750009 0.750009 0.750009 0.75001 0.75001 0.75001 0.750011 
0.750011 0.750012 0.750012 0.750012 0.750013 0.750013 0.750013 0.750014 0.750014 
0.750014 0.750015 0.750015 0.750015 0.750016 0.750016 0.750016 0.750017 0.750017 
0.750017 0.750018 0.750018 0.750018 0.750019 0.750019 0.750019 0.75002 0.75002 
0.75002 0.750021 0.750021 0.750021 0.750022 0.750022 0.750022 0.750023 0.750023 
0.750023 0.750024 0.750024 0.750024 0.750025 0.750025 0.750025 0.750026 0.750026 
0.750026 0.750027 0.750027 0.750027 0.750028 0.750028 0.750028 0.750028 0.750029 
0.750029 0.750029 0.75003 0.75003 0.75003 0.750031 0.750031 0.750031 0.750032 
0.750032 0.750032 0.750033 0.750033 0.750033 0.750034 0.750034 0.750035 0.750035 
0.750035 0.750036 0.750036 0.750036 0.750037 0.750037 0.750038 0.750038 0.750039 
0.750039 0.75004 0.75004 0.750041 0.750041 0.750042 0.750043 0.750044 0.750045 
0.750046 0.750047 0.750048 0.750049 0.750051 0.750052 0.750054 0.750057 0.750065 
0.750147 0.750053 0.745319 0.733039 0.714399 0.690807 0.663612 0.634067 0.603336 
0.572507 0.542853 0.515633 0.492484 0.475206 0.46569 0.4642 0.464204 0.464208 
0.464211 0.464215 0.464218 0.464222 0.464225 0.464229 0.464232 0.464236 0.464239 
0.464243 0.464247 0.464251 0.464255 0.46426 0.464264 0.464269 0.464275 0.46428 
0.464286 0.464293 0.4643 0.464308 0.464316 0.464334 0.467538 0.481812 0.483106 
0.481249 0.481062 0.480987 0.480393 0.481062 0.479019 0.462181 0.430538 0.400552 
0.363561 0.328798 0.297063 0.271592 0.280395 0.304937 0.32962 0.357751 0.389258 
0.423675 0.457789 0.494532 0.532016 0.556428 0.631024 0.596576 0.573128 0.549314 
0.523137 0.510496 0.515797 0.516522 0.513133 0.495539 0.494751 0.494747 0.494737 
0.494726 0.494714 0.494701 0.494689 0.49468 0.494677 0.49468 0.494687 0.494696 
0.494704 0.494707 0.494704 0.494691 0.494669 0.494638 0.4946 0.494559 0.494515 
0.494471 0.494428 0.494393 0.494368 0.494355 0.494354 0.494364 0.494384 0.494414 
0.494454 0.494503 0.494556 0.494612 0.494664 0.49471 0.494746 0.494768 0.494776 
0.494774 0.494764 0.494753 0.494745 0.494746 0.494756 0.49477 0.494784 0.494792 
0.49479 0.494778 0.494753 0.494714 0.494662 0.494606 0.494563 0.494553 0.494566 
0.494579 0.494578 0.494562 0.494533 0.494497 0.494455 0.494411 0.494367 0.494329 
0.494311 0.494337 0.494406 0.494482 0.494535 0.494529 0.494494 0.49445 0.494392 
0.494254 0.494059 0.493856 0.493676 0.49345 0.493089 0.49267 0.492279 0.49221 
0.491561 0.490183 0.487683 0.75 0.750001 0.750001 0.750001 0.750002 0.750002 
0.750002 0.750003 0.750003 0.750003 0.750004 0.750004 0.750004 0.750005 0.750005 
0.750005 0.750006 0.750006 0.750007 0.750007 0.750007 0.750008 0.750008 0.750008 
0.750009 0.750009 0.750009 0.75001 0.75001 0.750011 0.750011 0.750011 0.750012 
0.750012 0.750012 0.750013 0.750013 0.750013 0.750014 0.750014 0.750014 0.750015 
0.750015 0.750015 0.750016 0.750016 0.750016 0.750017 0.750017 0.750017 0.750018 
0.750018 0.750018 0.750019 0.750019 0.750019 0.75002 0.75002 0.75002 0.750021 
0.750021 0.750021 0.750022 0.750022 0.750022 0.750023 0.750023 0.750023 0.750024 
0.750024 0.750024 0.750025 0.750025 0.750025 0.750026 0.750026 0.750026 0.750027 
0.750027 0.750027 0.750028 0.750028 0.750028 0.750028 0.750029 0.750029 0.750029 
0.75003 0.75003 0.75003 0.750031 0.750031 0.750031 0.750032 0.750032 0.750032 
0.750033 0.750033 0.750033 0.750034 0.750034 0.750035 0.750035 0.750035 0.750036 
0.750036 0.750036 0.750037 0.750037 0.750038 0.750038 0.750038 0.750039 0.750039 
0.75004 0.750041 0.750041 0.750042 0.750043 0.750043 0.750044 0.750045 0.750046 
0.750047 0.750048 0.75005 0.750051 0.750052 0.750054 0.750056 0.750133 0.750051 
0.745383 0.733273 0.714828 0.69136 0.664172 0.634519 0.603595 0.572555 0.542676 
0.51533 0.492203 0.475071 0.465689 0.464201 0.464205 0.464208 0.464211 0.464215 
0.464218 0.464222 0.464225 0.464229 0.464232 0.464236 0.464239 0.464243 0.464247 
0.464251 0.464255 0.464259 0.464263 0.464268 0.464273 0.464279 0.464285 0.464291 
0.464298 0.464306 0.464315 0.464332 0.467644 0.481911 0.482698 0.481091 0.480431 
0.479641 0.478938 0.480734 0.476035 0.445604 0.416211 0.390442 0.354725 0.319971 
0.291054 0.27925 0.294921 0.313578 0.338789 0.363158 0.391746 0.424533 0.456439 
0.494321 0.529585 0.55421 0.635107 0.596882 0.572748 0.549029 0.523007 0.514314 
0.519103 0.519146 0.514356 0.495788 0.494706 0.494707 0.494704 0.494698 0.494689 
0.494679 0.494669 0.49466 0.494657 0.494659 0.494666 0.494675 0.494683 0.494687 
0.494684 0.494672 0.494649 0.494618 0.49458 0.494537 0.494491 0.494442 0.494398 
0.494363 0.494339 0.494327 0.494325 0.494332 0.494348 0.494375 0.494413 0.49446 
0.494514 0.494571 0.494626 0.494674 0.494711 0.494734 0.494743 0.494741 0.494732 
0.494719 0.494709 0.494705 0.494714 0.49473 0.494747 0.494761 0.494764 0.494754 
0.494726 0.494679 0.494619 0.494562 0.494533 0.494534 0.494523 0.494514 0.494532 
0.494537 0.494522 0.494485 0.494429 0.494372 0.494321 0.494284 0.494287 0.494361 
0.494453 0.494498 0.4945 0.494463 0.494399 0.494313 0.494193 0.494032 0.493969 
0.493831 0.493701 0.493497 0.493026 0.492367 0.491604 0.490745 0.489714 0.489382 
0.487364 0.75 0.750001 0.750001 0.750001 0.750002 0.750002 0.750002 0.750003 
0.750003 0.750003 0.750004 0.750004 0.750004 0.750005 0.750005 0.750005 0.750006 
0.750006 0.750007 0.750007 0.750007 0.750008 0.750008 0.750008 0.750009 0.750009 
0.750009 0.75001 0.75001 0.750011 0.750011 0.750011 0.750012 0.750012 0.750012 
0.750013 0.750013 0.750013 0.750014 0.750014 0.750014 0.750015 0.750015 0.750015 
0.750016 0.750016 0.750016 0.750017 0.750017 0.750017 0.750018 0.750018 0.750018 
0.750019 0.750019 0.750019 0.75002 0.75002 0.75002 0.750021 0.750021 0.750021 
0.750022 0.750022 0.750022 0.750023 0.750023 0.750023 0.750024 0.750024 0.750024 
0.750025 0.750025 0.750025 0.750026 0.750026 0.750026 0.750027 0.750027 0.750027 
0.750028 0.750028 0.750028 0.750029 0.750029 0.750029 0.750029 0.75003 0.75003 
0.75003 0.750031 0.750031 0.750031 0.750032 0.750032 0.750032 0.750033 0.750033 
0.750033 0.750034 0.750034 0.750035 0.750035 0.750035 0.750036 0.750036 0.750036 
0.750037 0.750037 0.750038 0.750038 0.750038 0.750039 0.750039 0.75004 0.75004 
0.750041 0.750042 0.750042 0.750043 0.750044 0.750045 0.750046 0.750047 0.750048 
0.750049 0.750051 0.750052 0.750054 0.750058 0.750135 0.750052 0.74541 0.73338 
0.71504 0.691649 0.664476 0.634766 0.603734 0.572579 0.542587 0.515201 0.492106 
0.475036 0.465686 0.4642 0.464204 0.464208 0.464211 0.464215 0.464218 0.464222 
0.464225 0.464229 0.464232 0.464235 0.464239 0.464242 0.464246 0.46425 0.464254 
0.464258 0.464262 0.464267 0.464272 0.464277 0.464283 0.464289 0.464296 0.464303 
0.464312 0.46433 0.467686 0.482095 0.483058 0.48081 0.481483 0.481168 0.480813 
0.478109 0.46884 0.430875 0.400991 0.372071 0.341013 0.306602 0.295652 0.310055 
0.323849 0.342349 0.36049 0.37738 0.398169 0.425098 0.446139 0.484393 0.511422 
0.540064 0.629767 0.590731 0.564743 0.542129 0.522155 0.517928 0.522033 0.5219 
0.515965 0.495644 0.494663 0.494669 0.49467 0.494667 0.494661 0.494653 0.494645 
0.494637 0.494633 0.494633 0.494638 0.494647 0.494655 0.494659 0.494657 0.494645 
0.494623 0.494591 0.494552 0.494507 0.494457 0.494407 0.494363 0.494328 0.494305 
0.494292 0.494286 0.494288 0.4943 0.494323 0.494359 0.494405 0.49446 0.494518 
0.494575 0.494626 0.494664 0.494688 0.494697 0.494695 0.494686 0.494674 0.494661 
0.494653 0.494656 0.494671 0.494692 0.494711 0.494721 0.494716 0.494691 0.494645 
0.494592 0.494556 0.494541 0.494513 0.494461 0.494404 0.49438 0.494389 0.49442 
0.494433 0.494404 0.494364 0.494335 0.494336 0.494382 0.494449 0.494502 0.494521 
0.494496 0.494441 0.494361 0.494252 0.494106 0.493923 0.493724 0.493467 0.493265 
0.493074 0.492771 0.492192 0.491431 0.490489 0.489423 0.488608 0.48848 0.75 
0.750001 0.750001 0.750001 0.750002 0.750002 0.750002 0.750003 0.750003 0.750003 
0.750004 0.750004 0.750004 0.750005 0.750005 0.750005 0.750006 0.750006 0.750007 
0.750007 0.750007 0.750008 0.750008 0.750008 0.750009 0.750009 0.750009 0.75001 
0.75001 0.75001 0.750011 0.750011 0.750012 0.750012 0.750012 0.750013 0.750013 
0.750013 0.750014 0.750014 0.750014 0.750015 0.750015 0.750015 0.750016 0.750016 
0.750016 0.750017 0.750017 0.750017 0.750018 0.750018 0.750018 0.750019 0.750019 
0.750019 0.75002 0.75002 0.75002 0.750021 0.750021 0.750021 0.750022 0.750022 
0.750022 0.750023 0.750023 0.750023 0.750024 0.750024 0.750024 0.750025 0.750025 
0.750025 0.750026 0.750026 0.750026 0.750027 0.750027 0.750027 0.750028 0.750028 
0.750028 0.750029 0.750029 0.750029 0.75003 0.75003 0.75003 0.75003 0.750031 
0.750031 0.750031 0.750032 0.750032 0.750032 0.750033 0.750033 0.750033 0.750034 
0.750034 0.750034 0.750035 0.750035 0.750035 0.750036 0.750036 0.750037 0.750037 
0.750038 0.750038 0.750039 0.750039 0.750039 0.75004 0.75004 0.750041 0.750041 
0.750042 0.750043 0.750044 0.750044 0.750045 0.750046 0.750047 0.750048 0.75005 
0.750052 0.750053 0.750057 0.750135 0.750052 0.745421 0.733424 0.715134 0.691786 
0.664624 0.634887 0.603802 0.57259 0.542543 0.515146 0.492073 0.475028 0.465688 
0.4642 0.464204 0.464208 0.464212 0.464215 0.464219 0.464222 0.464225 0.464228 
0.464232 0.464235 0.464238 0.464241 0.464245 0.464249 0.464252 0.464256 0.46426 
0.464265 0.46427 0.464275 0.46428 0.464286 0.464292 0.4643 0.464308 0.464326 
0.467813 0.483148 0.484293 0.482124 0.481378 0.481767 0.482474 0.477495 0.454163 
0.4175 0.386154 0.353917 0.322831 0.30307 0.311382 0.32526 0.337426 0.354445 
0.368753 0.385972 0.404334 0.429103 0.454015 0.482994 0.520588 0.539278 0.615336 
0.591866 0.571831 0.548068 0.527209 0.520809 0.524719 0.52454 0.517633 0.495729 
0.494614 0.494625 0.49463 0.494631 0.494628 0.494623 0.494616 0.49461 0.494605 
0.494604 0.494607 0.494613 0.49462 0.494624 0.494623 0.494611 0.494589 0.494557 
0.494517 0.49447 0.494419 0.494368 0.494324 0.494289 0.494265 0.494249 0.494239 
0.494236 0.494244 0.494264 0.494298 0.494343 0.494398 0.494458 0.494516 0.494567 
0.494607 0.49463 0.494638 0.494635 0.494625 0.494613 0.4946 0.49459 0.494588 
0.494597 0.494618 0.494642 0.49466 0.494664 0.494649 0.494615 0.494575 0.494554 
0.494538 0.494499 0.494426 0.494335 0.494269 0.494267 0.494316 0.494378 0.494406 
0.494415 0.49443 0.494487 0.49455 0.494562 0.494567 0.49455 0.494513 0.494455 
0.494368 0.494245 0.494079 0.493871 0.493625 0.493347 0.493082 0.492869 0.492761 
0.492364 0.49179 0.491196 0.490255 0.488961 0.488953 0.75 0.750001 0.750001 
0.750001 0.750002 0.750002 0.750002 0.750003 0.750003 0.750003 0.750004 0.750004 
0.750004 0.750005 0.750005 0.750005 0.750006 0.750006 0.750006 0.750007 0.750007 
0.750008 0.750008 0.750008 0.750009 0.750009 0.750009 0.75001 0.75001 0.75001 
0.750011 0.750011 0.750012 0.750012 0.750012 0.750013 0.750013 0.750013 0.750014 
0.750014 0.750014 0.750015 0.750015 0.750015 0.750016 0.750016 0.750016 0.750017 
0.750017 0.750017 0.750018 0.750018 0.750018 0.750019 0.750019 0.750019 0.75002 
0.75002 0.75002 0.750021 0.750021 0.750021 0.750022 0.750022 0.750022 0.750023 
0.750023 0.750023 0.750024 0.750024 0.750024 0.750025 0.750025 0.750025 0.750026 
0.750026 0.750026 0.750027 0.750027 0.750027 0.750028 0.750028 0.750028 0.750029 
0.750029 0.750029 0.75003 0.75003 0.75003 0.750031 0.750031 0.750031 0.750031 
0.750032 0.750032 0.750032 0.750033 0.750033 0.750033 0.750033 0.750034 0.750034 
0.750034 0.750035 0.750035 0.750036 0.750036 0.750037 0.750037 0.750038 0.750038 
0.750039 0.750039 0.75004 0.75004 0.75004 0.750041 0.750041 0.750042 0.750042 
0.750043 0.750044 0.750045 0.750045 0.750046 0.750048 0.750049 0.750051 0.750053 
0.750056 0.750134 0.750051 0.745422 0.733436 0.715167 0.691839 0.664684 0.634937 
0.60383 0.572595 0.542523 0.515121 0.492061 0.475028 0.465688 0.464201 0.464205 
0.464209 0.464212 0.464216 0.464219 0.464222 0.464225 0.464228 0.464231 0.464234 
0.464237 0.464241 0.464244 0.464247 0.464251 0.464255 0.464259 0.464263 0.464267 
0.464272 0.464277 0.464282 0.464289 0.464295 0.464303 0.46432 0.467774 0.482969 
0.484192 0.482065 0.481257 0.48166 0.482446 0.476465 0.446285 0.409572 0.378848 
0.34715 0.314955 0.31536 0.325014 0.33408 0.346639 0.360884 0.375628 0.390504 
0.405921 0.428686 0.45379 0.483953 0.522125 0.551296 0.629272 0.600682 0.579174 
0.555335 0.529824 0.523232 0.52751 0.527288 0.519319 0.495751 0.494562 0.494577 
0.494586 0.494591 0.494592 0.494589 0.494584 0.494578 0.494573 0.49457 0.494571 
0.494575 0.49458 0.494584 0.494583 0.494572 0.494551 0.494518 0.494476 0.494428 
0.494376 0.494326 0.494282 0.494247 0.494221 0.494201 0.494188 0.494183 0.494187 
0.494204 0.494235 0.494279 0.494334 0.494393 0.494452 0.494503 0.49454 0.494561 
0.494567 0.494562 0.49455 0.494536 0.494522 0.494512 0.494507 0.494512 0.49453 
0.494556 0.494582 0.494599 0.494598 0.494581 0.494561 0.49455 0.49454 0.494504 
0.49443 0.494326 0.494216 0.49417 0.494215 0.494318 0.494418 0.494499 0.494575 
0.49462 0.494558 0.49453 0.49453 0.494529 0.494515 0.494479 0.494409 0.494291 
0.494115 0.493887 0.493617 0.493318 0.493022 0.492765 0.492559 0.492254 0.491814 
0.491262 0.490412 0.489278 0.487717 0.75 0.750001 0.750001 0.750001 0.750002 
0.750002 0.750002 0.750003 0.750003 0.750003 0.750004 0.750004 0.750004 0.750005 
0.750005 0.750005 0.750006 0.750006 0.750006 0.750007 0.750007 0.750008 0.750008 
0.750008 0.750009 0.750009 0.750009 0.75001 0.75001 0.75001 0.750011 0.750011 
0.750012 0.750012 0.750012 0.750013 0.750013 0.750014 0.750014 0.750014 0.750015 
0.750015 0.750015 0.750015 0.750016 0.750016 0.750016 0.750017 0.750017 0.750017 
0.750018 0.750018 0.750018 0.750018 0.750019 0.750019 0.750019 0.75002 0.75002 
0.750021 0.750021 0.750021 0.750022 0.750022 0.750022 0.750023 0.750023 0.750023 
0.750024 0.750024 0.750024 0.750024 0.750025 0.750025 0.750025 0.750026 0.750026 
0.750026 0.750027 0.750027 0.750028 0.750028 0.750028 0.750029 0.750029 0.750029 
0.75003 0.75003 0.75003 0.750031 0.750031 0.750031 0.750031 0.750032 0.750032 
0.750032 0.750032 0.750033 0.750033 0.750033 0.750033 0.750034 0.750034 0.750035 
0.750035 0.750036 0.750036 0.750037 0.750037 0.750038 0.750038 0.750039 0.750039 
0.75004 0.75004 0.75004 0.750041 0.750041 0.750042 0.750042 0.750042 0.750043 
0.750044 0.750045 0.750045 0.750046 0.750048 0.750049 0.750051 0.750055 0.750133 
0.75005 0.74542 0.733435 0.71517 0.691849 0.6647 0.634952 0.603838 0.572597 
0.542515 0.515112 0.492057 0.475029 0.46569 0.464202 0.464206 0.46421 0.464213 