# vtk DataFile Version 5.1
vtk output
ASCII
DATASET UNSTRUCTURED_GRID
POINTS 10043 double
-10.1 1.4499999993 8.6074358308e-08 -10.049999999 1.4499999993 1.0829877084e-07 -10.049999999 1.5 -4.2207125261e-07 
-9.9999999985 1.4499999993 1.1536372568e-07 -9.9999999985 1.5 -4.417981927e-07 -9.9499999978 1.4499999993 1.1746647743e-07 
-9.9499999978 1.5 -4.49126901e-07 -9.899999997 1.4499999993 1.1845600767e-07 -9.899999997 1.5 -4.5235742618e-07 
-9.8499999963 1.4499999993 1.1882162454e-07 -9.8499999963 1.5 -4.5398209636e-07 -9.7999999955 1.4499999993 1.1905809316e-07 
-9.7999999955 1.5 -4.5500223678e-07 -9.7499999948 1.4499999993 1.1926728405e-07 -9.7499999948 1.5 -4.5569709073e-07 
-9.699999994 1.4499999993 1.1940552724e-07 -9.699999994 1.5 -4.5634646995e-07 -9.6499999933 1.4499999993 1.1957651225e-07 
-9.6499999933 1.5 -4.570576948e-07 -9.5999999925 1.4499999993 1.1986209358e-07 -9.5999999925 1.5 -4.5790716285e-07 
-9.5499999918 1.4499999993 1.2016040785e-07 -9.5499999918 1.5 -4.5881665756e-07 -9.4999999911 1.4499999993 1.2036777264e-07 
-9.4999999911 1.5 -4.6006812227e-07 -9.4499999903 1.4499999993 1.2068609578e-07 -9.4499999903 1.5 -4.6140507948e-07 
-9.3999999896 1.4499999993 1.2116267101e-07 -9.3999999896 1.5 -4.6286208999e-07 -9.3499999888 1.4499999993 1.2152101192e-07 
-9.3499999888 1.5 -4.6463924264e-07 -9.2999999881 1.4499999993 1.2201759603e-07 -9.2999999881 1.5 -4.6643822316e-07 
-9.2499999873 1.4499999993 1.2262513849e-07 -9.2499999873 1.5 -4.6853006097e-07 -9.1999999866 1.4499999993 1.2313445552e-07 
-9.1999999866 1.5 -4.7071316089e-07 -9.1499999858 1.4499999993 1.2372562708e-07 -9.1499999858 1.5 -4.7313028517e-07 
-9.0999999851 1.4499999993 1.2443685193e-07 -9.0999999851 1.5 -4.7556591198e-07 -9.0499999844 1.4499999993 1.2516626668e-07 
-9.0499999844 1.5 -4.781888947e-07 -8.9999999836 1.4499999993 1.2597207899e-07 -8.9999999836 1.5 -4.8104652706e-07 
-8.9499999829 1.4499999993 1.2671240768e-07 -8.9499999829 1.5 -4.8408060138e-07 -8.8999999821 1.4499999993 1.2747456424e-07 
-8.8999999821 1.5 -4.8717288337e-07 -8.8499999814 1.4499999993 1.2840042984e-07 -8.8499999814 1.5 -4.905489277e-07 
-8.7999999806 1.4499999993 1.2926444981e-07 -8.7999999806 1.5 -4.9403229241e-07 -8.7499999799 1.4499999993 1.3018667744e-07 
-8.7499999799 1.5 -4.976047876e-07 -8.6999999791 1.4499999993 1.3071418437e-07 -8.6999999791 1.5 -4.9949835557e-07 
-8.6499999784 1.4499999993 1.3178556912e-07 -8.6499999784 1.5 -5.034237347e-07 -8.5999999776 1.4499999993 1.3279328925e-07 
-8.5999999776 1.5 -5.0736548474e-07 -8.5499999769 1.4499999993 1.3396108045e-07 -8.5499999769 1.5 -5.1160009207e-07 
-8.4999999762 1.4499999993 1.3501791329e-07 -8.4999999762 1.5 -5.1591109695e-07 -8.4499999754 1.4499999993 1.3617479055e-07 
-8.4499999754 1.5 -5.2056770983e-07 -8.3999999747 1.4499999993 1.3742261729e-07 -8.3999999747 1.5 -5.2525160754e-07 
-8.3499999739 1.4499999993 1.3879049732e-07 -8.3499999739 1.5 -5.2989730648e-07 -8.2999999732 1.4499999993 1.4006742788e-07 
-8.2999999732 1.5 -5.3501230468e-07 -8.2499999724 1.4499999993 1.4137528126e-07 -8.2499999724 1.5 -5.4020370044e-07 
-8.1999999717 1.4499999993 1.4282865379e-07 -8.1999999717 1.5 -5.4558273632e-07 -8.1499999709 1.4499999993 1.4433295803e-07 
-8.1499999709 1.5 -5.5106124819e-07 -8.0999999702 1.4499999993 1.4576814067e-07 -8.0999999702 1.5 -5.5682380662e-07 
-8.0499999695 1.4499999993 1.4738522225e-07 -8.0499999695 1.5 -5.6277190197e-07 -7.9999999687 1.4499999993 1.4905141654e-07 
-7.9999999687 1.5 -5.6889825828e-07 -7.949999968 1.4499999993 1.5059210057e-07 -7.949999968 1.5 -5.7515558183e-07 
-7.8999999672 1.4499999993 1.523037696e-07 -7.8999999672 1.5 -5.816657449e-07 -7.8499999665 1.4499999993 1.5408728871e-07 
-7.8499999665 1.5 -5.8836599237e-07 -7.7999999657 1.4499999993 1.5581805712e-07 -7.7999999657 1.5 -5.9524904827e-07 
-7.749999965 1.4499999993 1.5775800932e-07 -7.749999965 1.5 -6.024022241e-07 -7.6999999642 1.4499999993 1.5962520195e-07 
-7.6999999642 1.5 -6.0980642047e-07 -7.6499999635 1.4499999993 1.615733396e-07 -7.6499999635 1.5 -6.1740433921e-07 
-7.5999999627 1.4499999993 1.6366426792e-07 -7.5999999627 1.5 -6.2521780819e-07 -7.549999962 1.4499999993 1.6573154937e-07 
-7.549999962 1.5 -6.3326075406e-07 -7.4999999613 1.4499999993 1.6792979807e-07 -7.4999999613 1.5 -6.4163509705e-07 
-7.4499999605 1.4499999993 1.7021626775e-07 -7.4499999605 1.5 -6.5012886807e-07 -7.3999999598 1.4499999993 1.7251910833e-07 
-7.3999999598 1.5 -6.58982799e-07 -7.349999959 1.4499999993 1.7488652304e-07 -7.349999959 1.5 -6.6811685429e-07 
-7.2999999583 1.4499999993 1.7737762903e-07 -7.2999999583 1.5 -6.7762744038e-07 -7.2499999575 1.4499999993 1.7987510148e-07 
-7.2499999575 1.5 -6.873235634e-07 -7.1999999568 1.4499999993 1.8252627854e-07 -7.1999999568 1.5 -6.9734073804e-07 
-7.149999956 1.4499999993 1.8526021961e-07 -7.149999956 1.5 -7.0768533078e-07 -7.0999999553 1.4499999993 1.8658262491e-07 
-7.0999999553 1.5 -7.1295403359e-07 -7.0499999546 1.4499999993 1.8945389968e-07 -7.0499999546 1.5 -7.2385614658e-07 
-6.9999999538 1.4499999993 1.9239975302e-07 -6.9999999538 1.5 -7.3503292697e-07 -6.9499999531 1.4499999993 1.9542018492e-07 
-6.9499999531 1.5 -7.4662807492e-07 -6.8999999523 1.4499999993 1.9858795497e-07 -6.8999999523 1.5 -7.5860521065e-07 
-6.8499999516 1.4499999993 2.0181666116e-07 -6.8499999516 1.5 -7.7095160123e-07 -6.7999999508 1.4499999993 2.0516542065e-07 
-6.7999999508 1.5 -7.837791145e-07 -6.7499999501 1.4499999993 2.0862695749e-07 -6.7499999501 1.5 -7.9700043898e-07 
-6.6999999493 1.4499999993 2.1218308177e-07 -6.6999999493 1.5 -8.1070106717e-07 -6.6499999486 1.4499999993 2.1583925047e-07 
-6.6499999486 1.5 -8.248237009e-07 -6.5999999478 1.4499999993 2.1971187891e-07 -6.5999999478 1.5 -8.3951294982e-07 
-6.5499999471 1.4499999993 2.2368728025e-07 -6.5499999471 1.5 -8.5461630306e-07 -6.4999999464 1.4499999993 2.2778546338e-07 
-6.4999999464 1.5 -8.7033299678e-07 -6.4499999456 1.4499999993 2.3204917454e-07 -6.4499999456 1.5 -8.866893495e-07 
-6.3999999449 1.4499999993 2.3647477576e-07 -6.3999999449 1.5 -9.0359958449e-07 -6.3499999441 1.4499999993 2.4112136998e-07 
-6.3499999441 1.5 -9.210891676e-07 -6.2999999434 1.4499999993 2.4580799618e-07 -6.2999999434 1.5 -9.3937637757e-07 
-6.2499999426 1.4499999993 2.507656518e-07 -6.2499999426 1.5 -9.5826294455e-07 -6.1999999419 1.4499999993 2.5593521968e-07 
-6.1999999419 1.5 -9.779780612e-07 -6.1499999411 1.4499999993 2.6132670428e-07 -6.1499999411 1.5 -9.9841759038e-07 
-6.0999999404 1.4499999993 2.6687143873e-07 -6.0999999404 1.5 -1.0197097708e-06 -6.0499999397 1.4499999993 2.7268038139e-07 
-6.0499999397 1.5 -1.0419364571e-06 -5.9999999389 1.4499999993 2.7872988539e-07 -5.9999999389 1.5 -1.0650730928e-06 
-5.9499999382 1.4499999993 2.8504905458e-07 -5.9499999382 1.5 -1.0891874354e-06 -5.8999999374 1.4499999993 2.9164243642e-07 
-5.8999999374 1.5 -1.1144335303e-06 -5.8499999367 1.4499999993 2.9856505535e-07 -5.8499999367 1.5 -1.1407671536e-06 
-5.7999999359 1.4499999993 3.0575733945e-07 -5.7999999359 1.5 -1.1683662251e-06 -5.7499999352 1.4499999993 3.1334025152e-07 
-5.7499999352 1.5 -1.1972440461e-06 -5.6999999344 1.4499999993 3.2123102756e-07 -5.6999999344 1.5 -1.2275293102e-06 
-5.6499999337 1.4499999993 3.2958428164e-07 -5.6499999337 1.5 -1.2593243355e-06 -5.5999999329 1.4499999993 3.3830542634e-07 
-5.5999999329 1.5 -1.2927246189e-06 -5.5499999322 1.4499999993 3.4286426853e-07 -5.5499999322 1.5 -1.3100749356e-06 
-5.4999999315 1.4499999993 3.5229300011e-07 -5.4999999315 1.5 -1.3462024526e-06 -5.4499999307 1.4499999993 3.6226970224e-07 
-5.4499999307 1.5 -1.3843152828e-06 -5.39999993 1.4499999993 3.7282620724e-07 -5.39999993 1.5 -1.4245258626e-06 
-5.3499999292 1.4499999993 3.8394250623e-07 -5.3499999292 1.5 -1.4671311419e-06 -5.2999999285 1.4499999993 3.9573956201e-07 
-5.2999999285 1.5 -1.5123061985e-06 -5.2499999277 1.4499999993 4.083242402e-07 -5.2499999277 1.5 -1.5602452095e-06 
-5.199999927 1.4499999993 4.2166789171e-07 -5.199999927 1.5 -1.6113237962e-06 -5.1499999262 1.4499999993 4.359619652e-07 
-5.1499999262 1.5 -1.6657975266e-06 -5.0999999255 1.4499999993 4.5123510972e-07 -5.0999999255 1.5 -1.724088861e-06 
-5.0499999247 1.4499999993 4.6759600991e-07 -5.0499999247 1.5 -1.7866220787e-06 -4.999999924 1.4499999993 4.8519063967e-07 
-4.999999924 1.5 -1.8539178654e-06 -4.9499999233 1.4499999993 5.0421772357e-07 -4.9499999233 1.5 -1.9265178253e-06 
-4.8999999225 1.4499999993 5.2477912504e-07 -4.8999999225 1.5 -2.0050929379e-06 -4.8499999218 1.4499999993 5.4715542319e-07 
-4.8499999218 1.5 -2.0905376914e-06 -4.799999921 1.4499999993 5.716024134e-07 -4.799999921 1.5 -2.1837604436e-06 
-4.7499999203 1.4499999993 5.983772553e-07 -4.7499999203 1.5 -2.2859858291e-06 -4.6999999195 1.4499999993 6.2787398747e-07 
-4.6999999195 1.5 -2.39858241e-06 -4.6499999188 1.4499999993 6.6055508796e-07 -4.6499999188 1.5 -2.523319381e-06 
-4.599999918 1.4499999993 6.9698558036e-07 -4.599999918 1.5 -2.6622569749e-06 -4.5499999173 1.4499999993 7.3782985055e-07 
-4.5499999173 1.5 -2.8180729714e-06 -4.4999999166 1.4499999993 7.8398761616e-07 -4.4999999166 1.5 -2.9940770219e-06 
-4.4499999158 1.4499999993 8.3654617811e-07 -4.4499999158 1.5 -3.1944391594e-06 -4.3999999151 1.4499999993 8.9692866823e-07 
-4.3999999151 1.5 -3.4245747429e-06 -4.3499999143 1.4499999993 9.6698613561e-07 -4.3499999143 1.5 -3.6914882457e-06 
-4.2999999136 1.4499999993 1.0492428828e-06 -4.2999999136 1.5 -4.0044587877e-06 -4.2499999128 1.4499999993 1.1469021501e-06 
-4.2499999128 1.5 -4.3760551307e-06 -4.1999999121 1.4499999993 1.264614184e-06 -4.1999999121 1.5 -4.8233941925e-06 
-4.1499999113 1.4499999993 1.4087047475e-06 -4.1499999113 1.5 -5.3704866332e-06 -4.0999999106 1.4499999993 1.5884165805e-06 
-4.0999999106 1.5 -6.0518841565e-06 -4.0499999098 1.4499999993 1.8173982426e-06 -4.0499999098 1.5 -6.9186639848e-06 
-3.9999999091 1.4499999993 2.1167159048e-06 -3.9999999091 1.5 -8.0490499386e-06 -3.9499999084 1.4499999993 2.3025834253e-06 
[...]
CELL_DATA 9510
FIELD FieldData 4
Water_Depth_m 1 9510 float
0.584001 0.584002 0.584003 0.584005 0.584006 0.584007 0.584008 0.584009 0.58401 
0.584011 0.584013 0.584014 0.584015 0.584016 0.584017 0.584018 0.58402 0.584021 
0.584022 0.584023 0.584024 0.584025 0.584027 0.584028 0.584029 0.58403 0.584031 
0.584032 0.584034 0.584035 0.584036 0.584037 0.584038 0.584039 0.584041 0.584042 
0.584043 0.584044 0.584045 0.584046 0.584048 0.584049 0.58405 0.584051 0.584052 
0.584054 0.584055 0.584056 0.584057 0.584058 0.584059 0.58406 0.584062 0.584063 
0.584064 0.584065 0.584066 0.584068 0.584069 0.58407 0.584071 0.584072 0.584073 
0.584075 0.584076 0.584077 0.584078 0.584079 0.584081 0.584082 0.584083 0.584084 
0.584085 0.584086 0.584088 0.584089 0.58409 0.584091 0.584092 0.584094 0.584095 
0.584096 0.584097 0.584098 0.5841 0.584101 0.584102 0.584103 0.584105 0.584106 
0.584107 0.584108 0.58411 0.584111 0.584112 0.584113 0.584115 0.584116 0.584117 
0.584119 0.58412 0.584122 0.584123 0.584124 0.584126 0.584127 0.584129 0.58413 
0.584132 0.584134 0.584135 0.584137 0.584139 0.584141 0.584143 0.584145 0.584147 
0.584149 0.584151 0.584154 0.584157 0.58416 0.584163 0.584167 0.584172 0.584178 
0.584186 0.584199 0.584224 0.584303 0.584551 0.584406 0.57781 0.561683 0.538086 
0.508967 0.475797 0.439824 0.40218 0.363975 0.327167 0.291795 0.258969 0.230118 
0.207013 0.191612 0.183507 0.181716 0.185626 0.191172 0.197268 0.201796 0.205235 
0.209253 0.216673 0.225808 0.233198 0.237756 0.240061 0.241955 0.242553 0.239631 
0.233975 0.23347 0.234139 0.237356 0.240898 0.244603 0.247798 0.251402 0.254834 
0.257356 0.260754 0.263425 0.265881 0.269071 0.271019 0.27248 0.273138 0.274361 
0.280023 0.287807 0.292442 0.297196 0.297711 0.306194 0.315302 0.325104 0.340181 
0.360292 0.383902 0.408063 0.444435 0.473661 0.497655 0.52611 0.54474 0.556779 
0.623895 0.585888 0.526259 0.502256 0.480668 0.439033 0.404501 0.371825 0.368852 
0.368848 0.368845 0.368848 0.368853 0.36886 0.368866 0.368871 0.368876 0.368882 
0.368887 0.368892 0.368898 0.368903 0.368908 0.368914 0.368919 0.368924 0.368929 
0.368935 0.36894 0.368946 0.368951 0.368956 0.368962 0.368967 0.368973 0.368978 
0.368984 0.368989 0.368995 0.369 0.369006 0.369011 0.369017 0.369022 0.369028 
0.369033 0.369039 0.369044 0.36905 0.369055 0.369061 0.369066 0.369072 0.369078 
0.369083 0.369089 0.369094 0.3691 0.369105 0.369111 0.369116 0.369122 0.369127 
0.369133 0.369139 0.369144 0.36915 0.369155 0.369161 0.369166 0.369172 0.369178 
0.369183 0.369189 0.369194 0.3692 0.369205 0.369211 0.369217 0.369222 0.369228 
0.369233 0.369239 0.369244 0.36925 0.369256 0.369261 0.369267 0.369272 0.369278 
0.369284 0.369289 0.369295 0.3693 0.369306 0.368999 0.36335 0.584001 0.584002 
0.584003 0.584004 0.584005 0.584006 0.584008 0.584009 0.58401 0.584011 0.584012 
0.584013 0.584015 0.584016 0.584017 0.584018 0.584019 0.58402 0.584022 0.584023 
0.584024 0.584025 0.584026 0.584027 0.584028 0.58403 0.584031 0.584032 0.584033 
0.584034 0.584035 0.584037 0.584038 0.584039 0.58404 0.584041 0.584042 0.584044 
0.584045 0.584046 0.584047 0.584048 0.584049 0.584051 0.584052 0.584053 0.584054 
0.584055 0.584056 0.584058 0.584059 0.58406 0.584061 0.584062 0.584063 0.584065 
0.584066 0.584067 0.584068 0.584069 0.58407 0.584072 0.584073 0.584074 0.584075 
0.584076 0.584077 0.584079 0.58408 0.584081 0.584082 0.584083 0.584084 0.584086 
0.584087 0.584088 0.584089 0.58409 0.584091 0.584093 0.584094 0.584095 0.584096 
0.584097 0.584099 0.5841 0.584101 0.584102 0.584103 0.584105 0.584106 0.584107 
0.584108 0.58411 0.584111 0.584112 0.584113 0.584115 0.584116 0.584117 0.584118 
0.58412 0.584121 0.584122 0.584124 0.584125 0.584127 0.584128 0.58413 0.584131 
0.584133 0.584134 0.584136 0.584137 0.584139 0.584141 0.584143 0.584144 0.584146 
0.584148 0.58415 0.584152 0.584155 0.584157 0.584159 0.584162 0.584164 0.584167 
0.58417 0.584175 0.584218 0.584155 0.578257 0.563006 0.540018 0.511085 0.477748 
0.441349 0.40311 0.364201 0.32623 0.290086 0.256754 0.227715 0.205004 0.189379 
0.181082 0.180182 0.184978 0.191952 0.199095 0.204226 0.208244 0.214484 0.220755 
0.228283 0.232072 0.237429 0.240304 0.240721 0.240514 0.23786 0.233227 0.232585 
0.235069 0.238706 0.242206 0.244453 0.247247 0.25046 0.254055 0.256819 0.259858 
0.262562 0.265355 0.268598 0.271034 0.273043 0.274592 0.277323 0.282915 0.290371 
0.293892 0.302693 0.304965 0.31117 0.3194 0.328663 0.339789 0.353708 0.379936 
0.411035 0.448487 0.485941 0.511952 0.539695 0.549906 0.555325 0.623597 0.585816 
0.526585 0.502249 0.480518 0.438922 0.404593 0.372398 0.368874 0.36886 0.368848 
0.368849 0.368852 0.368857 0.368862 0.368867 0.368872 0.368877 0.368883 0.368888 
0.368893 0.368899 0.368904 0.36891 0.368915 0.368921 0.368926 0.368932 0.368937 
0.368943 0.368948 0.368954 0.368959 0.368965 0.36897 0.368976 0.368981 0.368987 
0.368992 0.368998 0.369004 0.369009 0.369015 0.36902 0.369026 0.369031 0.369037 
0.369043 0.369048 0.369054 0.369059 0.369065 0.36907 0.369076 0.369082 0.369087 
0.369093 0.369098 0.369104 0.369109 0.369115 0.369121 0.369126 0.369132 0.369137 
0.369143 0.369149 0.369154 0.36916 0.369165 0.369171 0.369176 0.369182 0.369188 
0.369193 0.369199 0.369204 0.36921 0.369215 0.369221 0.369227 0.369232 0.369238 
0.369243 0.369249 0.369254 0.36926 0.369266 0.369271 0.369277 0.369282 0.369288 
0.369293 0.369299 0.369304 0.368997 0.363346 0.584001 0.584002 0.584003 0.584004 
0.584005 0.584006 0.584008 0.584009 0.58401 0.584011 0.584012 0.584013 0.584015 
0.584016 0.584017 0.584018 0.584019 0.58402 0.584022 0.584023 0.584024 0.584025 
0.584026 0.584027 0.584029 0.58403 0.584031 0.584032 0.584033 0.584034 0.584036 
0.584037 0.584038 0.584039 0.58404 0.584041 0.584042 0.584044 0.584045 0.584046 
0.584047 0.584048 0.584049 0.584051 0.584052 0.584053 0.584054 0.584055 0.584056 
0.584058 0.584059 0.58406 0.584061 0.584062 0.584063 0.584065 0.584066 0.584067 
0.584068 0.584069 0.58407 0.584072 0.584073 0.584074 0.584075 0.584076 0.584077 
0.584079 0.58408 0.584081 0.584082 0.584083 0.584084 0.584086 0.584087 0.584088 
0.584089 0.58409 0.584091 0.584093 0.584094 0.584095 0.584096 0.584097 0.584099 
0.5841 0.584101 0.584102 0.584103 0.584105 0.584106 0.584107 0.584108 0.58411 
0.584111 0.584112 0.584113 0.584115 0.584116 0.584117 0.584118 0.58412 0.584121 
0.584122 0.584124 0.584125 0.584127 0.584128 0.58413 0.584131 0.584133 0.584134 
0.584136 0.584137 0.584139 0.584141 0.584143 0.584144 0.584146 0.584148 0.58415 
0.584153 0.584155 0.584157 0.58416 0.584162 0.584165 0.584168 0.584173 0.584183 
0.584283 0.584156 0.578456 0.563679 0.54118 0.512546 0.47927 0.442713 0.404143 
0.364773 0.325793 0.289025 0.25532 0.226131 0.20475 0.188248 0.179504 0.179297 
0.184843 0.192317 0.200139 0.205786 0.210004 0.215188 0.220655 0.226546 0.229084 
0.23294 0.236229 0.2362 0.232195 0.22856 0.228912 0.230658 0.234236 0.238412 
0.242348 0.244275 0.245614 0.247999 0.25089 0.254145 0.257557 0.260138 0.263101 
0.266172 0.269156 0.272024 0.274603 0.277559 0.282705 0.289988 0.295436 0.300179 
0.305036 0.310497 0.317373 0.327919 0.33714 0.351718 0.384123 0.422748 0.450448 
0.490607 0.525731 0.547939 0.556079 0.558036 0.62364 0.585599 0.526253 0.502257 
0.480506 0.438884 0.404501 0.372187 0.368834 0.368838 0.368842 0.368846 0.368851 
0.368857 0.368862 0.368867 0.368872 0.368878 0.368883 0.368888 0.368894 0.368899 
0.368904 0.36891 0.368915 0.368921 0.368926 0.368932 0.368937 0.368943 0.368948 
0.368954 0.368959 0.368965 0.36897 0.368976 0.368981 0.368987 0.368993 0.368998 
0.369004 0.369009 0.369015 0.36902 0.369026 0.369031 0.369037 0.369043 0.369048 
0.369054 0.369059 0.369065 0.369071 0.369076 0.369082 0.369087 0.369093 0.369098 
0.369104 0.36911 0.369115 0.369121 0.369126 0.369132 0.369137 0.369143 0.369149 
0.369154 0.36916 0.369165 0.369171 0.369176 0.369182 0.369188 0.369193 0.369199 
0.369204 0.36921 0.369216 0.369221 0.369227 0.369232 0.369238 0.369243 0.369249 
0.369255 0.36926 0.369266 0.369271 0.369277 0.369282 0.369288 0.369294 0.369299 
0.369304 0.368997 0.363347 0.584001 0.584002 0.584003 0.584004 0.584005 0.584006 
0.584008 0.584009 0.58401 0.584011 0.584012 0.584013 0.584015 0.584016 0.584017 
0.584018 0.584019 0.58402 0.584022 0.584023 0.584024 0.584025 0.584026 0.584027 
0.584028 0.58403 0.584031 0.584032 0.584033 0.584034 0.584035 0.584037 0.584038 
0.584039 0.58404 0.584041 0.584042 0.584044 0.584045 0.584046 0.584047 0.584048 
0.584049 0.584051 0.584052 0.584053 0.584054 0.584055 0.584056 0.584058 0.584059 
0.58406 0.584061 0.584062 0.584063 0.584065 0.584066 0.584067 0.584068 0.584069 
0.58407 0.584072 0.584073 0.584074 0.584075 0.584076 0.584077 0.584079 0.58408 
0.584081 0.584082 0.584083 0.584084 0.584086 0.584087 0.584088 0.584089 0.58409 
0.584091 0.584093 0.584094 0.584095 0.584096 0.584097 0.584099 0.5841 0.584101 
0.584102 0.584103 0.584105 0.584106 0.584107 0.584108 0.584109 0.584111 0.584112 
0.584113 0.584114 0.584116 0.584117 0.584118 0.58412 0.584121 0.584122 0.584124 
0.584125 0.584126 0.584128 0.584129 0.584131 0.584132 0.584134 0.584135 0.584137 
0.584139 0.58414 0.584142 0.584144 0.584146 0.584148 0.58415 0.584152 0.584154 
0.584156 0.584159 0.584161 0.584163 0.584166 0.584169 0.584172 0.584264 0.584154 
0.578568 0.564095 0.541984 0.513688 0.480619 0.444116 0.405448 0.365837 0.326466 
0.288555 0.254284 0.225181 0.203666 0.187604 0.178359 0.178706 0.184741 0.192344 
0.199987 0.205764 0.210397 0.214746 0.218157 0.219167 0.22244 0.225424 0.226969 
0.227103 0.226515 0.226212 0.226902 0.228128 0.230126 0.235221 0.239685 0.242192 
0.243823 0.246607 0.249383 0.25239 0.255989 0.258649 0.261334 0.264064 0.264971 
0.267094 0.270412 0.273461 0.277529 0.2837 0.29138 0.291267 0.294965 0.29887 
0.302247 0.316986 0.32785 0.350949 0.383637 0.421701 0.449003 0.489293 0.524466 
0.548281 0.559378 0.561019 0.623684 0.585596 0.526251 0.502257 0.480507 0.438882 
0.404503 0.372223 0.368835 0.368839 0.368842 0.368846 0.368851 0.368856 0.368861 
0.368867 0.368872 0.368877 0.368882 0.368888 0.368893 0.368899 0.368904 0.36891 
0.368915 0.36892 0.368926 0.368931 0.368937 0.368942 0.368948 0.368953 0.368959 
0.368965 0.36897 0.368976 0.368981 0.368987 0.368992 0.368998 0.369004 0.369009 
0.369015 0.36902 0.369026 0.369031 0.369037 0.369042 0.369048 0.369054 0.369059 
0.369065 0.36907 0.369076 0.369082 0.369087 0.369093 0.369098 0.369104 0.369109 
0.369115 0.369121 0.369126 0.369132 0.369137 0.369143 0.369148 0.369154 0.36916 
0.369165 0.369171 0.369176 0.369182 0.369188 0.369193 0.369199 0.369204 0.36921 
0.369215 0.369221 0.369227 0.369232 0.369238 0.369243 0.369249 0.369254 0.36926 
0.369266 0.369271 0.369277 0.369282 0.369288 0.369293 0.369299 0.369304 0.368997 
0.363346 0.584001 0.584002 0.584003 0.584004 0.584005 0.584006 0.584008 0.584009 
0.58401 0.584011 0.584012 0.584013 0.584015 0.584016 0.584017 0.584018 0.584019 
0.58402 0.584022 0.584023 0.584024 0.584025 0.584026 0.584027 0.584028 0.58403 
0.584031 0.584032 0.584033 0.584034 0.584035 0.584037 0.584038 0.584039 0.58404 
0.584041 0.584042 0.584044 0.584045 0.584046 0.584047 0.584048 0.584049 0.584051 
0.584052 0.584053 0.584054 0.584055 0.584056 0.584058 0.584059 0.58406 0.584061 
0.584062 0.584063 0.584065 0.584066 0.584067 0.584068 0.584069 0.58407 0.584072 
0.584073 0.584074 0.584075 0.584076 0.584077 0.584079 0.58408 0.584081 0.584082 
0.584083 0.584084 0.584086 0.584087 0.584088 0.584089 0.58409 0.584091 0.584093 
0.584094 0.584095 0.584096 0.584097 0.584099 0.5841 0.584101 0.584102 0.584103 
0.584104 0.584106 0.584107 0.584108 0.584109 0.584111 0.584112 0.584113 0.584114 
0.584116 0.584117 0.584118 0.58412 0.584121 0.584122 0.584124 0.584125 0.584126 
0.584128 0.584129 0.584131 0.584132 0.584134 0.584135 0.584137 0.584139 0.58414 
0.584142 0.584144 0.584146 0.584148 0.58415 0.584152 0.584154 0.584156 0.584158 
0.584161 0.584163 0.584166 0.584169 0.584174 0.584267 0.584155 0.578659 0.564433 
0.542678 0.514759 0.482017 0.445752 0.407212 0.367607 0.328097 0.28984 0.254078 
0.222857 0.198266 0.183237 0.17652 0.178712 0.184835 0.192107 0.198958 0.204348 
0.208603 0.210617 0.212658 0.215747 0.216906 0.219566 0.222532 0.223349 0.224162 
0.225292 0.226195 0.227329 0.229873 0.236399 0.242391 0.245154 0.247033 0.250044 
0.252868 0.25525 0.258469 0.260569 0.261943 0.263117 0.2652 0.267816 0.270739 
0.272173 0.273933 0.276558 0.281996 0.290401 0.292816 0.29516 0.306896 0.3175 
0.328745 0.360677 0.383644 0.418068 0.458729 0.48666 0.516105 0.54512 0.556931 
0.558035 0.623733 0.585809 0.52653 0.502243 0.480514 0.43891 0.40458 0.372258 
0.368831 0.368836 0.368841 0.368846 0.368851 0.368856 0.368861 0.368866 0.368872 
0.368877 0.368882 0.368888 0.368893 0.368899 0.368904 0.368909 0.368915 0.36892 
0.368926 0.368931 0.368937 0.368942 0.368948 0.368953 0.368959 0.368965 0.36897 
0.368976 0.368981 0.368987 0.368992 0.368998 0.369004 0.369009 0.369015 0.36902 
0.369026 0.369031 0.369037 0.369042 0.369048 0.369054 0.369059 0.369065 0.36907 
0.369076 0.369082 0.369087 0.369093 0.369098 0.369104 0.369109 0.369115 0.369121 
0.369126 0.369132 0.369137 0.369143 0.369148 0.369154 0.36916 0.369165 0.369171 
0.369176 0.369182 0.369188 0.369193 0.369199 0.369204 0.36921 0.369215 0.369221 
0.369227 0.369232 0.369238 0.369243 0.369249 0.369254 0.36926 0.369266 0.369271 
0.369277 0.369282 0.369288 0.369293 0.369299 0.369304 0.368997 0.363346 0.584001 
0.584002 0.584003 0.584004 0.584005 0.584006 0.584008 0.584009 0.58401 0.584011 
0.584012 0.584013 0.584015 0.584016 0.584017 0.584018 0.584019 0.58402 0.584022 
0.584023 0.584024 0.584025 0.584026 0.584027 0.584028 0.58403 0.584031 0.584032 
0.584033 0.584034 0.584035 0.584037 0.584038 0.584039 0.58404 0.584041 0.584042 
0.584044 0.584045 0.584046 0.584047 0.584048 0.584049 0.584051 0.584052 0.584053 
0.584054 0.584055 0.584056 0.584058 0.584059 0.58406 0.584061 0.584062 0.584063 
0.584065 0.584066 0.584067 0.584068 0.584069 0.58407 0.584072 0.584073 0.584074 
0.584075 0.584076 0.584077 0.584079 0.58408 0.584081 0.584082 0.584083 0.584084 
0.584086 0.584087 0.584088 0.584089 0.58409 0.584091 0.584093 0.584094 0.584095 
0.584096 0.584097 0.584099 0.5841 0.584101 0.584102 0.584103 0.584104 0.584106 
0.584107 0.584108 0.584109 0.584111 0.584112 0.584113 0.584114 0.584116 0.584117 
0.584118 0.584119 0.584121 0.584122 0.584123 0.584125 0.584126 0.584128 0.584129 
0.584131 0.584132 0.584134 0.584135 0.584137 0.584138 0.58414 0.584142 0.584143 
0.584145 0.584147 0.584149 0.584151 0.584153 0.584155 0.584158 0.58416 0.584163 
0.584166 0.584169 0.584174 0.584267 0.584157 0.578753 0.564779 0.543398 0.515918 
0.483624 0.447771 0.409584 0.370261 0.330962 0.292847 0.25713 0.225305 0.199636 
0.18453 0.17855 0.180449 0.18582 0.192184 0.198923 0.202827 0.203624 0.205035 
0.207103 0.210935 0.21301 0.215296 0.216149 0.217309 0.219238 0.223736 0.227032 
0.229804 0.232209 0.237897 0.24309 0.245829 0.247697 0.250056 0.252955 0.255492 
0.258448 0.263468 0.266678 0.269059 0.271802 0.274428 0.277569 0.281097 0.285505 
0.294416 0.30757 0.308345 0.321492 0.325394 0.325748 0.337947 0.34752 0.358148 
0.382449 0.413722 0.452794 0.480806 0.510205 0.534555 0.541029 0.542324 0.62378 
0.585809 0.526536 0.502242 0.480513 0.438909 0.404578 0.372262 0.368831 0.368836 
0.36884 0.368845 0.36885 0.368856 0.368861 0.368866 0.368871 0.368877 0.368882 
0.368888 0.368893 0.368898 0.368904 0.368909 0.368915 0.36892 0.368926 0.368931 
0.368937 0.368942 0.368948 0.368953 0.368959 0.368965 0.36897 0.368976 0.368981 
0.368987 0.368992 0.368998 0.369003 0.369009 0.369015 0.36902 0.369026 0.369031 
0.369037 0.369042 0.369048 0.369054 0.369059 0.369065 0.36907 0.369076 0.369082 
0.369087 0.369093 0.369098 0.369104 0.369109 0.369115 0.369121 0.369126 0.369132 
0.369137 0.369143 0.369148 0.369154 0.36916 0.369165 0.369171 0.369176 0.369182 
0.369188 0.369193 0.369199 0.369204 0.36921 0.369215 0.369221 0.369227 0.369232 
0.369238 0.369243 0.369249 0.369254 0.36926 0.369266 0.369271 0.369277 0.369282 
0.369288 0.369293 0.369299 0.369304 0.368997 0.363346 0.584001 0.584002 0.584003 
0.584004 0.584005 0.584006 0.584008 0.584009 0.58401 0.584011 0.584012 0.584013 
0.584015 0.584016 0.584017 0.584018 0.584019 0.58402 0.584022 0.584023 0.584024 
0.584025 0.584026 0.584027 0.584028 0.58403 0.584031 0.584032 0.584033 0.584034 
0.584035 0.584037 0.584038 0.584039 0.58404 0.584041 0.584042 0.584044 0.584045 
0.584046 0.584047 0.584048 0.584049 0.584051 0.584052 0.584053 0.584054 0.584055 
0.584056 0.584058 0.584059 0.58406 0.584061 0.584062 0.584063 0.584065 0.584066 
0.584067 0.584068 0.584069 0.58407 0.584072 0.584073 0.584074 0.584075 0.584076 
0.584077 0.584079 0.58408 0.584081 0.584082 0.584083 0.584084 0.584086 0.584087 
0.584088 0.584089 0.58409 0.584091 0.584093 0.584094 0.584095 0.584096 0.584097 
0.584099 0.5841 0.584101 0.584102 0.584103 0.584104 0.584106 0.584107 0.584108 
0.584109 0.584111 0.584112 0.584113 0.584114 0.584116 0.584117 0.584118 0.584119 
0.584121 0.584122 0.584123 0.584125 0.584126 0.584127 0.584129 0.58413 0.584132 
0.584133 0.584135 0.584136 0.584138 0.58414 0.584141 0.584143 0.584145 0.584147 
0.584149 0.584151 0.584153 0.584155 0.584157 0.58416 0.584163 0.584165 0.584169 
0.584174 0.584266 0.584158 0.578863 0.565171 0.544215 0.517255 0.485529 0.450256 
0.412635 0.373857 0.335103 0.297627 0.262826 0.23237 0.208202 0.192513 0.184722 
0.183792 0.187845 0.192882 0.197975 0.201492 0.203244 0.204621 0.206725 0.210361 
0.212576 0.214482 0.215323 0.215452 0.218107 0.223165 0.226457 0.22922 0.232183 
0.238203 0.243512 0.246052 0.247855 0.249749 0.251213 0.255152 0.261243 0.263749 
0.267497 0.27216 0.27415 0.276429 0.280956 0.287743 0.292554 0.298557 0.307961 
0.31141 0.322553 0.328365 0.329529 0.341279 0.357775 0.358824 0.373514 0.396132 
0.430685 0.462967 0.492176 0.516705 0.529994 0.539542 0.623828 0.585806 0.526528 
0.502239 0.480514 0.438908 0.404575 0.372258 0.36883 0.368835 0.368839 0.368845 
0.36885 0.368855 0.36886 0.368866 0.368871 0.368877 0.368882 0.368887 0.368893 
0.368898 0.368904 0.368909 0.368915 0.36892 0.368926 0.368931 0.368937 0.368942 
0.368948 0.368953 0.368959 0.368965 0.36897 0.368976 0.368981 0.368987 0.368992 
0.368998 0.369003 0.369009 0.369015 0.36902 0.369026 0.369031 0.369037 0.369042 
0.369048 0.369054 0.369059 0.369065 0.36907 0.369076 0.369082 0.369087 0.369093 
0.369098 0.369104 0.369109 0.369115 0.369121 0.369126 0.369132 0.369137 0.369143 
0.369148 0.369154 0.36916 0.369165 0.369171 0.369176 0.369182 0.369188 0.369193 
0.369199 0.369204 0.36921 0.369215 0.369221 0.369227 0.369232 0.369238 0.369243 
0.369249 0.369254 0.36926 0.369266 0.369271 0.369277 0.369282 0.369288 0.369293 
0.369299 0.369304 0.368997 0.363346 0.584001 0.584002 0.584003 0.584004 0.584005 
0.584006 0.584008 0.584009 0.58401 0.584011 0.584012 0.584013 0.584015 0.584016 
0.584017 0.584018 0.584019 0.58402 0.584022 0.584023 0.584024 0.584025 0.584026 
0.584027 0.584029 0.58403 0.584031 0.584032 0.584033 0.584034 0.584036 0.584037 
0.584038 0.584039 0.58404 0.584041 0.584042 0.584044 0.584045 0.584046 0.584047 
0.584048 0.584049 0.584051 0.584052 0.584053 0.584054 0.584055 0.584056 0.584058 
0.584059 0.58406 0.584061 0.584062 0.584063 0.584065 0.584066 0.584067 0.584068 
0.584069 0.58407 0.584072 0.584073 0.584074 0.584075 0.584076 0.584077 0.584079 
0.58408 0.584081 0.584082 0.584083 0.584084 0.584086 0.584087 0.584088 0.584089 
0.58409 0.584091 0.584093 0.584094 0.584095 0.584096 0.584097 0.584098 0.5841 
0.584101 0.584102 0.584103 0.584104 0.584106 0.584107 0.584108 0.584109 0.584111 
0.584112 0.584113 0.584114 0.584116 0.584117 0.584118 0.584119 0.584121 0.584122 
0.584123 0.584125 0.584126 0.584127 0.584129 0.58413 0.584132 0.584133 0.584135 
0.584136 0.584138 0.584139 0.584141 0.584143 0.584144 0.584146 0.584148 0.58415 
0.584152 0.584154 0.584157 0.584159 0.584162 0.584165 0.584168 0.584174 0.584264 
0.584158 0.57899 0.565624 0.545153 0.518797 0.487757 0.453217 0.416349 0.378323 