# vtk DataFile Version 5.1
vtk output
ASCII
DATASET UNSTRUCTURED_GRID
POINTS 10043 double
-10.1 1.4499999993 -1.9274396834e-07 -10.049999999 1.4499999993 -1.0286679952e-07 -10.049999999 1.5 3.682841907e-07 
-9.9999999985 1.4499999993 -6.8151386756e-08 -9.9999999985 1.5 2.5468375497e-07 -9.9499999978 1.4499999993 -5.1095629061e-08 
-9.9499999978 1.5 1.9264986406e-07 -9.899999997 1.4499999993 -4.0350858654e-08 -9.899999997 1.5 1.5276852139e-07 
-9.8499999963 1.4499999993 -3.2863898269e-08 -9.8499999963 1.5 1.2472970923e-07 -9.7999999955 1.4499999993 -2.7287788029e-08 
-9.7999999955 1.5 1.0373583592e-07 -9.7499999948 1.4499999993 -2.2929489418e-08 -9.7499999948 1.5 8.7447695307e-08 
-9.699999994 1.4499999993 -1.9562540032e-08 -9.699999994 1.5 7.4291854446e-08 -9.6499999933 1.4499999993 -1.6707636163e-08 
-9.6499999933 1.5 6.3600744227e-08 -9.5999999925 1.4499999993 -1.4355682865e-08 -9.5999999925 1.5 5.458856478e-08 
-9.5499999918 1.4499999993 -1.2282944439e-08 -9.5499999918 1.5 4.6846036383e-08 -9.4999999911 1.4499999993 -1.0586736821e-08 
-9.4999999911 1.5 4.032859735e-08 -9.4499999903 1.4499999993 -9.0751566262e-09 -9.4499999903 1.5 3.459696174e-08 
-9.3999999896 1.4499999993 -7.8036830331e-09 -9.3999999896 1.5 2.9495604181e-08 -9.3499999888 1.4499999993 -6.5804126592e-09 
-9.3499999888 1.5 2.5005428839e-08 -9.2999999881 1.4499999993 -5.5172133528e-09 -9.2999999881 1.5 2.1062769306e-08 
-9.2499999873 1.4499999993 -4.6013521882e-09 -9.2499999873 1.5 1.7450256351e-08 -9.1999999866 1.4499999993 -3.7318752533e-09 
-9.1999999866 1.5 1.4277029337e-08 -9.1499999858 1.4499999993 -2.9897273546e-09 -9.1499999858 1.5 1.1356641849e-08 
-9.0999999851 1.4499999993 -2.2785024978e-09 -9.0999999851 1.5 8.6863654047e-09 -9.0499999844 1.4499999993 -1.6245758072e-09 
-9.0499999844 1.5 6.2780234344e-09 -8.9999999836 1.4499999993 -1.076150502e-09 -8.9999999836 1.5 4.1143355389e-09 
-8.9499999829 1.4499999993 -5.8411386838e-10 -8.9499999829 1.5 2.0406878409e-09 -8.8999999821 1.4499999993 -2.946753952e-12 
-8.8999999821 1.5 2.1806045858e-10 -8.8499999814 1.4499999993 2.9991498174e-10 -8.8499999814 1.5 -1.558182694e-09 
-8.7999999806 1.4499999993 7.937706048e-10 -8.7999999806 1.5 -3.0870432877e-09 -8.7499999799 1.4499999993 1.1730298954e-09 
-8.7499999799 1.5 -4.5158596862e-09 -8.6999999791 1.4499999993 1.3562930778e-09 -8.6999999791 1.5 -5.2411817109e-09 
-8.6499999784 1.4499999993 1.6878038966e-09 -8.6499999784 1.5 -6.4694543056e-09 -8.5999999776 1.4499999993 2.017495726e-09 
-8.5999999776 1.5 -7.6718063013e-09 -8.5499999769 1.4499999993 2.2867061578e-09 -8.5499999769 1.5 -8.7863920584e-09 
-8.4999999762 1.4499999993 2.5709232521e-09 -8.4999999762 1.5 -9.7677368416e-09 -8.4499999754 1.4499999993 2.786018749e-09 
-8.4499999754 1.5 -1.0780459192e-08 -8.3999999747 1.4499999993 3.0547744334e-09 -8.3999999747 1.5 -1.1589909477e-08 
-8.3499999739 1.4499999993 3.2380376158e-09 -8.3499999739 1.5 -1.232569069e-08 -8.2999999732 1.4499999993 3.4294862505e-09 
-8.2999999732 1.5 -1.3056469683e-08 -8.2499999724 1.4499999993 3.6245728641e-09 -8.2499999724 1.5 -1.367492608e-08 
-8.1999999717 1.4499999993 3.806016835e-09 -8.1999999717 1.5 -1.4250636227e-08 -8.1499999709 1.4499999993 4.0247507549e-09 
-8.1499999709 1.5 -1.4761317502e-08 -8.0999999702 1.4499999993 4.1216114965e-09 -8.0999999702 1.5 -1.5177866075e-08 
-8.0499999695 1.4499999993 4.313969626e-09 -8.0499999695 1.5 -1.5534842746e-08 -7.9999999687 1.4499999993 4.4763144302e-09 
-7.9999999687 1.5 -1.5875903259e-08 -7.949999968 1.4499999993 4.5299746176e-09 -7.949999968 1.5 -1.6161939342e-08 
-7.8999999672 1.4499999993 4.5490740064e-09 -7.8999999672 1.5 -1.6397043723e-08 -7.8499999665 1.4499999993 4.5408885541e-09 
-7.8499999665 1.5 -1.6625326893e-08 -7.7999999657 1.4499999993 4.599096215e-09 -7.7999999657 1.5 -1.6749018172e-08 
-7.749999965 1.4499999993 4.5831800577e-09 -7.749999965 1.5 -1.6788126445e-08 -7.6999999642 1.4499999993 4.6027341938e-09 
-7.6999999642 1.5 -1.6877711673e-08 -7.6499999635 1.4499999993 4.5277008809e-09 -7.6499999635 1.5 -1.6842241379e-08 
-7.5999999627 1.4499999993 4.5613521849e-09 -7.5999999627 1.5 -1.6792219171e-08 -7.549999962 1.4499999993 4.5154227024e-09 
-7.549999962 1.5 -1.6623962651e-08 -7.4999999613 1.4499999993 4.4171972746e-09 -7.4999999613 1.5 -1.6462072594e-08 
-7.4499999605 1.4499999993 4.3344332568e-09 -7.4499999605 1.5 -1.6241974876e-08 -7.3999999598 1.4499999993 4.3207908362e-09 
-7.3999999598 1.5 -1.5926380215e-08 -7.349999959 1.4499999993 4.1920973359e-09 -7.349999959 1.5 -1.5585319701e-08 
-7.2999999583 1.4499999993 4.054763636e-09 -7.2999999583 1.5 -1.5178320822e-08 -7.2499999575 1.4499999993 3.9351650827e-09 
-7.2499999575 1.5 -1.4672187021e-08 -7.1999999568 1.4499999993 3.8173855188e-09 -7.1999999568 1.5 -1.4131492421e-08 
-7.149999956 1.4499999993 3.6345773058e-09 -7.149999956 1.5 -1.3525314202e-08 -7.0999999553 1.4499999993 3.5145240052e-09 
-7.0999999553 1.5 -1.3206536309e-08 -7.0499999546 1.4499999993 3.3578635428e-09 -7.0499999546 1.5 -1.2492355594e-08 
-6.9999999538 1.4499999993 3.1516356191e-09 -6.9999999538 1.5 -1.1725196813e-08 -6.9499999531 1.4499999993 2.9356306275e-09 
-6.9499999531 1.5 -1.0887324819e-08 -6.8999999523 1.4499999993 2.7134865466e-09 -6.8999999523 1.5 -9.9557748712e-09 
-6.8499999516 1.4499999993 2.4031214796e-09 -6.8499999516 1.5 -8.9951210924e-09 -6.7999999508 1.4499999993 2.1652886151e-09 
-6.7999999508 1.5 -7.8900850298e-09 -6.7499999501 1.4499999993 1.825592344e-09 -6.7499999501 1.5 -6.7818657357e-09 
-6.6999999493 1.4499999993 1.5186378821e-09 -6.6999999493 1.5 -5.598385755e-09 -6.6499999486 1.4499999993 1.2082728151e-09 
-6.6499999486 1.5 -4.2648391485e-09 -6.5999999478 1.4499999993 8.3151463492e-10 -6.5999999478 1.5 -2.8767226379e-09 
-6.5499999471 1.4499999993 3.9177394662e-10 -6.5499999471 1.5 -1.3637782015e-09 -6.4999999464 1.4499999993 9.1038288019e-15 
-6.4999999464 1.5 1.9873369617e-10 -6.4499999456 1.4499999993 -4.756566252e-10 -6.4499999456 1.5 1.8958508097e-09 
-6.3999999449 1.4499999993 -9.2881236036e-10 -6.3999999449 1.5 3.6593610364e-09 -6.3499999441 1.4499999993 -1.4147099048e-09 
-6.3499999441 1.5 5.5613416095e-09 -6.2999999434 1.4499999993 -1.9474464263e-09 -6.2999999434 1.5 7.5649584375e-09 
-6.2499999426 1.4499999993 -2.4756354744e-09 -6.2499999426 1.5 9.676805135e-09 -6.1999999419 1.4499999993 -3.070672383e-09 
-6.1999999419 1.5 1.1860501914e-08 -6.1499999411 1.4499999993 -3.6986784746e-09 -6.1499999411 1.5 1.4189717845e-08 
-6.0999999404 1.4499999993 -4.32122782e-09 -6.0999999404 1.5 1.6651265256e-08 -6.0499999397 1.4499999993 -5.0117616723e-09 
-6.0499999397 1.5 1.9185799616e-08 -5.9999999389 1.4499999993 -5.7277613763e-09 -5.9999999389 1.5 2.1850391718e-08 
-5.9499999382 1.4499999993 -6.4330745175e-09 -5.9499999382 1.5 2.4679374988e-08 -5.8999999374 1.4499999993 -7.206145014e-09 
-5.8999999374 1.5 2.7579753592e-08 -5.8499999367 1.4499999993 -8.0013844439e-09 -5.8499999367 1.5 3.0600187273e-08 
-5.7999999359 1.4499999993 -8.8184517466e-09 -5.7999999359 1.5 3.3738057681e-08 -5.7499999352 1.4499999993 -9.7055501413e-09 
-5.7499999352 1.5 3.6996208763e-08 -5.6999999344 1.4499999993 -1.0565250008e-08 -5.6999999344 1.5 4.0378278499e-08 
-5.6499999337 1.4499999993 -1.1469969863e-08 -5.6499999337 1.5 4.3829242458e-08 -5.5999999329 1.4499999993 -1.2400269256e-08 
-5.5999999329 1.5 4.7363652556e-08 -5.5499999322 1.4499999993 -1.2887758416e-08 -5.5499999322 1.5 4.9145466363e-08 
-5.4999999315 1.4499999993 -1.3846024771e-08 -5.4999999315 1.5 5.2783672544e-08 -5.4499999307 1.4499999993 -1.4800766834e-08 
-5.4499999307 1.5 5.6460191189e-08 -5.39999993 1.4499999993 -1.5745049708e-08 -5.39999993 1.5 6.0163081628e-08 
-5.3499999292 1.4499999993 -1.6733556762e-08 -5.3499999292 1.5 6.3804584727e-08 -5.2999999285 1.4499999993 -1.7662719287e-08 
-5.2999999285 1.5 6.7391631831e-08 -5.2499999277 1.4499999993 -1.8555502024e-08 -5.2499999277 1.5 7.0856579271e-08 
-5.199999927 1.4499999993 -1.9419749364e-08 -5.199999927 1.5 7.4098700509e-08 -5.1499999262 1.4499999993 -2.0202142181e-08 
-5.1499999262 1.5 7.7062061621e-08 -5.0999999255 1.4499999993 -2.088994755e-08 -5.0999999255 1.5 7.9613194259e-08 
-5.0499999247 1.4499999993 -2.1406426853e-08 -5.0499999247 1.5 8.1675587182e-08 -4.999999924 1.4499999993 -2.176783731e-08 
-4.999999924 1.5 8.3038237619e-08 -4.9499999233 1.4499999993 -2.1898918234e-08 -4.9499999233 1.5 8.3489460678e-08 
-4.8999999225 1.4499999993 -2.169632829e-08 -4.8999999225 1.5 8.2768004006e-08 -4.8499999218 1.4499999993 -2.1115956983e-08 
-4.8499999218 1.5 8.0561115112e-08 -4.799999921 1.4499999993 -2.0030077152e-08 -4.799999921 1.5 7.6436954544e-08 
-4.7499999203 1.4499999993 -1.8314315398e-08 -4.7499999203 1.5 6.9894220189e-08 -4.6999999195 1.4499999993 -1.5771936646e-08 
-4.6999999195 1.5 6.0288193993e-08 -4.6499999188 1.4499999993 -1.2218768219e-08 -4.6499999188 1.5 4.6741217119e-08 
-4.599999918 1.4499999993 -7.3485946217e-09 -4.599999918 1.5 2.8166377675e-08 -4.5499999173 1.4499999993 -7.9540085629e-10 
-4.5499999173 1.5 3.206716892e-09 -4.4999999166 1.4499999993 7.9327922009e-09 -4.4999999166 1.5 -2.9934529522e-08 
-4.4499999158 1.4499999993 1.9452452094e-08 -4.4499999158 1.5 -7.3709593096e-08 -4.3999999151 1.4499999993 3.4612138933e-08 
-4.3999999151 1.5 -1.3126860665e-07 -4.3499999143 1.4499999993 5.4512963032e-08 -4.3499999143 1.5 -2.0684340996e-07 
-4.2999999136 1.4499999993 8.0724198881e-08 -4.2999999136 1.5 -3.0626426906e-07 -4.2499999128 1.4499999993 1.1535752975e-07 
-4.2499999128 1.5 -4.3754931767e-07 -4.1999999121 1.4499999993 1.6143174264e-07 -4.1999999121 1.5 -6.1200614709e-07 
-4.1499999113 1.4499999993 2.2323975202e-07 -4.1499999113 1.5 -8.4582364934e-07 -4.0999999106 1.4499999993 3.071435799e-07 
-4.0999999106 1.5 -1.162802846e-06 -4.0499999098 1.4499999993 4.2280368007e-07 -4.0499999098 1.5 -1.598946028e-06 
-3.9999999091 1.4499999993 5.8537347059e-07 -3.9999999091 1.5 -2.2104752588e-06 -3.9499999084 1.4499999993 6.9144692816e-07 
[...]
CELL_DATA 9510
FIELD FieldData 4
Water_Depth_m 1 9510 float
0.603 0.603001 0.603002 0.603002 0.603003 0.603004 0.603004 0.603005 0.603005 
0.603006 0.603007 0.603007 0.603008 0.603009 0.603009 0.60301 0.60301 0.603011 
0.603012 0.603012 0.603013 0.603014 0.603014 0.603015 0.603015 0.603016 0.603017 
0.603017 0.603018 0.603019 0.603019 0.60302 0.60302 0.603021 0.603022 0.603022 
0.603023 0.603024 0.603024 0.603025 0.603025 0.603026 0.603027 0.603027 0.603028 
0.603029 0.603029 0.60303 0.603031 0.603031 0.603032 0.603032 0.603033 0.603034 
0.603034 0.603035 0.603036 0.603036 0.603037 0.603037 0.603038 0.603039 0.603039 
0.60304 0.603041 0.603041 0.603042 0.603042 0.603043 0.603044 0.603044 0.603045 
0.603045 0.603046 0.603047 0.603047 0.603048 0.603049 0.603049 0.60305 0.60305 
0.603051 0.603051 0.603052 0.603053 0.603053 0.603054 0.603054 0.603055 0.603055 
0.603056 0.603057 0.603057 0.603058 0.603058 0.603059 0.603059 0.60306 0.60306 
0.60306 0.603061 0.603061 0.603062 0.603062 0.603062 0.603062 0.603063 0.603063 
0.603063 0.603063 0.603063 0.603063 0.603063 0.603062 0.603062 0.603062 0.603061 
0.603061 0.60306 0.603059 0.603058 0.603057 0.603056 0.603055 0.603054 0.603054 
0.603055 0.603059 0.603073 0.60313 0.603329 0.603208 0.597608 0.583923 0.563988 
0.53954 0.51194 0.482377 0.452335 0.42299 0.394871 0.369028 0.346608 0.32896 
0.318009 0.316156 0.316148 0.316143 0.316146 0.316154 0.325705 0.333353 0.332914 
0.327574 0.328804 0.328494 0.301701 0.257942 0.233173 0.231679 0.217444 0.183235 
0.177798 0.182227 0.180679 0.181094 0.186051 0.188034 0.193137 0.198881 0.201302 
0.204398 0.209087 0.215412 0.218835 0.223108 0.228278 0.233848 0.238807 0.241007 
0.247706 0.25532 0.263801 0.266681 0.271041 0.283187 0.29593 0.312589 0.329534 
0.343729 0.357908 0.36742 0.385084 0.393436 0.405262 0.425182 0.449833 0.487664 
0.619275 0.572834 0.535857 0.49298 0.461753 0.425647 0.38763 0.378658 0.378323 
0.367952 0.367655 0.367536 0.367498 0.367481 0.367473 0.367469 0.367467 0.367466 
0.367466 0.367467 0.367468 0.36747 0.367472 0.367474 0.367476 0.367479 0.367481 
0.367484 0.367487 0.36749 0.367493 0.367496 0.367499 0.367502 0.367505 0.367508 
0.367511 0.367515 0.367518 0.367521 0.367524 0.367527 0.367531 0.367534 0.367537 
0.367541 0.367544 0.367547 0.367551 0.367554 0.367557 0.367561 0.367564 0.367568 
0.367571 0.367574 0.367578 0.367581 0.367585 0.367588 0.367591 0.367595 0.367598 
0.367602 0.367605 0.367608 0.367612 0.367615 0.367619 0.367622 0.367626 0.367629 
0.367632 0.367636 0.367639 0.367643 0.367646 0.36765 0.367653 0.367657 0.36766 
0.367663 0.367667 0.36767 0.367674 0.367677 0.367681 0.367684 0.367688 0.367691 
0.367695 0.367698 0.367702 0.367705 0.367709 0.367712 0.363107 0.603001 0.603001 
0.603002 0.603002 0.603003 0.603004 0.603004 0.603005 0.603005 0.603006 0.603007 
0.603007 0.603008 0.603009 0.603009 0.60301 0.60301 0.603011 0.603012 0.603012 
0.603013 0.603014 0.603014 0.603015 0.603015 0.603016 0.603017 0.603017 0.603018 
0.603019 0.603019 0.60302 0.60302 0.603021 0.603022 0.603022 0.603023 0.603024 
0.603024 0.603025 0.603025 0.603026 0.603027 0.603027 0.603028 0.603029 0.603029 
0.60303 0.603031 0.603031 0.603032 0.603032 0.603033 0.603034 0.603034 0.603035 
0.603035 0.603036 0.603037 0.603037 0.603038 0.603039 0.603039 0.60304 0.603041 
0.603041 0.603042 0.603042 0.603043 0.603044 0.603044 0.603045 0.603045 0.603046 
0.603047 0.603047 0.603048 0.603049 0.603049 0.60305 0.60305 0.603051 0.603051 
0.603052 0.603053 0.603053 0.603054 0.603054 0.603055 0.603055 0.603056 0.603057 
0.603057 0.603058 0.603058 0.603059 0.603059 0.60306 0.60306 0.60306 0.603061 
0.603061 0.603062 0.603062 0.603062 0.603062 0.603063 0.603063 0.603063 0.603063 
0.603063 0.603063 0.603063 0.603062 0.603062 0.603062 0.603061 0.60306 0.603059 
0.603058 0.603057 0.603056 0.603054 0.603052 0.60305 0.603047 0.603044 0.603041 
0.603038 0.603036 0.603068 0.603014 0.597923 0.584818 0.565194 0.540691 0.512759 
0.482695 0.451961 0.421786 0.39296 0.366655 0.344181 0.327139 0.317624 0.316178 
0.316162 0.316155 0.316169 0.316175 0.324366 0.331334 0.331017 0.32591 0.323975 
0.322727 0.306276 0.283497 0.262318 0.240071 0.217933 0.183804 0.168755 0.170531 
0.17395 0.176363 0.180199 0.182327 0.187139 0.190949 0.193168 0.19448 0.198399 
0.204076 0.206805 0.209751 0.212065 0.216459 0.22036 0.224813 0.231001 0.242058 
0.25017 0.262209 0.273304 0.285921 0.302569 0.319437 0.334491 0.351385 0.366508 
0.383186 0.398566 0.412753 0.426005 0.441786 0.452355 0.48676 0.613682 0.570174 
0.535388 0.492347 0.456899 0.421601 0.388055 0.379926 0.379429 0.368604 0.367425 
0.367428 0.367429 0.367432 0.367435 0.367438 0.367441 0.367444 0.367447 0.367451 
0.367454 0.367457 0.36746 0.367464 0.367467 0.36747 0.367474 0.367477 0.36748 
0.367484 0.367487 0.36749 0.367494 0.367497 0.367501 0.367504 0.367507 0.367511 
0.367514 0.367518 0.367521 0.367524 0.367528 0.367531 0.367535 0.367538 0.367542 
0.367545 0.367549 0.367552 0.367555 0.367559 0.367562 0.367566 0.367569 0.367573 
0.367576 0.36758 0.367583 0.367586 0.36759 0.367593 0.367597 0.3676 0.367604 
0.367607 0.367611 0.367614 0.367618 0.367621 0.367625 0.367628 0.367631 0.367635 
0.367638 0.367642 0.367645 0.367649 0.367652 0.367656 0.367659 0.367663 0.367666 
0.36767 0.367673 0.367676 0.36768 0.367683 0.367687 0.36769 0.367694 0.367697 
0.367701 0.367704 0.367708 0.367711 0.363104 0.603 0.603001 0.603002 0.603002 
0.603003 0.603003 0.603004 0.603005 0.603005 0.603006 0.603007 0.603007 0.603008 
0.603008 0.603009 0.60301 0.60301 0.603011 0.603012 0.603012 0.603013 0.603014 
0.603014 0.603015 0.603015 0.603016 0.603017 0.603017 0.603018 0.603019 0.603019 
0.60302 0.60302 0.603021 0.603022 0.603022 0.603023 0.603024 0.603024 0.603025 
0.603025 0.603026 0.603027 0.603027 0.603028 0.603029 0.603029 0.60303 0.603031 
0.603031 0.603032 0.603032 0.603033 0.603034 0.603034 0.603035 0.603035 0.603036 
0.603037 0.603037 0.603038 0.603039 0.603039 0.60304 0.603041 0.603041 0.603042 
0.603042 0.603043 0.603044 0.603044 0.603045 0.603045 0.603046 0.603047 0.603047 
0.603048 0.603049 0.603049 0.60305 0.60305 0.603051 0.603051 0.603052 0.603053 
0.603053 0.603054 0.603054 0.603055 0.603055 0.603056 0.603057 0.603057 0.603058 
0.603058 0.603059 0.603059 0.60306 0.60306 0.60306 0.603061 0.603061 0.603062 
0.603062 0.603062 0.603063 0.603063 0.603063 0.603063 0.603063 0.603063 0.603063 
0.603063 0.603063 0.603062 0.603062 0.603061 0.603061 0.60306 0.603059 0.603058 
0.603056 0.603054 0.603053 0.60305 0.603048 0.603045 0.603043 0.60304 0.603042 
0.603122 0.603014 0.598037 0.585194 0.565784 0.541314 0.51323 0.482883 0.451714 
0.421004 0.391773 0.3653 0.343004 0.326507 0.317529 0.316139 0.316137 0.316136 
0.316137 0.316156 0.323485 0.329542 0.329277 0.323892 0.32207 0.321864 0.308997 
0.30251 0.288197 0.257831 0.225679 0.190608 0.16503 0.163685 0.163917 0.164796 
0.167393 0.169068 0.171751 0.174673 0.17654 0.17854 0.181933 0.190213 0.190659 
0.191694 0.199797 0.204809 0.21037 0.221156 0.229637 0.24141 0.249887 0.261554 
0.27298 0.286631 0.302797 0.31943 0.333754 0.351042 0.366366 0.382137 0.398779 
0.414171 0.429437 0.44405 0.458181 0.488974 0.612332 0.556966 0.524695 0.486307 
0.450759 0.419699 0.392018 0.383231 0.382613 0.368335 0.36743 0.367433 0.367432 
0.367434 0.367437 0.367439 0.367442 0.367445 0.367448 0.367451 0.367454 0.367458 
0.367461 0.367464 0.367467 0.367471 0.367474 0.367477 0.367481 0.367484 0.367487 
0.367491 0.367494 0.367497 0.367501 0.367504 0.367507 0.367511 0.367514 0.367518 
0.367521 0.367525 0.367528 0.367531 0.367535 0.367538 0.367542 0.367545 0.367549 
0.367552 0.367555 0.367559 0.367562 0.367566 0.367569 0.367573 0.367576 0.36758 
0.367583 0.367587 0.36759 0.367593 0.367597 0.3676 0.367604 0.367607 0.367611 
0.367614 0.367618 0.367621 0.367625 0.367628 0.367632 0.367635 0.367638 0.367642 
0.367645 0.367649 0.367652 0.367656 0.367659 0.367663 0.367666 0.36767 0.367673 
0.367676 0.36768 0.367683 0.367687 0.36769 0.367694 0.367697 0.367701 0.367704 
0.367708 0.367711 0.363105 0.603 0.603001 0.603002 0.603002 0.603003 0.603003 
0.603004 0.603005 0.603005 0.603006 0.603007 0.603007 0.603008 0.603008 0.603009 
0.60301 0.60301 0.603011 0.603012 0.603012 0.603013 0.603014 0.603014 0.603015 
0.603015 0.603016 0.603017 0.603017 0.603018 0.603019 0.603019 0.60302 0.60302 
0.603021 0.603022 0.603022 0.603023 0.603024 0.603024 0.603025 0.603025 0.603026 
0.603027 0.603027 0.603028 0.603029 0.603029 0.60303 0.60303 0.603031 0.603032 
0.603032 0.603033 0.603034 0.603034 0.603035 0.603035 0.603036 0.603037 0.603037 
0.603038 0.603039 0.603039 0.60304 0.60304 0.603041 0.603042 0.603042 0.603043 
0.603044 0.603044 0.603045 0.603045 0.603046 0.603047 0.603047 0.603048 0.603049 
0.603049 0.60305 0.60305 0.603051 0.603051 0.603052 0.603053 0.603053 0.603054 
0.603054 0.603055 0.603055 0.603056 0.603057 0.603057 0.603058 0.603058 0.603059 
0.603059 0.60306 0.60306 0.603061 0.603061 0.603061 0.603062 0.603062 0.603062 
0.603063 0.603063 0.603063 0.603063 0.603063 0.603063 0.603063 0.603063 0.603063 
0.603063 0.603062 0.603062 0.603061 0.60306 0.603059 0.603058 0.603057 0.603055 
0.603053 0.603051 0.603049 0.603046 0.603042 0.603038 0.603034 0.603109 0.603013 
0.598077 0.585346 0.566052 0.541623 0.513477 0.482986 0.451566 0.420545 0.391108 
0.364601 0.342473 0.326266 0.317513 0.316138 0.316137 0.316138 0.316142 0.316166 
0.321381 0.325208 0.32366 0.318308 0.317103 0.316453 0.311923 0.311669 0.297701 
0.263684 0.23314 0.200429 0.168515 0.160104 0.16155 0.162028 0.16486 0.165737 
0.16762 0.169281 0.174414 0.176864 0.181045 0.193072 0.194647 0.199489 0.206334 
0.210609 0.214366 0.22072 0.228379 0.234665 0.244103 0.261142 0.265009 0.279378 
0.290328 0.305215 0.318117 0.338334 0.354261 0.363926 0.380002 0.397076 0.418116 
0.435246 0.45639 0.489467 0.609786 0.558555 0.520656 0.484484 0.44653 0.417535 
0.391495 0.383202 0.38257 0.368677 0.36742 0.367424 0.367427 0.367431 0.367434 
0.367437 0.36744 0.367444 0.367447 0.36745 0.367453 0.367457 0.36746 0.367463 
0.367467 0.36747 0.367473 0.367477 0.36748 0.367483 0.367487 0.36749 0.367494 
0.367497 0.3675 0.367504 0.367507 0.367511 0.367514 0.367517 0.367521 0.367524 
0.367528 0.367531 0.367535 0.367538 0.367542 0.367545 0.367548 0.367552 0.367555 
0.367559 0.367562 0.367566 0.367569 0.367573 0.367576 0.36758 0.367583 0.367586 
0.36759 0.367593 0.367597 0.3676 0.367604 0.367607 0.367611 0.367614 0.367618 
0.367621 0.367625 0.367628 0.367631 0.367635 0.367638 0.367642 0.367645 0.367649 
0.367652 0.367656 0.367659 0.367663 0.367666 0.36767 0.367673 0.367676 0.36768 
0.367683 0.367687 0.36769 0.367694 0.367697 0.367701 0.367704 0.367708 0.367711 
0.363104 0.603 0.603001 0.603002 0.603002 0.603003 0.603003 0.603004 0.603005 
0.603005 0.603006 0.603007 0.603007 0.603008 0.603008 0.603009 0.60301 0.60301 
0.603011 0.603012 0.603012 0.603013 0.603014 0.603014 0.603015 0.603015 0.603016 
0.603017 0.603017 0.603018 0.603019 0.603019 0.60302 0.60302 0.603021 0.603022 
0.603022 0.603023 0.603024 0.603024 0.603025 0.603025 0.603026 0.603027 0.603027 
0.603028 0.603029 0.603029 0.60303 0.60303 0.603031 0.603032 0.603032 0.603033 
0.603034 0.603034 0.603035 0.603035 0.603036 0.603037 0.603037 0.603038 0.603039 
0.603039 0.60304 0.60304 0.603041 0.603042 0.603042 0.603043 0.603044 0.603044 
0.603045 0.603045 0.603046 0.603047 0.603047 0.603048 0.603049 0.603049 0.60305 
0.60305 0.603051 0.603051 0.603052 0.603053 0.603053 0.603054 0.603054 0.603055 
0.603056 0.603056 0.603057 0.603057 0.603058 0.603058 0.603059 0.603059 0.60306 
0.60306 0.603061 0.603061 0.603061 0.603062 0.603062 0.603062 0.603063 0.603063 
0.603063 0.603063 0.603063 0.603064 0.603064 0.603063 0.603063 0.603063 0.603063 
0.603062 0.603061 0.603061 0.60306 0.603059 0.603058 0.603056 0.603054 0.603052 
0.60305 0.603047 0.603044 0.60304 0.603038 0.603113 0.603015 0.598092 0.585404 
0.566164 0.541763 0.513595 0.483039 0.451487 0.420302 0.39077 0.364271 0.342245 
0.326173 0.3175 0.316131 0.316131 0.316133 0.316141 0.316157 0.318246 0.319833 
0.319018 0.315663 0.313648 0.312277 0.31167 0.311421 0.296832 0.262862 0.232589 
0.199106 0.16805 0.167426 0.17122 0.174344 0.174041 0.177146 0.181165 0.185766 
0.188314 0.191846 0.200005 0.20756 0.210671 0.219354 0.223496 0.233615 0.237449 
0.240023 0.25443 0.263507 0.266584 0.275285 0.286223 0.2895 0.303625 0.310725 
0.311053 0.312471 0.327678 0.336403 0.353951 0.372923 0.396723 0.425816 0.448663 
0.488316 0.608895 0.559075 0.523289 0.490494 0.447576 0.410201 0.386825 0.383598 
0.383018 0.368621 0.367422 0.367426 0.367428 0.367431 0.367434 0.367437 0.36744 
0.367444 0.367447 0.36745 0.367453 0.367457 0.36746 0.367463 0.367467 0.36747 
0.367473 0.367477 0.36748 0.367483 0.367487 0.36749 0.367494 0.367497 0.3675 
0.367504 0.367507 0.367511 0.367514 0.367518 0.367521 0.367524 0.367528 0.367531 
0.367535 0.367538 0.367542 0.367545 0.367548 0.367552 0.367555 0.367559 0.367562 
0.367566 0.367569 0.367573 0.367576 0.36758 0.367583 0.367586 0.36759 0.367593 
0.367597 0.3676 0.367604 0.367607 0.367611 0.367614 0.367618 0.367621 0.367625 
0.367628 0.367631 0.367635 0.367638 0.367642 0.367645 0.367649 0.367652 0.367656 
0.367659 0.367663 0.367666 0.367669 0.367673 0.367676 0.36768 0.367683 0.367687 
0.36769 0.367694 0.367697 0.367701 0.367704 0.367708 0.367711 0.363104 0.603 
0.603001 0.603002 0.603002 0.603003 0.603003 0.603004 0.603005 0.603005 0.603006 
0.603007 0.603007 0.603008 0.603008 0.603009 0.60301 0.60301 0.603011 0.603012 
0.603012 0.603013 0.603014 0.603014 0.603015 0.603015 0.603016 0.603017 0.603017 
0.603018 0.603019 0.603019 0.60302 0.60302 0.603021 0.603022 0.603022 0.603023 
0.603024 0.603024 0.603025 0.603025 0.603026 0.603027 0.603027 0.603028 0.603029 
0.603029 0.60303 0.60303 0.603031 0.603032 0.603032 0.603033 0.603034 0.603034 
0.603035 0.603035 0.603036 0.603037 0.603037 0.603038 0.603039 0.603039 0.60304 
0.60304 0.603041 0.603042 0.603042 0.603043 0.603044 0.603044 0.603045 0.603045 
0.603046 0.603047 0.603047 0.603048 0.603049 0.603049 0.60305 0.60305 0.603051 
0.603051 0.603052 0.603053 0.603053 0.603054 0.603054 0.603055 0.603056 0.603056 
0.603057 0.603057 0.603058 0.603058 0.603059 0.603059 0.60306 0.60306 0.603061 
0.603061 0.603062 0.603062 0.603062 0.603063 0.603063 0.603063 0.603063 0.603064 
0.603064 0.603064 0.603064 0.603064 0.603064 0.603063 0.603063 0.603063 0.603062 
0.603062 0.603061 0.60306 0.603059 0.603057 0.603056 0.603054 0.603052 0.603049 
0.603046 0.603043 0.60304 0.603116 0.603018 0.598097 0.585422 0.566205 0.54182 
0.513647 0.483064 0.45145 0.420188 0.390616 0.364128 0.342153 0.326136 0.317491 
0.316123 0.316123 0.316126 0.316136 0.316157 0.318497 0.320365 0.319448 0.313663 
0.308934 0.306275 0.308291 0.308112 0.292074 0.257129 0.226333 0.189538 0.172878 
0.174129 0.176622 0.180844 0.18395 0.186096 0.190431 0.194409 0.196609 0.206055 
0.209126 0.215789 0.218716 0.223804 0.233126 0.241543 0.251267 0.25467 0.264202 
0.274543 0.282634 0.284063 0.290416 0.298776 0.306345 0.31308 0.319477 0.327589 
0.342178 0.343533 0.354113 0.373063 0.39687 0.425443 0.44977 0.487807 0.605384 
0.556122 0.521759 0.488182 0.446331 0.406255 0.384734 0.384805 0.384178 0.368802 
0.367423 0.367425 0.367428 0.367431 0.367434 0.367437 0.36744 0.367444 0.367447 
0.36745 0.367453 0.367457 0.36746 0.367463 0.367466 0.36747 0.367473 0.367477 
0.36748 0.367483 0.367487 0.36749 0.367493 0.367497 0.3675 0.367504 0.367507 
0.367511 0.367514 0.367517 0.367521 0.367524 0.367528 0.367531 0.367535 0.367538 
0.367542 0.367545 0.367548 0.367552 0.367555 0.367559 0.367562 0.367566 0.367569 
0.367573 0.367576 0.36758 0.367583 0.367586 0.36759 0.367593 0.367597 0.3676 
0.367604 0.367607 0.367611 0.367614 0.367618 0.367621 0.367625 0.367628 0.367631 
0.367635 0.367638 0.367642 0.367645 0.367649 0.367652 0.367656 0.367659 0.367663 
0.367666 0.367669 0.367673 0.367676 0.36768 0.367683 0.367687 0.36769 0.367694 
0.367697 0.367701 0.367704 0.367708 0.367711 0.363104 0.603 0.603001 0.603002 
0.603002 0.603003 0.603003 0.603004 0.603005 0.603005 0.603006 0.603007 0.603007 
0.603008 0.603008 0.603009 0.60301 0.60301 0.603011 0.603012 0.603012 0.603013 
0.603014 0.603014 0.603015 0.603015 0.603016 0.603017 0.603017 0.603018 0.603019 
0.603019 0.60302 0.60302 0.603021 0.603022 0.603022 0.603023 0.603024 0.603024 
0.603025 0.603025 0.603026 0.603027 0.603027 0.603028 0.603029 0.603029 0.60303 
0.60303 0.603031 0.603032 0.603032 0.603033 0.603034 0.603034 0.603035 0.603035 
0.603036 0.603037 0.603037 0.603038 0.603039 0.603039 0.60304 0.603041 0.603041 
0.603042 0.603042 0.603043 0.603044 0.603044 0.603045 0.603045 0.603046 0.603047 
0.603047 0.603048 0.603049 0.603049 0.60305 0.60305 0.603051 0.603052 0.603052 
0.603053 0.603053 0.603054 0.603054 0.603055 0.603056 0.603056 0.603057 0.603057 
0.603058 0.603058 0.603059 0.603059 0.60306 0.60306 0.603061 0.603061 0.603062 
0.603062 0.603063 0.603063 0.603063 0.603063 0.603064 0.603064 0.603064 0.603064 
0.603064 0.603064 0.603064 0.603064 0.603064 0.603064 0.603063 0.603063 0.603062 
0.603061 0.60306 0.603059 0.603057 0.603056 0.603054 0.603052 0.603049 0.603046 
0.603044 0.60312 0.603023 0.598101 0.585426 0.566217 0.541839 0.513668 0.483077 
0.451442 0.420142 0.390555 0.364074 0.342126 0.326127 0.317479 0.316111 0.316112 
0.316115 0.316121 0.31614 0.31923 0.322232 0.322036 0.316383 0.310321 0.306833 
0.305954 0.305542 0.28781 0.250194 0.215789 0.184811 0.182795 0.187374 0.188901 
0.191078 0.196599 0.198358 0.201454 0.205321 0.209332 0.217233 0.219938 0.22405 
0.231134 0.233357 0.242796 0.253763 0.256594 0.264659 0.269446 0.275693 0.285001 
0.28686 0.296118 0.30617 0.308326 0.314306 0.325575 0.330125 0.34152 0.343084 
0.353246 0.371807 0.394552 0.419564 0.454904 0.499438 0.604435 0.563681 0.524513 
0.481846 0.447186 0.408863 0.385236 0.386285 0.385617 0.368896 0.367423 0.367426 
0.367428 0.367431 0.367434 0.367437 0.36744 0.367443 0.367447 0.36745 0.367453 
0.367456 0.36746 0.367463 0.367466 0.36747 0.367473 0.367476 0.36748 0.367483 
0.367487 0.36749 0.367493 0.367497 0.3675 0.367504 0.367507 0.367511 0.367514 
0.367517 0.367521 0.367524 0.367528 0.367531 0.367535 0.367538 0.367542 0.367545 
0.367548 0.367552 0.367555 0.367559 0.367562 0.367566 0.367569 0.367573 0.367576 
0.36758 0.367583 0.367586 0.36759 0.367593 0.367597 0.3676 0.367604 0.367607 
0.367611 0.367614 0.367618 0.367621 0.367625 0.367628 0.367631 0.367635 0.367638 
0.367642 0.367645 0.367649 0.367652 0.367656 0.367659 0.367663 0.367666 0.367669 
0.367673 0.367676 0.36768 0.367683 0.367687 0.36769 0.367694 0.367697 0.367701 
0.367704 0.367708 0.367711 0.363104 0.603 0.603001 0.603002 0.603002 0.603003 
0.603003 0.603004 0.603005 0.603005 0.603006 0.603007 0.603007 0.603008 0.603008 
0.603009 0.60301 0.60301 0.603011 0.603012 0.603012 0.603013 0.603014 0.603014 
0.603015 0.603015 0.603016 0.603017 0.603017 0.603018 0.603019 0.603019 0.60302 
0.60302 0.603021 0.603022 0.603022 0.603023 0.603024 0.603024 0.603025 0.603025 
0.603026 0.603027 0.603027 0.603028 0.603029 0.603029 0.60303 0.603031 0.603031 
0.603032 0.603032 0.603033 0.603034 0.603034 0.603035 0.603036 0.603036 0.603037 
0.603037 0.603038 0.603039 0.603039 0.60304 0.603041 0.603041 0.603042 0.603042 
0.603043 0.603044 0.603044 0.603045 0.603045 0.603046 0.603047 0.603047 0.603048 
0.603049 0.603049 0.60305 0.60305 0.603051 0.603052 0.603052 0.603053 0.603053 
0.603054 0.603055 0.603055 0.603056 0.603056 0.603057 0.603057 0.603058 0.603058 
0.603059 0.603059 0.60306 0.60306 0.603061 0.603061 0.603062 0.603062 0.603063 
0.603063 0.603063 0.603064 0.603064 0.603064 0.603065 0.603065 0.603065 0.603065 
0.603065 0.603065 0.603065 0.603064 0.603064 0.603064 0.603063 0.603063 0.603062 
0.603061 0.603059 0.603058 0.603056 0.603054 0.603052 0.60305 0.603048 0.603126 
0.603029 0.598104 0.585431 0.566221 0.541844 0.513675 0.483084 0.451447 0.42014 
0.39055 0.364073 0.342122 0.326117 0.317465 0.316096 0.316098 0.3161 0.316104 