# vtk DataFile Version 5.1
vtk output
ASCII
DATASET UNSTRUCTURED_GRID
POINTS 10043 double
-10.1 1.4499999993 -2.1070103173e-07 -10.049999999 1.4499999993 -1.1911856035e-07 -10.049999999 1.5 4.3043814912e-07 
-9.9999999985 1.4499999993 -8.3775596238e-08 -9.9999999985 1.5 3.1405920708e-07 -9.9499999978 1.4499999993 -6.6266004239e-08 
-9.9499999978 1.5 2.5035637918e-07 -9.899999997 1.4499999993 -5.5230191975e-08 -9.899999997 1.5 2.0955282309e-07 
-9.8499999963 1.4499999993 -4.7554056692e-08 -9.8499999963 1.5 1.8083798636e-07 -9.7999999955 1.4499999993 -4.1867895817e-08 
-9.7999999955 1.5 1.5949423471e-07 -9.7499999948 1.4499999993 -3.7516873164e-08 -9.7499999948 1.5 1.4295598305e-07 
-9.699999994 1.4499999993 -3.4017137551e-08 -9.699999994 1.5 1.297810428e-07 -9.6499999933 1.4499999993 -3.1265006584e-08 
-9.6499999933 1.5 1.1901625641e-07 -9.5999999925 1.4499999993 -2.8843933464e-08 -9.5999999925 1.5 1.1007592349e-07 
-9.5499999918 1.4499999993 -2.6899433792e-08 -9.5499999918 1.5 1.0257804917e-07 -9.4999999911 1.4499999993 -2.5180488805e-08 
-9.4999999911 1.5 9.6186120402e-08 -9.4499999903 1.4499999993 -2.3807151805e-08 -9.4499999903 1.5 9.070368634e-08 
-9.3999999896 1.4499999993 -2.2492022467e-08 -9.3999999896 1.5 8.6043435488e-08 -9.3499999888 1.4499999993 -2.1549785956e-08 
-9.3499999888 1.5 8.195070933e-08 -9.2999999881 1.4499999993 -2.0540246837e-08 -9.2999999881 1.5 7.8447335738e-08 
-9.2499999873 1.4499999993 -1.9789004213e-08 -9.2499999873 1.5 7.5247733378e-08 -9.1999999866 1.4499999993 -1.891407031e-08 
-9.1999999866 1.5 7.2597678979e-08 -9.1499999858 1.4499999993 -1.8413848224e-08 -9.1499999858 1.5 7.0223684645e-08 
-9.0999999851 1.4499999993 -1.7853599488e-08 -9.0999999851 1.5 6.8106380979e-08 -9.0499999844 1.4499999993 -1.7407947084e-08 
-9.0499999844 1.5 6.6205537053e-08 -8.9999999836 1.4499999993 -1.6925914892e-08 -8.9999999836 1.5 6.4721241699e-08 
-8.9499999829 1.4499999993 -1.6556660043e-08 -8.9499999829 1.5 6.3280602092e-08 -8.8999999821 1.4499999993 -1.6285630622e-08 
-8.8999999821 1.5 6.2025499403e-08 -8.8499999814 1.4499999993 -1.6032791095e-08 -8.8499999814 1.5 6.1065072998e-08 
-8.7999999806 1.4499999993 -1.5769037631e-08 -8.7999999806 1.5 6.0141026381e-08 -8.7499999799 1.4499999993 -1.562169949e-08 
-8.7499999799 1.5 5.9438900024e-08 -8.6999999791 1.4499999993 -1.549800821e-08 -8.6999999791 1.5 5.9169689592e-08 
-8.6499999784 1.4499999993 -1.5474361348e-08 -8.6499999784 1.5 5.8638544687e-08 -8.5999999776 1.4499999993 -1.5290643418e-08 
-8.5999999776 1.5 5.8269289838e-08 -8.5499999769 1.4499999993 -1.5239711715e-08 -8.5499999769 1.5 5.8041916162e-08 
-8.4999999762 1.4499999993 -1.5139667298e-08 -8.4999999762 1.5 5.7867293179e-08 -8.4499999754 1.4499999993 -1.5177866075e-08 
-8.4499999754 1.5 5.7792714614e-08 -8.3999999747 1.4499999993 -1.5170590117e-08 -8.3999999747 1.5 5.7809085519e-08 
-8.3499999739 1.4499999993 -1.5145124266e-08 -8.3499999739 1.5 5.7954604671e-08 -8.2999999732 1.4499999993 -1.5181504054e-08 
-8.2999999732 1.5 5.8236548028e-08 -8.2499999724 1.4499999993 -1.5394325814e-08 -8.2499999724 1.5 5.8603983888e-08 
-8.1999999717 1.4499999993 -1.5403420761e-08 -8.1999999717 1.5 5.8976940664e-08 -8.1499999709 1.4499999993 -1.5668993214e-08 
-8.1499999709 1.5 5.9471641833e-08 -8.0999999702 1.4499999993 -1.5759942684e-08 -8.0999999702 1.5 6.0131931434e-08 
-8.0499999695 1.4499999993 -1.6014601201e-08 -8.0499999695 1.5 6.0714008043e-08 -7.9999999687 1.4499999993 -1.6185586205e-08 
-7.9999999687 1.5 6.1479802582e-08 -7.949999968 1.4499999993 -1.6356571209e-08 -7.949999968 1.5 6.2272881962e-08 
-7.8999999672 1.4499999993 -1.653665116e-08 -7.8999999672 1.5 6.3216937463e-08 -7.8499999665 1.4499999993 -1.6826779969e-08 
-7.8499999665 1.5 6.4253761423e-08 -7.7999999657 1.4499999993 -1.7117818274e-08 -7.7999999657 1.5 6.5393358284e-08 
-7.749999965 1.4499999993 -1.7407947084e-08 -7.749999965 1.5 6.6563877965e-08 -7.6999999642 1.4499999993 -1.7789025364e-08 
-7.6999999642 1.5 6.7835351558e-08 -7.6499999635 1.4499999993 -1.8100982047e-08 -7.6499999635 1.5 6.9121377066e-08 
-7.5999999627 1.4499999993 -1.8465689422e-08 -7.5999999627 1.5 7.0629319282e-08 -7.549999962 1.4499999993 -1.8919527278e-08 
-7.549999962 1.5 7.212467068e-08 -7.4999999613 1.4499999993 -1.937245564e-08 -7.4999999613 1.5 7.3742519646e-08 
-7.4499999605 1.4499999993 -1.9744438973e-08 -7.4499999605 1.5 7.5435998781e-08 -7.3999999598 1.4499999993 -2.0252846511e-08 
-7.3999999598 1.5 7.7240436269e-08 -7.349999959 1.4499999993 -2.0665757106e-08 -7.349999959 1.5 7.9170384026e-08 
-7.2999999583 1.4499999993 -2.1272390072e-08 -7.2999999583 1.5 8.1097603299e-08 -7.2499999575 1.4499999993 -2.1798078009e-08 
-7.2499999575 1.5 8.3190350608e-08 -7.1999999568 1.4499999993 -2.2385611587e-08 -7.1999999568 1.5 8.5406789196e-08 
-7.149999956 1.4499999993 -2.3023167373e-08 -7.149999956 1.5 8.769962534e-08 -7.0999999553 1.4499999993 -2.3301472751e-08 
-7.0999999553 1.5 8.8875601989e-08 -7.0499999546 1.4499999993 -2.3889915823e-08 -7.0499999546 1.5 9.1324871221e-08 
-6.9999999538 1.4499999993 -2.4578403313e-08 -6.9999999538 1.5 9.3878732343e-08 -6.9499999531 1.4499999993 -2.5275076254e-08 
-6.9499999531 1.5 9.6594483523e-08 -6.8999999523 1.4499999993 -2.600358151e-08 -6.8999999523 1.5 9.9355709438e-08 
-6.8499999516 1.4499999993 -2.6782108975e-08 -6.8499999516 1.5 1.0233339509e-07 -6.7999999508 1.4499999993 -2.7596106733e-08 
-6.7999999508 1.5 1.0532563266e-07 -6.7499999501 1.4499999993 -2.8370996219e-08 -6.7499999501 1.5 1.0843792353e-07 
-6.6999999493 1.4499999993 -2.9272305468e-08 -6.6999999493 1.5 1.1173302283e-07 -6.6499999486 1.4499999993 -3.0166336984e-08 
-6.6499999486 1.5 1.151718223e-07 -6.5999999478 1.4499999993 -3.1115849453e-08 -6.5999999478 1.5 1.1873158456e-07 
-6.5499999471 1.4499999993 -3.2104470193e-08 -6.5499999471 1.5 1.2244598224e-07 -6.4999999464 1.4499999993 -3.3069444072e-08 
-6.4999999464 1.5 1.2629949708e-07 -6.4499999456 1.4499999993 -3.4128095905e-08 -6.4499999456 1.5 1.3026671297e-07 
-6.3999999449 1.4499999993 -3.5209485105e-08 -6.3999999449 1.5 1.3439127144e-07 -6.3499999441 1.4499999993 -3.629360279e-08 
-6.3499999441 1.5 1.386904529e-07 -6.2999999434 1.4499999993 -3.7535063058e-08 -6.2999999434 1.5 1.4313060603e-07 
-6.2499999426 1.4499999993 -3.8707401728e-08 -6.2499999426 1.5 1.4773264922e-07 -6.1999999419 1.4499999993 -3.9946133512e-08 
-6.1999999419 1.5 1.5253478125e-07 -6.1499999411 1.4499999993 -4.1259443861e-08 -6.1499999411 1.5 1.5743877668e-07 
-6.0999999404 1.4499999993 -4.2600948547e-08 -6.0999999404 1.5 1.6250193369e-07 -6.0499999397 1.4499999993 -4.3930629801e-08 
-6.0499999397 1.5 1.6777700296e-07 -5.9999999389 1.4499999993 -4.5307604779e-08 -5.9999999389 1.5 1.7320941481e-07 
-5.9499999382 1.4499999993 -4.6796902353e-08 -5.9499999382 1.5 1.7871367675e-07 -5.8999999374 1.4499999993 -4.8291202148e-08 
-5.8999999374 1.5 1.8446786498e-07 -5.8499999367 1.4499999993 -4.9846438088e-08 -5.8499999367 1.5 1.9035066146e-07 
-5.7999999359 1.4499999993 -5.1439418058e-08 -5.7999999359 1.5 1.9635287174e-07 -5.7499999352 1.4499999993 -5.3058773375e-08 
-5.7499999352 1.5 2.0249059673e-07 -5.6999999344 1.4499999993 -5.4661757787e-08 -5.6999999344 1.5 2.0872882089e-07 
-5.6499999337 1.4499999993 -5.6370243584e-08 -5.6499999337 1.5 2.1512302339e-07 -5.5999999329 1.4499999993 -5.802052172e-08 
-5.5999999329 1.5 2.2156906709e-07 -5.5499999322 1.4499999993 -5.8888179666e-08 -5.5499999322 1.5 2.2479423478e-07 
-5.4999999315 1.4499999993 -6.0567110438e-08 -5.4999999315 1.5 2.313188503e-07 -5.4499999307 1.4499999993 -6.2298333603e-08 
-5.4499999307 1.5 2.3778626712e-07 -5.39999993 1.4499999993 -6.396907537e-08 -5.39999993 1.5 2.442677669e-07 
-5.3499999292 1.4499999993 -6.5615715528e-08 -5.3499999292 1.5 2.5060649023e-07 -5.2999999285 1.4499999993 -6.7274633864e-08 
-5.2999999285 1.5 2.5678696147e-07 -5.2499999277 1.4499999993 -6.8788487795e-08 -5.2499999277 1.5 2.6268457987e-07 
-5.199999927 1.4499999993 -7.0209573266e-08 -5.199999927 1.5 2.6822067412e-07 -5.1499999262 1.4499999993 -7.1546530478e-08 
-5.1499999262 1.5 2.7326200325e-07 -5.0999999255 1.4499999993 -7.2701588749e-08 -5.0999999255 1.5 2.7761257115e-07 
-5.0499999247 1.4499999993 -7.3616540419e-08 -5.0499999247 1.5 2.8115050554e-07 -4.999999924 1.4499999993 -7.4270012362e-08 
-4.999999924 1.5 2.8361705517e-07 -4.9499999233 1.4499999993 -7.453649431e-08 -4.9499999233 1.5 2.8467252378e-07 
-4.8999999225 1.4499999993 -7.4355959612e-08 -4.8999999225 1.5 2.8400407359e-07 -4.8499999218 1.4499999993 -7.3602897999e-08 
-4.8499999218 1.5 2.8115687201e-07 -4.799999921 1.4499999993 -7.2127242845e-08 -4.799999921 1.5 2.7559713089e-07 
-4.7499999203 1.4499999993 -6.9775289546e-08 -4.7499999203 1.5 2.6659995456e-07 -4.6999999195 1.4499999993 -6.6284194133e-08 
-4.6999999195 1.5 2.5336498766e-07 -4.6499999188 1.4499999993 -6.1390203143e-08 -4.6499999188 1.5 2.3474173361e-07 
-4.599999918 1.4499999993 -5.4708596764e-08 -4.599999918 1.5 2.0939911849e-07 -4.5499999173 1.4499999993 -4.5817831307e-08 
-4.5499999173 1.5 1.7560229537e-07 -4.4999999166 1.4499999993 -3.4077618949e-08 -4.4999999166 1.5 1.3107434427e-07 
-4.4499999158 1.4499999993 -1.8797427614e-08 -4.4499999158 1.5 7.286121928e-08 -4.3999999151 1.4499999993 1.1323300075e-09 
-4.3999999151 1.5 -2.8014619513e-09 -4.3499999143 1.4499999993 2.7004952941e-08 -4.3499999143 1.5 -1.0104462689e-07 
-4.2999999136 1.4499999993 6.067171654e-08 -4.2999999136 1.5 -2.2876655237e-07 -4.2499999128 1.4499999993 1.0456734145e-07 
-4.2499999128 1.5 -3.9525232864e-07 -4.1999999121 1.4499999993 1.6216246479e-07 -4.1999999121 1.5 -6.1355785874e-07 
-4.1499999113 1.4499999993 2.3839790231e-07 -4.1499999113 1.5 -9.0212120085e-07 -4.0999999106 1.4499999993 3.403890787e-07 
-4.0999999106 1.5 -1.2877328572e-06 -4.0499999098 1.4499999993 4.7886487664e-07 -4.0499999098 1.5 -1.8103603452e-06 
-3.9999999091 1.4499999993 6.7041332841e-07 -3.9999999091 1.5 -2.5316787742e-06 -3.9499999084 1.4499999993 7.9389110397e-07 
[...]
CELL_DATA 9510
FIELD FieldData 4
Water_Depth_m 1 9510 float
0.640025 0.640073 0.640118 0.640161 0.640201 0.64024 0.640275 0.640309 0.64034 
0.64037 0.640397 0.640421 0.640444 0.640464 0.640482 0.640498 0.640512 0.640523 
0.640532 0.640538 0.640541 0.640542 0.64054 0.640534 0.640525 0.640513 0.640496 
0.640475 0.64045 0.64042 0.640385 0.640346 0.640302 0.640254 0.640201 0.640144 
0.640084 0.640022 0.639957 0.639892 0.639826 0.639761 0.639697 0.639636 0.639577 
0.639522 0.639472 0.639425 0.639383 0.639346 0.639315 0.639289 0.639268 0.639253 
0.639244 0.639241 0.639245 0.639254 0.63927 0.639292 0.63932 0.639354 0.639393 
0.639438 0.639488 0.639542 0.6396 0.639662 0.639725 0.639791 0.639858 0.639925 
0.639992 0.640059 0.640124 0.640187 0.640248 0.640306 0.640361 0.640413 0.640461 
0.640506 0.640547 0.640584 0.640617 0.640646 0.640671 0.640693 0.64071 0.640724 
0.640735 0.640742 0.640745 0.640745 0.640743 0.640737 0.640727 0.640716 0.640701 
0.640684 0.640664 0.640642 0.640619 0.640594 0.640567 0.64054 0.640513 0.640487 
0.640462 0.640439 0.640419 0.640404 0.640393 0.640389 0.640391 0.640402 0.64042 
0.640448 0.640486 0.640534 0.640592 0.64066 0.640738 0.640827 0.640927 0.641036 
0.641157 0.64129 0.64144 0.641624 0.641906 0.641814 0.636324 0.622901 0.603314 
0.57923 0.551943 0.522575 0.492186 0.461811 0.433029 0.406782 0.384069 0.366275 
0.355314 0.353599 0.353753 0.353896 0.35403 0.354154 0.354269 0.354377 0.354477 
0.354573 0.354664 0.354752 0.354799 0.354658 0.354382 0.353901 0.347496 0.324914 
0.307638 0.307965 0.312535 0.316704 0.320017 0.322652 0.324084 0.32668 0.331236 
0.3361 0.340097 0.343928 0.347286 0.352695 0.357791 0.362526 0.369421 0.372972 
0.37945 0.388236 0.393702 0.40183 0.409778 0.414825 0.420095 0.427394 0.436697 
0.443722 0.445058 0.447246 0.452264 0.459224 0.465554 0.475152 0.480041 0.481321 
0.426383 0.407187 0.38513 0.370878 0.369863 0.369868 0.369511 0.367281 0.363893 
0.363 0.362989 0.3597 0.356915 0.356967 0.357015 0.357059 0.357102 0.357143 
0.357182 0.35722 0.357256 0.35729 0.357322 0.357352 0.357381 0.357408 0.357434 
0.357458 0.357481 0.357503 0.357524 0.357543 0.357562 0.35758 0.357597 0.357613 
0.357628 0.357643 0.357657 0.357671 0.357684 0.357697 0.357709 0.357721 0.357733 
0.357744 0.357755 0.357766 0.357776 0.357787 0.357797 0.357806 0.357816 0.357825 
0.357834 0.357843 0.357852 0.357861 0.357869 0.357877 0.357886 0.357894 0.357902 
0.35791 0.357917 0.357925 0.357932 0.35794 0.357947 0.357954 0.357961 0.357968 
0.357975 0.357981 0.357988 0.357995 0.358001 0.358007 0.358014 0.35802 0.358026 
0.358032 0.358038 0.358043 0.358049 0.358055 0.35806 0.358065 0.358071 0.358076 
0.358081 0.358086 0.35809 0.358085 0.357478 0.355256 0.351923 0.640025 0.640073 
0.640118 0.640161 0.640202 0.64024 0.640276 0.64031 0.640341 0.640371 0.640398 
0.640423 0.640446 0.640466 0.640484 0.640501 0.640514 0.640526 0.640534 0.640541 
0.640544 0.640545 0.640542 0.640537 0.640528 0.640515 0.640498 0.640477 0.640452 
0.640422 0.640387 0.640347 0.640302 0.640253 0.6402 0.640142 0.640082 0.640019 
0.639954 0.639887 0.639821 0.639756 0.639692 0.63963 0.639571 0.639516 0.639466 
0.639419 0.639377 0.63934 0.639309 0.639283 0.639262 0.639247 0.639238 0.639235 
0.639238 0.639248 0.639264 0.639286 0.639314 0.639348 0.639387 0.639433 0.639483 
0.639537 0.639596 0.639658 0.639722 0.639788 0.639855 0.639923 0.639991 0.640058 
0.640123 0.640187 0.640249 0.640307 0.640363 0.640415 0.640463 0.640508 0.640549 
0.640586 0.64062 0.640649 0.640674 0.640696 0.640714 0.640728 0.640738 0.640745 
0.640749 0.640749 0.640746 0.640739 0.64073 0.640718 0.640703 0.640686 0.640666 
0.640644 0.640619 0.640594 0.640567 0.640539 0.640511 0.640484 0.640458 0.640435 
0.640414 0.640398 0.640387 0.640381 0.640383 0.640393 0.640411 0.640438 0.640475 
0.640522 0.64058 0.640647 0.640724 0.640812 0.64091 0.641017 0.641133 0.641257 
0.64139 0.641513 0.641629 0.641607 0.636676 0.62394 0.604805 0.580829 0.553382 
0.523681 0.492855 0.461953 0.432345 0.405269 0.382172 0.364702 0.354984 0.353629 
0.353775 0.353911 0.354043 0.354166 0.354281 0.354388 0.354488 0.354583 0.354673 
0.354762 0.354812 0.354671 0.354553 0.354076 0.345971 0.317737 0.299082 0.305896 
0.308952 0.311773 0.315586 0.320635 0.325354 0.330836 0.335149 0.340655 0.345833 
0.352295 0.35822 0.364156 0.368983 0.375087 0.381311 0.388798 0.395696 0.402807 
0.410467 0.418198 0.425317 0.431668 0.437854 0.445268 0.454271 0.461424 0.461823 
0.458289 0.472719 0.483902 0.49006 0.497853 0.505119 0.505814 0.448282 0.435066 
0.411081 0.383305 0.373013 0.370841 0.369798 0.367986 0.364162 0.363495 0.363465 
0.359739 0.356887 0.356938 0.356988 0.357036 0.357082 0.357126 0.357167 0.357207 
0.357244 0.35728 0.357313 0.357344 0.357374 0.357401 0.357428 0.357452 0.357476 
0.357498 0.357519 0.357539 0.357558 0.357576 0.357593 0.357609 0.357625 0.35764 
0.357654 0.357668 0.357682 0.357694 0.357707 0.357719 0.357731 0.357742 0.357753 
0.357764 0.357774 0.357785 0.357795 0.357805 0.357814 0.357824 0.357833 0.357842 
0.357851 0.357859 0.357868 0.357876 0.357884 0.357893 0.357901 0.357908 0.357916 
0.357924 0.357931 0.357939 0.357946 0.357953 0.35796 0.357967 0.357974 0.357981 
0.357987 0.357994 0.358 0.358007 0.358013 0.358019 0.358025 0.358031 0.358037 
0.358043 0.358048 0.358054 0.358059 0.358065 0.35807 0.358075 0.35808 0.358085 
0.358089 0.358084 0.357477 0.355255 0.351921 0.640025 0.640073 0.640119 0.640162 
0.640202 0.640241 0.640277 0.640311 0.640343 0.640373 0.640401 0.640426 0.640449 
0.64047 0.640489 0.640505 0.640519 0.64053 0.640539 0.640546 0.640549 0.64055 
0.640548 0.640542 0.640533 0.64052 0.640503 0.640481 0.640455 0.640424 0.640389 
0.640348 0.640302 0.640252 0.640197 0.640139 0.640077 0.640012 0.639946 0.639879 
0.639811 0.639745 0.639681 0.639618 0.63956 0.639504 0.639453 0.639407 0.639365 
0.639328 0.639297 0.639271 0.63925 0.639235 0.639226 0.639223 0.639226 0.639235 
0.639251 0.639273 0.639301 0.639336 0.639376 0.639422 0.639472 0.639528 0.639587 
0.63965 0.639715 0.639782 0.639851 0.63992 0.639988 0.640056 0.640123 0.640188 
0.64025 0.640309 0.640365 0.640418 0.640467 0.640513 0.640554 0.640592 0.640625 
0.640655 0.640681 0.640702 0.64072 0.640734 0.640745 0.640752 0.640755 0.640755 
0.640752 0.640745 0.640736 0.640723 0.640708 0.64069 0.640669 0.640646 0.640621 
0.640594 0.640566 0.640537 0.640508 0.640479 0.640451 0.640426 0.640404 0.640386 
0.640373 0.640366 0.640367 0.640376 0.640393 0.640419 0.640456 0.640502 0.640559 
0.640626 0.640703 0.64079 0.640887 0.640994 0.64111 0.641235 0.641368 0.641496 
0.641661 0.64159 0.636812 0.624423 0.605617 0.581803 0.554325 0.524432 0.493297 
0.462045 0.432022 0.404592 0.381424 0.364267 0.354935 0.353617 0.353775 0.353919 
0.354052 0.354174 0.354286 0.354389 0.354485 0.354574 0.354656 0.354733 0.354767 
0.354612 0.354491 0.354037 0.346701 0.320485 0.306884 0.314693 0.31837 0.320943 
0.324569 0.329181 0.334479 0.34004 0.345638 0.351416 0.357222 0.363439 0.369602 
0.375142 0.37903 0.384418 0.392714 0.401403 0.408449 0.415141 0.422748 0.431161 
0.439596 0.447724 0.453994 0.460056 0.467735 0.473057 0.476395 0.481763 0.491702 
0.506237 0.509498 0.514984 0.517743 0.517407 0.460699 0.449561 0.435555 0.41177 
0.386472 0.371543 0.369862 0.369157 0.365708 0.364304 0.364283 0.360249 0.356888 
0.356941 0.356991 0.35704 0.357086 0.35713 0.357172 0.357211 0.357248 0.357284 
0.357317 0.357348 0.357377 0.357405 0.357431 0.357455 0.357478 0.3575 0.357521 
0.357541 0.35756 0.357577 0.357594 0.357611 0.357626 0.357641 0.357655 0.357669 
0.357682 0.357695 0.357708 0.35772 0.357731 0.357743 0.357754 0.357764 0.357775 
0.357785 0.357795 0.357805 0.357814 0.357824 0.357833 0.357842 0.357851 0.357859 
0.357868 0.357876 0.357885 0.357893 0.357901 0.357908 0.357916 0.357924 0.357931 
0.357939 0.357946 0.357953 0.35796 0.357967 0.357974 0.357981 0.357987 0.357994 
0.358 0.358007 0.358013 0.358019 0.358025 0.358031 0.358037 0.358043 0.358048 
0.358054 0.358059 0.358065 0.35807 0.358075 0.35808 0.358085 0.358089 0.358084 
0.357477 0.355255 0.351921 0.640025 0.640073 0.640119 0.640162 0.640203 0.640242 
0.640279 0.640314 0.640346 0.640377 0.640405 0.640431 0.640454 0.640476 0.640495 
0.640511 0.640526 0.640538 0.640547 0.640553 0.640557 0.640558 0.640556 0.64055 
0.640541 0.640527 0.64051 0.640488 0.640461 0.640429 0.640392 0.64035 0.640302 
0.64025 0.640194 0.640133 0.640069 0.640002 0.639934 0.639865 0.639796 0.639729 
0.639663 0.639601 0.639541 0.639486 0.639435 0.639388 0.639347 0.63931 0.639279 
0.639253 0.639232 0.639217 0.639208 0.639205 0.639208 0.639217 0.639232 0.639254 
0.639283 0.639317 0.639358 0.639405 0.639456 0.639513 0.639573 0.639638 0.639704 
0.639773 0.639843 0.639914 0.639985 0.640054 0.640122 0.640188 0.640252 0.640313 
0.64037 0.640424 0.640474 0.64052 0.640562 0.6406 0.640634 0.640664 0.64069 
0.640712 0.64073 0.640744 0.640755 0.640762 0.640765 0.640765 0.640761 0.640754 
0.640744 0.640731 0.640715 0.640696 0.640674 0.64065 0.640623 0.640594 0.640564 
0.640533 0.640502 0.640471 0.640441 0.640413 0.640388 0.640368 0.640353 0.640344 
0.640342 0.640349 0.640365 0.64039 0.640425 0.640471 0.640527 0.640593 0.640669 
0.640756 0.640852 0.640958 0.641074 0.641198 0.64133 0.641453 0.641615 0.64156 
0.636853 0.624641 0.606037 0.582353 0.554887 0.524889 0.493565 0.462107 0.431871 
0.404327 0.381188 0.364174 0.35497 0.353651 0.353807 0.353949 0.354079 0.354198 
0.354308 0.354408 0.354499 0.354583 0.354658 0.354724 0.354744 0.354582 0.354442 
0.354015 0.347754 0.32583 0.315052 0.322862 0.326333 0.329135 0.332877 0.336991 
0.341464 0.346512 0.352702 0.359268 0.3647 0.370538 0.3767 0.382256 0.386084 
0.391322 0.40047 0.410397 0.417058 0.424062 0.431651 0.440549 0.450505 0.459717 
0.46734 0.473924 0.478491 0.484449 0.490226 0.498564 0.503252 0.509207 0.515337 
0.522347 0.525954 0.528777 0.480892 0.463758 0.450636 0.433475 0.409948 0.382932 
0.370724 0.369367 0.366619 0.36556 0.365517 0.36059 0.356887 0.356941 0.356993 
0.357042 0.357089 0.357134 0.357176 0.357216 0.357253 0.357288 0.357321 0.357352 
0.357381 0.357408 0.357434 0.357458 0.357481 0.357503 0.357524 0.357543 0.357561 
0.357579 0.357596 0.357612 0.357627 0.357642 0.357656 0.35767 0.357683 0.357696 
0.357708 0.35772 0.357732 0.357743 0.357754 0.357765 0.357775 0.357785 0.357795 
0.357805 0.357815 0.357824 0.357833 0.357842 0.357851 0.35786 0.357868 0.357876 
0.357885 0.357893 0.357901 0.357908 0.357916 0.357924 0.357931 0.357939 0.357946 
0.357953 0.35796 0.357967 0.357974 0.357981 0.357987 0.357994 0.358 0.358007 
0.358013 0.358019 0.358025 0.358031 0.358037 0.358043 0.358048 0.358054 0.358059 
0.358065 0.35807 0.358075 0.35808 0.358085 0.358089 0.358084 0.357477 0.355255 
0.351921 0.640025 0.640073 0.640119 0.640163 0.640204 0.640244 0.640281 0.640317 
0.64035 0.640381 0.64041 0.640436 0.640461 0.640483 0.640503 0.64052 0.640535 
0.640547 0.640557 0.640564 0.640568 0.640569 0.640566 0.64056 0.640551 0.640537 
0.640519 0.640496 0.640468 0.640435 0.640396 0.640352 0.640302 0.640248 0.640188 
0.640125 0.640058 0.639988 0.639917 0.639846 0.639775 0.639706 0.639639 0.639576 
0.639516 0.639461 0.63941 0.639364 0.639323 0.639286 0.639255 0.639229 0.639208 
0.639193 0.639184 0.63918 0.639183 0.639192 0.639207 0.639229 0.639258 0.639293 
0.639335 0.639382 0.639435 0.639493 0.639556 0.639622 0.639691 0.639762 0.639834 
0.639907 0.63998 0.640052 0.640122 0.64019 0.640255 0.640317 0.640376 0.640431 
0.640482 0.640529 0.640572 0.640611 0.640646 0.640676 0.640703 0.640725 0.640743 
0.640758 0.640768 0.640775 0.640778 0.640778 0.640774 0.640766 0.640755 0.640741 
0.640724 0.640704 0.640681 0.640655 0.640626 0.640595 0.640563 0.640529 0.640494 
0.64046 0.640427 0.640395 0.640367 0.640343 0.640325 0.640313 0.640309 0.640313 
0.640327 0.640351 0.640384 0.640429 0.640484 0.640549 0.640625 0.640711 0.640806 
0.640911 0.641026 0.64115 0.641282 0.641407 0.641572 0.641519 0.636846 0.624724 
0.606234 0.582635 0.555191 0.525143 0.493719 0.462155 0.431819 0.404247 0.381145 
0.364191 0.355014 0.353693 0.353847 0.353987 0.354114 0.35423 0.354336 0.354432 
0.354518 0.354596 0.354664 0.354718 0.354725 0.354561 0.354407 0.354011 0.348366 
0.328337 0.319584 0.327427 0.331275 0.334767 0.34075 0.345758 0.347183 0.350182 
0.357042 0.363126 0.368419 0.373828 0.379879 0.385914 0.391442 0.397899 0.405354 
0.413189 0.422295 0.43049 0.43914 0.448542 0.460311 0.470343 0.476695 0.481087 
0.483679 0.487239 0.495155 0.500686 0.505838 0.517547 0.527595 0.530646 0.535398 
0.53939 0.505787 0.485619 0.463989 0.451053 0.433022 0.403953 0.379295 0.368715 
0.366755 0.365679 0.365622 0.36063 0.356889 0.356945 0.356998 0.357049 0.357097 
0.357141 0.357184 0.357223 0.35726 0.357295 0.357328 0.357358 0.357387 0.357414 
0.357439 0.357463 0.357486 0.357507 0.357527 0.357546 0.357565 0.357582 0.357599 
0.357614 0.35763 0.357644 0.357658 0.357672 0.357685 0.357697 0.35771 0.357721 
0.357733 0.357744 0.357755 0.357766 0.357776 0.357786 0.357796 0.357806 0.357815 
0.357824 0.357833 0.357842 0.357851 0.35786 0.357868 0.357877 0.357885 0.357893 
0.357901 0.357909 0.357916 0.357924 0.357931 0.357939 0.357946 0.357953 0.35796 
0.357967 0.357974 0.357981 0.357987 0.357994 0.358 0.358007 0.358013 0.358019 
0.358025 0.358031 0.358037 0.358043 0.358048 0.358054 0.358059 0.358065 0.35807 
0.358075 0.35808 0.358085 0.358089 0.358084 0.357477 0.355255 0.351921 0.640025 
0.640073 0.640119 0.640163 0.640206 0.640246 0.640284 0.64032 0.640354 0.640386 
0.640416 0.640443 0.640469 0.640491 0.640512 0.64053 0.640546 0.640558 0.640569 
0.640576 0.64058 0.640581 0.640579 0.640573 0.640563 0.640549 0.64053 0.640506 
0.640476 0.640442 0.640401 0.640354 0.640302 0.640244 0.640181 0.640114 0.640043 
0.63997 0.639896 0.639821 0.639748 0.639677 0.63961 0.639545 0.639486 0.63943 
0.63938 0.639334 0.639293 0.639257 0.639226 0.6392 0.639179 0.639164 0.639155 
0.639151 0.639153 0.639162 0.639177 0.639199 0.639228 0.639264 0.639306 0.639355 
0.63941 0.63947 0.639534 0.639602 0.639674 0.639748 0.639823 0.639899 0.639974 
0.640049 0.640121 0.640192 0.640259 0.640323 0.640384 0.64044 0.640493 0.640541 
0.640585 0.640625 0.64066 0.640691 0.640718 0.640741 0.64076 0.640774 0.640785 
0.640792 0.640795 0.640794 0.640789 0.640781 0.64077 0.640755 0.640736 0.640714 
0.640689 0.640661 0.64063 0.640596 0.640561 0.640523 0.640485 0.640446 0.640409 
0.640373 0.64034 0.640312 0.640289 0.640273 0.640266 0.640267 0.640279 0.6403 
0.640333 0.640376 0.640429 0.640494 0.640569 0.640654 0.640748 0.640851 0.640965 
0.641088 0.641219 0.641345 0.641513 0.641465 0.63681 0.624731 0.606303 0.582757 
0.555336 0.525273 0.493807 0.4622 0.431823 0.40425 0.381174 0.364246 0.355074 
0.353748 0.353899 0.354036 0.35416 0.354272 0.354373 0.354465 0.354546 0.354618 
0.354679 0.354726 0.354725 0.354561 0.354407 0.354029 0.348521 0.328833 0.321218 
0.329571 0.334593 0.338567 0.343062 0.34812 0.353439 0.358423 0.362121 0.366861 
0.371873 0.376868 0.382797 0.388653 0.396199 0.403911 0.411454 0.420041 0.429039 
0.439104 0.448217 0.457756 0.468968 0.4809 0.483483 0.485271 0.491814 0.498129 
0.505506 0.509821 0.511583 0.532483 0.536385 0.542759 0.544871 0.548905 0.526582 
0.512083 0.488758 0.46822 0.448278 0.422426 0.397492 0.375044 0.366837 0.365329 
0.365301 0.360635 0.356893 0.356951 0.357006 0.357058 0.357106 0.357151 0.357193 
0.357233 0.357269 0.357304 0.357336 0.357366 0.357394 0.357421 0.357446 0.357469 
0.357491 0.357512 0.357532 0.357551 0.357568 0.357585 0.357602 0.357617 0.357632 
0.357647 0.35766 0.357674 0.357686 0.357699 0.357711 0.357723 0.357734 0.357745 
0.357756 0.357766 0.357777 0.357787 0.357796 0.357806 0.357816 0.357825 0.357834 
0.357843 0.357851 0.35786 0.357869 0.357877 0.357885 0.357893 0.357901 0.357909 
0.357916 0.357924 0.357931 0.357939 0.357946 0.357953 0.35796 0.357967 0.357974 
0.357981 0.357987 0.357994 0.358 0.358007 0.358013 0.358019 0.358025 0.358031 
0.358037 0.358043 0.358048 0.358054 0.358059 0.358065 0.35807 0.358075 0.35808 
0.358085 0.358089 0.358084 0.357477 0.355255 0.351921 0.640025 0.640073 0.64012 
0.640164 0.640207 0.640248 0.640287 0.640324 0.640359 0.640392 0.640423 0.640451 
0.640477 0.640501 0.640523 0.640542 0.640558 0.640571 0.640582 0.64059 0.640594 
0.640596 0.640593 0.640587 0.640577 0.640562 0.640542 0.640517 0.640486 0.640449 
0.640406 0.640357 0.640301 0.640239 0.640172 0.6401 0.640025 0.639947 0.639869 
0.639791 0.639716 0.639643 0.639574 0.639509 0.639449 0.639395 0.639345 0.6393 
0.63926 0.639224 0.639193 0.639168 0.639147 0.639132 0.639122 0.639118 0.63912 
0.639128 0.639143 0.639166 0.639195 0.639232 0.639275 0.639325 0.639382 0.639444 
0.639511 0.639582 0.639656 0.639733 0.639812 0.639891 0.639969 0.640047 0.640122 
0.640195 0.640265 0.640332 0.640394 0.640452 0.640506 0.640556 0.640601 0.640641 
0.640678 0.640709 0.640737 0.64076 0.640779 0.640794 0.640805 0.640811 0.640814 
0.640813 0.640808 0.640799 0.640786 0.64077 0.640751 0.640727 0.6407 0.640669 
0.640635 0.640598 0.640558 0.640517 0.640474 0.64043 0.640387 0.640345 0.640307 
0.640273 0.640245 0.640225 0.640213 0.640211 0.64022 0.640239 0.64027 0.640311 
0.640364 0.640428 0.640502 0.640586 0.640678 0.64078 0.64089 0.641011 0.641141 
0.641268 0.641438 0.641395 0.63675 0.624693 0.6063 0.582789 0.55539 0.525334 
0.493862 0.46225 0.431863 0.404295 0.381236 0.364318 0.355145 0.353815 0.353963 
0.354095 0.354215 0.354322 0.354419 0.354506 0.354582 0.354649 0.354705 0.354746 
0.354742 0.354581 0.354436 0.354076 0.348569 0.328969 0.321892 0.33041 0.335175 
0.338859 0.343301 0.348825 0.355666 0.361188 0.365025 0.369757 0.376498 0.383753 
0.388799 0.395191 0.403121 0.41137 0.41949 0.427839 0.4384 0.448486 0.460031 
0.469571 0.475705 0.4805 0.492134 0.502944 0.509744 0.516946 0.525858 0.530427 
0.536495 0.543721 0.550112 0.561935 0.565635 0.568193 0.542579 0.530746 0.510259 
0.484124 0.461634 0.440573 0.417969 0.385404 0.367819 0.366764 0.366115 0.36062 
0.3569 0.35696 0.357016 0.357069 0.357118 0.357163 0.357205 0.357244 0.357281 
0.357315 0.357346 0.357376 0.357403 0.357429 0.357453 0.357476 0.357498 0.357518 
0.357537 0.357556 0.357573 0.35759 0.357606 0.357621 0.357635 0.357649 0.357663 
0.357676 0.357689 0.357701 0.357713 0.357724 0.357735 0.357746 0.357757 0.357767 
0.357778 0.357787 0.357797 0.357807 0.357816 0.357825 0.357834 0.357843 0.357852 
0.35786 0.357869 0.357877 0.357885 0.357893 0.357901 0.357909 0.357917 0.357924 
0.357932 0.357939 0.357946 0.357953 0.35796 0.357967 0.357974 0.357981 0.357987 
0.357994 0.358 0.358007 0.358013 0.358019 0.358025 0.358031 0.358037 0.358043 
0.358048 0.358054 0.358059 0.358065 0.35807 0.358075 0.35808 0.358085 0.358089 
0.358084 0.357477 0.355255 0.351921 0.640025 0.640073 0.64012 0.640165 0.640208 
0.64025 0.640289 0.640328 0.640364 0.640398 0.64043 0.640459 0.640487 0.640512 
0.640534 0.640554 0.640571 0.640586 0.640597 0.640605 0.64061 0.640612 0.640609 
0.640603 0.640592 0.640577 0.640556 0.64053 0.640497 0.640458 0.640412 0.640359 
0.640299 0.640233 0.64016 0.640083 0.640003 0.639921 0.639838 0.639757 0.639678 
0.639604 0.639534 0.63947 0.639411 0.639357 0.639309 0.639265 0.639226 0.639191 
0.639161 0.639135 0.639115 0.639099 0.639089 0.639084 0.639086 0.639095 0.63911 
0.639133 0.639162 0.6392 0.639244 0.639296 0.639354 0.639418 0.639488 0.639562 
0.639639 0.63972 0.639802 0.639884 0.639966 0.640047 0.640125 0.640201 0.640274 
0.640342 0.640407 0.640467 0.640522 0.640573 0.640619 0.64066 0.640697 0.64073 
0.640758 0.640782 0.640801 0.640816 0.640827 0.640834 0.640836 0.640835 0.640829 
0.640819 0.640806 0.640788 0.640767 0.640742 0.640712 0.640679 0.640642 0.640601 
0.640556 0.640509 0.640461 0.640411 0.640361 0.640313 0.640268 0.640227 0.640193 
0.640167 0.64015 0.640144 0.64015 0.640167 0.640196 0.640236 0.640289 0.640353 
0.640426 0.640509 0.640599 0.640697 0.640804 0.64092 0.641047 0.641171 0.641343 
0.641306 0.636669 0.624627 0.606255 0.582772 0.555398 0.525363 0.493907 0.462309 
0.431929 0.40437 0.38132 0.364406 0.35523 0.353896 0.354038 0.354165 0.354279 