# vtk DataFile Version 5.1
vtk output
ASCII
DATASET UNSTRUCTURED_GRID
POINTS 10043 double
-10.1 1.4499999993 7.5966234192e-08 -10.049999999 1.4499999993 9.0079772974e-08 -10.049999999 1.5 -3.5011566979e-07 
-9.9999999985 1.4499999993 9.3647720689e-08 -9.9999999985 1.5 -3.5856669456e-07 -9.9499999978 1.4499999993 9.382780064e-08 
-9.9499999978 1.5 -3.5875314097e-07 -9.899999997 1.4499999993 9.331120765e-08 -9.899999997 1.5 -3.5646758079e-07 
-9.8499999963 1.4499999993 9.2503576354e-08 -9.8499999963 1.5 -3.5344780258e-07 -9.7999999955 1.4499999993 9.1680483649e-08 
-9.7999999955 1.5 -3.5018115341e-07 -9.7499999948 1.4499999993 9.0857390944e-08 -9.7499999948 1.5 -3.4689878703e-07 
-9.699999994 1.4499999993 9.0027931776e-08 -9.699999994 1.5 -3.438146905e-07 -9.6499999933 1.4499999993 8.9220300481e-08 
-9.6499999933 1.5 -3.4090248846e-07 -9.5999999925 1.4499999993 8.8516351582e-08 -9.5999999925 1.5 -3.3815035749e-07 
-9.5499999918 1.4499999993 8.785242045e-08 -9.5499999918 1.5 -3.3557103052e-07 -9.4999999911 1.4499999993 8.7279438787e-08 
-9.4999999911 1.5 -3.3324545257e-07 -9.4499999903 1.4499999993 8.6665529864e-08 -9.4499999903 1.5 -3.3107176023e-07 
-9.3999999896 1.4499999993 8.6117104559e-08 -9.3999999896 1.5 -3.2906632441e-07 -9.3499999888 1.4499999993 8.5657809734e-08 
-9.3499999888 1.5 -3.2721277421e-07 -9.2999999881 1.4499999993 8.5206700362e-08 -9.2999999881 1.5 -3.2556749829e-07 
-9.2499999873 1.4499999993 8.4829260061e-08 -9.2499999873 1.5 -3.2402954275e-07 -9.1999999866 1.4499999993 8.4430901381e-08 
-9.1999999866 1.5 -3.2260373928e-07 -9.1499999858 1.4499999993 8.4100754805e-08 -9.1499999858 1.5 -3.2135199035e-07 
-9.0999999851 1.4499999993 8.3799712058e-08 -9.0999999851 1.5 -3.2018965612e-07 -9.0499999844 1.4499999993 8.3531411121e-08 
-9.0499999844 1.5 -3.1909644349e-07 -8.9999999836 1.4499999993 8.3297670983e-08 -8.9999999836 1.5 -3.1820422919e-07 
-8.9499999829 1.4499999993 8.3090306191e-08 -8.9499999829 1.5 -3.1739614315e-07 -8.8999999821 1.4499999993 8.2907952503e-08 
-8.8999999821 1.5 -3.1667627809e-07 -8.8499999814 1.4499999993 8.2735603257e-08 -8.8499999814 1.5 -3.1606646189e-07 
-8.7999999806 1.4499999993 8.2584627137e-08 -8.7999999806 1.5 -3.1549711821e-07 -8.7499999799 1.4499999993 8.2456843131e-08 
-8.7499999799 1.5 -3.1508147913e-07 -8.6999999791 1.4499999993 8.2434560511e-08 -8.6999999791 1.5 -3.1484501051e-07 
-8.6499999784 1.4499999993 8.2303138527e-08 -8.6499999784 1.5 -3.1456670513e-07 -8.5999999776 1.4499999993 8.2261756518e-08 
-8.5999999776 1.5 -3.1429249248e-07 -8.5499999769 1.4499999993 8.2229014708e-08 -8.5499999769 1.5 -3.1411559576e-07 
-8.4999999762 1.4499999993 8.2215827035e-08 -8.4999999762 1.5 -3.1406284506e-07 -8.4499999754 1.4499999993 8.2217646025e-08 
-8.4499999754 1.5 -3.1402009881e-07 -8.3999999747 1.4499999993 8.2206732088e-08 -8.3999999747 1.5 -3.1407694223e-07 
-8.3499999739 1.4499999993 8.2272215707e-08 -8.3499999739 1.5 -3.1421063795e-07 -8.2999999732 1.4499999993 8.2299500548e-08 
-8.2999999732 1.5 -3.1443755688e-07 -8.2499999724 1.4499999993 8.2368167398e-08 -8.2499999724 1.5 -3.1465401662e-07 
-8.1999999717 1.4499999993 8.2463209594e-08 -8.1999999717 1.5 -3.1499075703e-07 -8.1499999709 1.4499999993 8.2572348958e-08 
-8.1499999709 1.5 -3.1535932976e-07 -8.0999999702 1.4499999993 8.2687854785e-08 -8.0999999702 1.5 -3.1583817872e-07 
-8.0499999695 1.4499999993 8.2818367275e-08 -8.0499999695 1.5 -3.1633112485e-07 -7.9999999687 1.4499999993 8.2925232903e-08 
-7.9999999687 1.5 -3.1694867175e-07 -7.949999968 1.4499999993 8.3078937507e-08 -7.949999968 1.5 -3.1757213037e-07 
-7.8999999672 1.4499999993 8.3319498856e-08 -7.8999999672 1.5 -3.1826061786e-07 -7.8499999665 1.4499999993 8.3490029112e-08 
-7.8499999665 1.5 -3.1906733966e-07 -7.7999999657 1.4499999993 8.3715129051e-08 -7.7999999657 1.5 -3.1988679439e-07 
-7.749999965 1.4499999993 8.393340778e-08 -7.749999965 1.5 -3.2079219636e-07 -7.6999999642 1.4499999993 8.420625619e-08 
-7.6999999642 1.5 -3.2170942177e-07 -7.6499999635 1.4499999993 8.448092359e-08 -7.6499999635 1.5 -3.2271259442e-07 
-7.5999999627 1.4499999993 8.4725122917e-08 -7.5999999627 1.5 -3.2385946724e-07 -7.549999962 1.4499999993 8.5042991316e-08 
-7.549999962 1.5 -3.2493792901e-07 -7.4999999613 1.4499999993 8.5367226177e-08 -7.4999999613 1.5 -3.2615366763e-07 
-7.4499999605 1.4499999993 8.5698736996e-08 -7.4499999605 1.5 -3.2743969314e-07 -7.3999999598 1.4499999993 8.6026155088e-08 
-7.3999999598 1.5 -3.2876982914e-07 -7.349999959 1.4499999993 8.6404050137e-08 -7.349999959 1.5 -3.3015089684e-07 
-7.2999999583 1.4499999993 8.6809230027e-08 -7.2999999583 1.5 -3.3164837987e-07 -7.2499999575 1.4499999993 8.7205769717e-08 
-7.2499999575 1.5 -3.3316632653e-07 -7.1999999568 1.4499999993 8.7597307186e-08 -7.1999999568 1.5 -3.3479159356e-07 
-7.149999956 1.4499999993 8.8083886851e-08 -7.149999956 1.5 -3.3646006159e-07 -7.0999999553 1.4499999993 8.8316262747e-08 
-7.0999999553 1.5 -3.3734545468e-07 -7.0499999546 1.4499999993 8.8747363236e-08 -7.0499999546 1.5 -3.3914989217e-07 
-6.9999999538 1.4499999993 8.9268048953e-08 -6.9999999538 1.5 -3.4105892155e-07 -6.9499999531 1.4499999993 8.9767361544e-08 
-6.9499999531 1.5 -3.4299614526e-07 -6.8999999523 1.4499999993 9.0306237155e-08 -6.8999999523 1.5 -3.4503023016e-07 
-6.8499999516 1.4499999993 9.0873761849e-08 -6.8499999516 1.5 -3.4719255382e-07 -6.7999999508 1.4499999993 9.14485625e-08 
-6.7999999508 1.5 -3.4943764149e-07 -6.7499999501 1.4499999993 9.2051557488e-08 -6.7499999501 1.5 -3.5176367419e-07 
-6.6999999493 1.4499999993 9.2712305388e-08 -6.6999999493 1.5 -3.5417792787e-07 -6.6499999486 1.4499999993 9.3384421973e-08 
-6.6499999486 1.5 -3.5672860577e-07 -6.5999999478 1.4499999993 9.4048353105e-08 -6.5999999478 1.5 -3.5937159737e-07 
-6.5499999471 1.4499999993 9.480277896e-08 -6.5499999471 1.5 -3.6212571786e-07 -6.4999999464 1.4499999993 9.5570847236e-08 
-6.4999999464 1.5 -3.6501728573e-07 -6.4499999456 1.4499999993 9.6319361376e-08 -6.4499999456 1.5 -3.6805818127e-07 
-6.3999999449 1.4499999993 9.7174286395e-08 -6.3999999449 1.5 -3.7122185859e-07 -6.3499999441 1.4499999993 9.8049675046e-08 
-6.3499999441 1.5 -3.7455788515e-07 -6.2999999434 1.4499999993 9.8934613391e-08 -6.2999999434 1.5 -3.7803897612e-07 
-6.2499999426 1.4499999993 9.9890492322e-08 -6.2499999426 1.5 -3.8169923755e-07 -6.1999999419 1.4499999993 1.0091140012e-07 
-6.1999999419 1.5 -3.8552889237e-07 -6.1499999411 1.4499999993 1.0198096589e-07 -6.1499999411 1.5 -3.8957841753e-07 
-6.0999999404 1.4499999993 1.030744059e-07 -6.0999999404 1.5 -3.9383076e-07 -6.0499999397 1.4499999993 1.0425402053e-07 
-6.0499999397 1.5 -3.9834958443e-07 -5.9999999389 1.4499999993 1.054868406e-07 -5.9999999389 1.5 -4.0310874283e-07 
-5.9499999382 1.4499999993 1.0681811347e-07 -5.9499999382 1.5 -4.0811096369e-07 -5.8999999374 1.4499999993 1.0820827612e-07 
-5.8999999374 1.5 -4.1346885382e-07 -5.8499999367 1.4499999993 1.0969529995e-07 -5.8499999367 1.5 -4.1916291593e-07 
-5.7999999359 1.4499999993 1.1128486932e-07 -5.7999999359 1.5 -4.2519650378e-07 -5.7499999352 1.4499999993 1.1297039038e-07 
-5.7499999352 1.5 -4.3161435315e-07 -5.6999999344 1.4499999993 1.1477323625e-07 -5.6999999344 1.5 -4.3853287934e-07 
-5.6499999337 1.4499999993 1.1671318845e-07 -5.6499999337 1.5 -4.4593593884e-07 -5.5999999329 1.4499999993 1.1880116091e-07 
-5.5999999329 1.5 -4.5386582315e-07 -5.5499999322 1.4499999993 1.1990779569e-07 -5.5499999322 1.5 -4.5806075377e-07 
-5.4999999315 1.4499999993 1.2221109102e-07 -5.4999999315 1.5 -4.6696231948e-07 -5.4499999307 1.4499999993 1.2472675337e-07 
-5.4499999307 1.5 -4.7660250857e-07 -5.39999993 1.4499999993 1.2747501899e-07 -5.39999993 1.5 -4.8703213906e-07 
-5.3499999292 1.4499999993 1.304417907e-07 -5.3499999292 1.5 -4.9841764849e-07 -5.2999999285 1.4499999993 1.3370119234e-07 
-5.2999999285 1.5 -5.1081974561e-07 -5.2499999277 1.4499999993 1.3725890824e-07 -5.2499999277 1.5 -5.2442396736e-07 
-5.199999927 1.4499999993 1.4118019465e-07 -5.199999927 1.5 -5.3940198086e-07 -5.1499999262 1.4499999993 1.4549529226e-07 
-5.1499999262 1.5 -5.5590521697e-07 -5.0999999255 1.4499999993 1.5028150813e-07 -5.0999999255 1.5 -5.7419379118e-07 
-5.0499999247 1.4499999993 1.5560796385e-07 -5.0499999247 1.5 -5.9451713241e-07 -4.999999924 1.4499999993 1.6155696869e-07 
-4.999999924 1.5 -6.1721380007e-07 -4.9499999233 1.4499999993 1.68220609e-07 -4.9499999233 1.5 -6.4265873334e-07 
-4.8999999225 1.4499999993 1.7572848776e-07 -4.8999999225 1.5 -6.7132066306e-07 -4.8499999218 1.4499999993 1.842186208e-07 
-4.8499999218 1.5 -7.0373766903e-07 -4.799999921 1.4499999993 1.9387563555e-07 -4.799999921 1.5 -7.4057629718e-07 
-4.7499999203 1.4499999993 2.0492826991e-07 -4.7499999203 1.5 -7.8267635217e-07 -4.6999999195 1.4499999993 2.1759707636e-07 
-4.6999999195 1.5 -8.3102236204e-07 -4.6499999188 1.4499999993 2.3224107792e-07 -4.6499999188 1.5 -8.8686806521e-07 
-4.599999918 1.4499999993 2.4927885534e-07 -4.599999918 1.5 -9.5177324511e-07 -4.5499999173 1.4499999993 2.6919815355e-07 
-4.5499999173 1.5 -1.0277037745e-06 -4.4999999166 1.4499999993 2.9266925594e-07 -4.4999999166 1.5 -1.11708232e-06 
-4.4499999158 1.4499999993 3.2050979826e-07 -4.4499999158 1.5 -1.2231273558e-06 -4.3999999151 1.4499999993 3.5382004171e-07 
-4.3999999151 1.5 -1.3499836768e-06 -4.3499999143 1.4499999993 3.940751867e-07 -4.3499999143 1.5 -1.5030591385e-06 
-4.2999999136 1.4499999993 4.4311843794e-07 -4.2999999136 1.5 -1.6895775161e-06 -4.2499999128 1.4499999993 5.0360745263e-07 
-4.2499999128 1.5 -1.9193489607e-06 -4.1999999121 1.4499999993 5.7909596762e-07 -4.1999999121 1.5 -2.2058982267e-06 
-4.1499999113 1.4499999993 6.7466055498e-07 -4.1499999113 1.5 -2.5682988962e-06 -4.0999999106 1.4499999993 7.9765379724e-07 
-4.0999999106 1.5 -3.0340597732e-06 -4.0499999098 1.4499999993 9.590269201e-07 -4.0499999098 1.5 -3.6440421809e-06 
-3.9999999091 1.4499999993 1.1756841332e-06 -3.9999999091 1.5 -4.4611479098e-06 -3.9499999084 1.4499999993 1.3126763179e-06 
[...]
CELL_DATA 9510
FIELD FieldData 4
Water_Depth_m 1 9510 float
0.759981 0.759941 0.7599 0.759859 0.759818 0.759777 0.759736 0.759696 0.759658 
0.75962 0.759583 0.759547 0.759513 0.759481 0.75945 0.759421 0.759394 0.759369 
0.759345 0.759324 0.759305 0.759288 0.759274 0.759262 0.759252 0.759244 0.759239 
0.759236 0.759234 0.759234 0.759237 0.75924 0.759244 0.75925 0.759256 0.759262 
0.759269 0.759275 0.75928 0.759285 0.759288 0.75929 0.759291 0.759289 0.759285 
0.759278 0.759269 0.759258 0.759243 0.759226 0.759205 0.759182 0.759156 0.759127 
0.759097 0.759064 0.759031 0.758997 0.758963 0.758929 0.758898 0.758868 0.758842 
0.758818 0.758799 0.758783 0.758771 0.758762 0.758757 0.758756 0.758756 0.758758 
0.758762 0.758766 0.758771 0.758775 0.758778 0.758781 0.758782 0.758783 0.758784 
0.758785 0.758787 0.758791 0.758798 0.758809 0.758825 0.758847 0.758876 0.758911 
0.758953 0.759 0.759053 0.759111 0.75917 0.759231 0.759292 0.75935 0.759406 
0.759457 0.759502 0.759542 0.759576 0.759603 0.759623 0.759638 0.759646 0.75965 
0.759649 0.759644 0.759636 0.759626 0.759615 0.759602 0.759591 0.75958 0.759571 
0.759566 0.759564 0.759567 0.759575 0.759589 0.75961 0.759638 0.759674 0.759718 
0.759771 0.759834 0.759915 0.760036 0.76027 0.760148 0.754649 0.74124 0.721684 
0.697653 0.670444 0.641187 0.610937 0.580713 0.552067 0.525885 0.503172 0.48533 
0.474296 0.472496 0.472574 0.472646 0.472714 0.472777 0.472835 0.472889 0.472939 
0.472987 0.473033 0.473079 0.473119 0.473116 0.473209 0.473091 0.469569 0.457079 
0.447217 0.444625 0.444395 0.443969 0.444985 0.447662 0.451271 0.454403 0.455904 
0.457241 0.459252 0.46196 0.465181 0.467848 0.468019 0.469051 0.472673 0.476391 
0.483397 0.49022 0.490924 0.492465 0.49496 0.497611 0.501978 0.506831 0.516123 
0.524591 0.53503 0.542634 0.550555 0.552606 0.556251 0.556937 0.551438 0.546487 
0.483811 0.485599 0.486595 0.486742 0.486418 0.487741 0.488455 0.48821 0.482028 
0.473971 0.473923 0.473962 0.473998 0.47403 0.474059 0.474086 0.47411 0.474132 
0.474152 0.47417 0.474187 0.474201 0.474214 0.474226 0.474236 0.474245 0.474253 
0.47426 0.474266 0.474271 0.474276 0.474279 0.474282 0.474285 0.474287 0.474289 
0.47429 0.474291 0.474292 0.474292 0.474293 0.474293 0.474292 0.474292 0.474292 
0.474291 0.47429 0.474289 0.474289 0.474288 0.474287 0.474286 0.474285 0.474284 
0.474283 0.474281 0.47428 0.474279 0.474278 0.474277 0.474276 0.474275 0.474274 
0.474273 0.474273 0.474272 0.474271 0.47427 0.474269 0.474269 0.474268 0.474267 
0.474267 0.474266 0.474266 0.474266 0.474265 0.474265 0.474265 0.474265 0.474265 
0.474264 0.474264 0.474265 0.474265 0.474265 0.474265 0.474265 0.474266 0.474266 
0.474267 0.474267 0.474268 0.474266 0.474008 0.471751 0.467617 0.75998 0.75994 
0.759899 0.759858 0.759816 0.759775 0.759735 0.759695 0.759656 0.759618 0.759581 
0.759545 0.759511 0.759479 0.759448 0.759419 0.759392 0.759366 0.759343 0.759322 
0.759303 0.759286 0.759271 0.759259 0.759249 0.759242 0.759236 0.759233 0.759232 
0.759232 0.759235 0.759238 0.759243 0.759249 0.759255 0.759262 0.759268 0.759275 
0.759281 0.759286 0.759289 0.759292 0.759292 0.759291 0.759287 0.759281 0.759272 
0.75926 0.759245 0.759228 0.759207 0.759183 0.759157 0.759128 0.759097 0.759064 
0.75903 0.758995 0.75896 0.758926 0.758894 0.758864 0.758837 0.758814 0.758794 
0.758778 0.758766 0.758758 0.758754 0.758753 0.758754 0.758757 0.758761 0.758766 
0.758771 0.758775 0.758778 0.758781 0.758782 0.758783 0.758783 0.758783 0.758784 
0.758788 0.758794 0.758804 0.758819 0.758841 0.758868 0.758903 0.758945 0.758993 
0.759047 0.759105 0.759166 0.759228 0.75929 0.759349 0.759406 0.759458 0.759504 
0.759545 0.759579 0.759606 0.759627 0.759641 0.75965 0.759653 0.759652 0.759646 
0.759638 0.759627 0.759614 0.759601 0.759588 0.759576 0.759567 0.75956 0.759557 
0.759559 0.759566 0.759579 0.759598 0.759625 0.759658 0.759699 0.759747 0.759803 
0.759865 0.759926 0.759992 0.759939 0.755004 0.742287 0.723188 0.699266 0.671897 
0.642302 0.611607 0.580855 0.551393 0.524399 0.501306 0.483779 0.473964 0.472521 
0.472591 0.472657 0.472723 0.472784 0.472841 0.472894 0.472943 0.47299 0.473035 
0.47308 0.473118 0.473114 0.473147 0.473024 0.469641 0.457289 0.447915 0.448766 
0.448783 0.44819 0.449405 0.451779 0.455282 0.458384 0.458956 0.460574 0.460706 
0.462875 0.465419 0.469973 0.475696 0.480853 0.481778 0.483767 0.488589 0.493339 
0.498285 0.501489 0.506529 0.511454 0.514464 0.519719 0.530852 0.54334 0.553031 
0.560689 0.562321 0.561993 0.554596 0.554389 0.554172 0.556822 0.502411 0.4868 
0.48686 0.48684 0.487099 0.488485 0.489239 0.488988 0.482469 0.474071 0.4739 
0.473939 0.473975 0.474009 0.474041 0.474069 0.474095 0.474119 0.47414 0.474159 
0.474177 0.474192 0.474206 0.474218 0.474229 0.474238 0.474247 0.474254 0.47426 
0.474266 0.474271 0.474275 0.474278 0.474281 0.474283 0.474285 0.474287 0.474288 
0.474289 0.474289 0.474289 0.474289 0.474289 0.474289 0.474289 0.474288 0.474288 
0.474287 0.474286 0.474285 0.474284 0.474283 0.474283 0.474282 0.474281 0.474279 
0.474279 0.474277 0.474276 0.474275 0.474275 0.474274 0.474273 0.474272 0.474271 
0.47427 0.474269 0.474269 0.474268 0.474267 0.474267 0.474266 0.474266 0.474265 
0.474265 0.474264 0.474264 0.474264 0.474263 0.474263 0.474263 0.474263 0.474263 
0.474263 0.474263 0.474264 0.474264 0.474264 0.474264 0.474265 0.474265 0.474266 
0.474266 0.474264 0.474006 0.471749 0.467613 0.75998 0.759939 0.759898 0.759856 
0.759814 0.759773 0.759732 0.759692 0.759653 0.759614 0.759578 0.759542 0.759508 
0.759475 0.759444 0.759415 0.759388 0.759362 0.759339 0.759317 0.759298 0.759281 
0.759267 0.759255 0.759245 0.759237 0.759232 0.759229 0.759228 0.759229 0.759232 
0.759236 0.759241 0.759247 0.759254 0.759261 0.759269 0.759276 0.759282 0.759288 
0.759292 0.759295 0.759296 0.759295 0.759292 0.759286 0.759277 0.759265 0.75925 
0.759233 0.759211 0.759187 0.75916 0.75913 0.759098 0.759063 0.759028 0.758992 
0.758956 0.758921 0.758887 0.758856 0.758829 0.758805 0.758785 0.758769 0.758758 
0.758751 0.758748 0.758747 0.75875 0.758754 0.758759 0.758765 0.758771 0.758776 
0.75878 0.758782 0.758783 0.758783 0.758782 0.758781 0.75878 0.758781 0.758786 
0.758794 0.758808 0.758827 0.758854 0.758889 0.758931 0.75898 0.759035 0.759095 
0.759158 0.759222 0.759286 0.759349 0.759407 0.759461 0.75951 0.759552 0.759587 
0.759615 0.759636 0.75965 0.759658 0.759661 0.759659 0.759652 0.759642 0.759629 
0.759615 0.7596 0.759586 0.759572 0.759561 0.759553 0.759548 0.759549 0.759554 
0.759566 0.759585 0.75961 0.759643 0.759683 0.759731 0.759787 0.75985 0.759915 
0.76003 0.759927 0.755142 0.742771 0.724001 0.700241 0.672839 0.643051 0.612049 
0.580946 0.551063 0.523714 0.50055 0.483333 0.473907 0.472504 0.472586 0.472661 
0.472729 0.47279 0.472846 0.472897 0.472944 0.472988 0.47303 0.47307 0.473104 
0.473098 0.473149 0.473036 0.469793 0.458109 0.45063 0.453324 0.454839 0.455855 
0.456948 0.459134 0.461287 0.463186 0.46365 0.464443 0.467994 0.470984 0.474708 
0.479075 0.48482 0.489493 0.490337 0.491979 0.496004 0.501683 0.507625 0.513716 
0.518107 0.522848 0.527955 0.536067 0.546308 0.55763 0.564342 0.568211 0.568588 
0.568687 0.573535 0.578947 0.587293 0.591585 0.530036 0.503928 0.490547 0.487833 
0.487897 0.488508 0.489285 0.489049 0.482665 0.474058 0.473904 0.473944 0.473981 
0.474015 0.474046 0.474074 0.4741 0.474124 0.474145 0.474164 0.474181 0.474196 
0.474209 0.474221 0.474232 0.474241 0.474249 0.474256 0.474262 0.474268 0.474272 
0.474276 0.474279 0.474282 0.474284 0.474286 0.474287 0.474289 0.474289 0.47429 
0.47429 0.47429 0.47429 0.47429 0.474289 0.474289 0.474288 0.474287 0.474286 
0.474286 0.474285 0.474284 0.474283 0.474282 0.474281 0.47428 0.474279 0.474278 
0.474277 0.474276 0.474275 0.474274 0.474273 0.474272 0.474271 0.47427 0.474269 
0.474269 0.474268 0.474267 0.474267 0.474266 0.474266 0.474265 0.474265 0.474264 
0.474264 0.474264 0.474264 0.474263 0.474263 0.474263 0.474263 0.474263 0.474263 
0.474264 0.474264 0.474264 0.474264 0.474265 0.474265 0.474266 0.474266 0.474264 
0.474006 0.471749 0.467613 0.75998 0.759938 0.759896 0.759853 0.759811 0.759769 
0.759728 0.759687 0.759648 0.75961 0.759573 0.759537 0.759502 0.75947 0.759439 
0.759409 0.759381 0.759356 0.759332 0.759311 0.759291 0.759275 0.75926 0.759248 
0.759238 0.759231 0.759226 0.759223 0.759222 0.759224 0.759227 0.759232 0.759238 
0.759245 0.759252 0.759261 0.759269 0.759277 0.759284 0.759291 0.759296 0.7593 
0.759302 0.759302 0.759299 0.759293 0.759285 0.759273 0.759258 0.75924 0.759218 
0.759193 0.759165 0.759133 0.759099 0.759063 0.759025 0.758987 0.758949 0.758912 
0.758877 0.758844 0.758816 0.758791 0.758771 0.758756 0.758746 0.75874 0.758738 
0.758739 0.758744 0.75875 0.758757 0.758765 0.758772 0.758778 0.758782 0.758784 
0.758785 0.758783 0.75878 0.758776 0.758773 0.758772 0.758773 0.758779 0.75879 
0.758807 0.758832 0.758866 0.758909 0.758959 0.759016 0.759079 0.759145 0.759213 
0.759281 0.759347 0.75941 0.759467 0.759518 0.759562 0.759599 0.759628 0.75965 
0.759664 0.759671 0.759673 0.759669 0.759661 0.759649 0.759634 0.759617 0.7596 
0.759582 0.759566 0.759552 0.759541 0.759534 0.759532 0.759536 0.759546 0.759563 
0.759587 0.759619 0.759658 0.759705 0.75976 0.759822 0.759881 0.759992 0.759904 
0.755188 0.74299 0.72442 0.700788 0.673397 0.643503 0.612313 0.581004 0.550902 
0.523431 0.500293 0.483221 0.473928 0.472526 0.472607 0.47268 0.472746 0.472805 
0.472859 0.472908 0.472952 0.472992 0.47303 0.473065 0.473093 0.473086 0.473127 
0.473027 0.47029 0.46015 0.454627 0.457293 0.45886 0.459964 0.461126 0.462379 
0.46444 0.466726 0.469465 0.473121 0.476921 0.48063 0.482586 0.485978 0.489348 
0.492968 0.495339 0.497792 0.50221 0.508188 0.513657 0.519931 0.524554 0.530103 
0.535353 0.542777 0.552144 0.562628 0.565603 0.567971 0.574586 0.580763 0.591703 
0.605098 0.61424 0.614993 0.55003 0.52456 0.49963 0.488892 0.488859 0.489226 
0.48998 0.489786 0.48333 0.47407 0.473907 0.473948 0.473985 0.47402 0.474051 
0.47408 0.474105 0.474129 0.47415 0.474168 0.474185 0.4742 0.474213 0.474225 
0.474235 0.474244 0.474252 0.474258 0.474264 0.47427 0.474274 0.474278 0.474281 
0.474283 0.474285 0.474287 0.474288 0.474289 0.47429 0.47429 0.474291 0.474291 
0.47429 0.47429 0.47429 0.474289 0.474288 0.474287 0.474287 0.474286 0.474285 
0.474284 0.474283 0.474282 0.474281 0.47428 0.474279 0.474278 0.474277 0.474276 
0.474275 0.474274 0.474273 0.474272 0.474271 0.47427 0.474269 0.474269 0.474268 
0.474267 0.474267 0.474266 0.474266 0.474265 0.474265 0.474264 0.474264 0.474264 
0.474263 0.474263 0.474263 0.474263 0.474263 0.474263 0.474263 0.474264 0.474264 
0.474264 0.474264 0.474265 0.474265 0.474266 0.474266 0.474264 0.474006 0.471749 
0.467613 0.759979 0.759936 0.759892 0.759849 0.759806 0.759763 0.759722 0.759681 
0.759642 0.759603 0.759566 0.75953 0.759495 0.759462 0.759431 0.759401 0.759373 
0.759347 0.759324 0.759302 0.759282 0.759265 0.759251 0.759238 0.759229 0.759222 
0.759217 0.759215 0.759215 0.759217 0.75922 0.759226 0.759233 0.759241 0.75925 
0.75926 0.759269 0.759279 0.759288 0.759295 0.759302 0.759307 0.75931 0.759311 
0.759309 0.759304 0.759296 0.759284 0.759269 0.75925 0.759227 0.759201 0.759171 
0.759137 0.759101 0.759062 0.759022 0.75898 0.758939 0.7589 0.758862 0.758828 
0.758798 0.758772 0.758752 0.758738 0.758729 0.758724 0.758725 0.758729 0.758736 
0.758744 0.758754 0.758764 0.758773 0.758781 0.758786 0.758788 0.758787 0.758784 
0.758778 0.758772 0.758765 0.758759 0.758756 0.758757 0.758765 0.758779 0.758802 
0.758836 0.758879 0.758931 0.758991 0.759057 0.759128 0.759201 0.759275 0.759346 
0.759413 0.759475 0.75953 0.759577 0.759616 0.759646 0.759668 0.759682 0.759689 
0.759689 0.759683 0.759673 0.759658 0.75964 0.75962 0.759599 0.759578 0.759558 
0.75954 0.759526 0.759516 0.759511 0.759512 0.759519 0.759534 0.759557 0.759587 
0.759625 0.759672 0.759727 0.759789 0.75985 0.759963 0.759876 0.755191 0.743078 
0.724617 0.701067 0.673696 0.643752 0.612461 0.581044 0.550836 0.523331 0.500227 
0.483218 0.473956 0.472553 0.472633 0.472704 0.472768 0.472825 0.472876 0.472922 
0.472963 0.472999 0.473031 0.47306 0.473081 0.473072 0.473098 0.473017 0.471378 
0.46572 0.461167 0.461348 0.46291 0.464236 0.465669 0.466721 0.466934 0.468645 
0.473403 0.478244 0.481837 0.484788 0.486071 0.487675 0.491846 0.495711 0.499962 
0.503772 0.507346 0.51115 0.517131 0.522053 0.528241 0.533198 0.540684 0.546061 
0.552208 0.561575 0.564151 0.56638 0.577085 0.586607 0.599583 0.61704 0.622826 
0.622405 0.571982 0.541557 0.520481 0.498797 0.489925 0.491046 0.491469 0.49121 
0.483927 0.474103 0.473915 0.473956 0.473994 0.474029 0.47406 0.474089 0.474114 
0.474137 0.474157 0.474176 0.474192 0.474206 0.474219 0.47423 0.47424 0.474248 
0.474256 0.474262 0.474268 0.474273 0.474277 0.47428 0.474283 0.474285 0.474287 
0.474289 0.47429 0.474291 0.474291 0.474292 0.474292 0.474292 0.474291 0.474291 
0.47429 0.47429 0.474289 0.474288 0.474287 0.474286 0.474285 0.474284 0.474283 
0.474282 0.474281 0.47428 0.474279 0.474278 0.474277 0.474276 0.474275 0.474274 
0.474273 0.474272 0.474271 0.47427 0.474269 0.474269 0.474268 0.474267 0.474267 
0.474266 0.474266 0.474265 0.474265 0.474264 0.474264 0.474264 0.474263 0.474263 
0.474263 0.474263 0.474263 0.474263 0.474263 0.474264 0.474264 0.474264 0.474264 
0.474265 0.474265 0.474266 0.474266 0.474264 0.474006 0.471749 0.467613 0.759978 
0.759933 0.759888 0.759844 0.7598 0.759757 0.759715 0.759674 0.759634 0.759595 
0.759558 0.759522 0.759487 0.759454 0.759422 0.759392 0.759363 0.759337 0.759313 
0.759291 0.759271 0.759254 0.759239 0.759227 0.759217 0.75921 0.759206 0.759204 
0.759205 0.759207 0.759212 0.759219 0.759227 0.759237 0.759247 0.759258 0.759269 
0.759281 0.759291 0.759301 0.759309 0.759316 0.75932 0.759322 0.759321 0.759317 
0.759309 0.759298 0.759283 0.759263 0.759239 0.759211 0.759179 0.759143 0.759103 
0.759061 0.759017 0.758972 0.758927 0.758883 0.758843 0.758806 0.758774 0.758747 
0.758727 0.758714 0.758706 0.758704 0.758708 0.758715 0.758725 0.758738 0.758751 
0.758764 0.758776 0.758785 0.758791 0.758793 0.758792 0.758786 0.758777 0.758766 
0.758754 0.758743 0.758735 0.758731 0.758734 0.758745 0.758766 0.758799 0.758843 
0.758898 0.758962 0.759033 0.75911 0.759189 0.759268 0.759346 0.759419 0.759486 
0.759545 0.759596 0.759637 0.759669 0.759692 0.759706 0.759712 0.75971 0.759702 
0.759688 0.75967 0.759648 0.759623 0.759598 0.759572 0.759548 0.759526 0.759507 
0.759492 0.759483 0.759481 0.759485 0.759497 0.759518 0.759546 0.759583 0.759629 
0.759683 0.759745 0.759807 0.759922 0.759839 0.755169 0.743095 0.724691 0.701191 
0.673839 0.643877 0.612541 0.581078 0.550823 0.523311 0.500233 0.483249 0.473995 
0.472589 0.472667 0.472736 0.472797 0.472851 0.472899 0.472941 0.472978 0.473009 
0.473036 0.473057 0.473071 0.473062 0.47307 0.473008 0.471945 0.468164 0.465104 
0.465921 0.46729 0.468578 0.469614 0.470836 0.472068 0.47414 0.477378 0.480819 
0.484564 0.487486 0.49061 0.493735 0.497492 0.50205 0.506815 0.511233 0.515564 
0.5203 0.52548 0.531403 0.537175 0.543433 0.55029 0.558015 0.558363 0.557696 
0.560842 0.565214 0.576349 0.586863 0.598943 0.615321 0.621007 0.620723 0.59209 
0.562793 0.544146 0.52304 0.499265 0.491475 0.492448 0.49217 0.484394 0.474125 
0.473925 0.473968 0.474006 0.474041 0.474072 0.4741 0.474125 0.474147 0.474167 
0.474185 0.4742 0.474214 0.474226 0.474237 0.474246 0.474254 0.474261 0.474267 
0.474272 0.474276 0.47428 0.474283 0.474286 0.474288 0.47429 0.474291 0.474292 
0.474292 0.474293 0.474293 0.474293 0.474293 0.474292 0.474292 0.474291 0.47429 
0.47429 0.474289 0.474288 0.474287 0.474286 0.474285 0.474283 0.474282 0.474281 
0.47428 0.474279 0.474278 0.474277 0.474276 0.474275 0.474274 0.474273 0.474272 
0.474271 0.47427 0.47427 0.474269 0.474268 0.474267 0.474267 0.474266 0.474266 
0.474265 0.474265 0.474264 0.474264 0.474264 0.474264 0.474263 0.474263 0.474263 
0.474263 0.474263 0.474263 0.474264 0.474264 0.474264 0.474264 0.474265 0.474265 
0.474266 0.474266 0.474264 0.474006 0.471749 0.467613 0.759977 0.75993 0.759883 
0.759837 0.759792 0.759748 0.759706 0.759665 0.759625 0.759586 0.759548 0.759512 
0.759477 0.759443 0.759411 0.759381 0.759352 0.759325 0.7593 0.759278 0.759258 
0.75924 0.759225 0.759213 0.759203 0.759197 0.759193 0.759191 0.759193 0.759196 
0.759202 0.75921 0.75922 0.759231 0.759243 0.759256 0.75927 0.759283 0.759295 
0.759307 0.759317 0.759326 0.759332 0.759336 0.759336 0.759333 0.759326 0.759315 
0.759299 0.759279 0.759254 0.759224 0.759189 0.75915 0.759107 0.75906 0.759011 
0.758961 0.758911 0.758863 0.758818 0.758777 0.758743 0.758716 0.758696 0.758684 
0.758678 0.75868 0.758687 0.758698 0.758713 0.75873 0.758748 0.758765 0.75878 
0.758792 0.758799 0.758801 0.758798 0.75879 0.758777 0.758761 0.758743 0.758726 
0.758712 0.758703 0.758701 0.758709 0.75873 0.758763 0.758809 0.758867 0.758935 
0.759011 0.759094 0.759179 0.759265 0.759349 0.759429 0.759501 0.759565 0.759619 
0.759663 0.759697 0.759721 0.759734 0.759739 0.759735 0.759724 0.759707 0.759684 
0.759657 0.759627 0.759596 0.759565 0.759535 0.759507 0.759483 0.759464 0.75945 
0.759443 0.759444 0.759453 0.75947 0.759497 0.759532 0.759577 0.75963 0.759692 
0.759754 0.759872 0.759793 0.755129 0.743072 0.724698 0.701227 0.673893 0.643933 
0.612586 0.581111 0.550841 0.523331 0.500267 0.483295 0.474041 0.472633 0.472708 
0.472774 0.472832 0.472883 0.472927 0.472965 0.472997 0.473024 0.473045 0.47306 
0.473067 0.473058 0.473058 0.473013 0.472199 0.469194 0.468539 0.470177 0.47147 
0.472479 0.473786 0.475502 0.47897 0.48231 0.484032 0.486734 0.490634 0.494282 
0.497746 0.501046 0.505305 0.510222 0.51574 0.521097 0.525422 0.530042 0.535886 
0.542284 0.548126 0.553992 0.558615 0.561484 0.567598 0.572338 0.576302 0.579805 
0.583512 0.590307 0.596044 0.605566 0.614471 0.615461 0.615766 0.584602 0.563458 
0.542115 0.516639 0.496305 0.492598 0.49231 0.484421 0.47415 0.473939 0.473983 
0.474021 0.474056 0.474087 0.474114 0.474139 0.47416 0.474179 0.474196 0.47421 
0.474223 0.474235 0.474244 0.474253 0.47426 0.474267 0.474272 0.474277 0.474281 
0.474284 0.474287 0.474289 0.474291 0.474292 0.474293 0.474294 0.474295 0.474295 
0.474295 0.474294 0.474294 0.474293 0.474293 0.474292 0.474291 0.47429 0.474289 
0.474288 0.474287 0.474286 0.474285 0.474284 0.474283 0.474282 0.474281 0.474279 
0.474278 0.474277 0.474276 0.474275 0.474274 0.474273 0.474272 0.474271 0.47427 
0.47427 0.474269 0.474268 0.474267 0.474267 0.474266 0.474266 0.474265 0.474265 
0.474264 0.474264 0.474264 0.474264 0.474263 0.474263 0.474263 0.474263 0.474263 
0.474263 0.474264 0.474264 0.474264 0.474264 0.474265 0.474265 0.474266 0.474266 
0.474264 0.474006 0.471749 0.467613 0.759975 0.759925 0.759876 0.759829 0.759783 
0.759739 0.759696 0.759655 0.759615 0.759576 0.759538 0.759501 0.759466 0.759432 
0.759399 0.759368 0.759339 0.759312 0.759287 0.759264 0.759243 0.759225 0.75921 
0.759198 0.759188 0.759181 0.759178 0.759177 0.759179 0.759184 0.759191 0.7592 
0.759212 0.759225 0.759239 0.759254 0.759269 0.759285 0.7593 0.759314 0.759327 
0.759338 0.759346 0.759351 0.759353 0.759351 0.759345 0.759334 0.759319 0.759298 
0.759272 0.75924 0.759202 0.759159 0.759111 0.759059 0.759004 0.758947 0.758891 
0.758837 0.758787 0.758743 0.758706 0.758677 0.758658 0.758647 0.758645 0.75865 
0.758662 0.758678 0.758699 0.758721 0.758744 0.758766 0.758785 0.7588 0.758809 
0.758811 0.758807 0.758796 0.75878 0.758759 0.758735 0.758712 0.758693 0.758679 
0.758675 0.758682 0.758702 0.758735 0.758783 0.758843 0.758914 0.758995 0.759082 
0.759174 0.759266 0.759356 0.759441 0.759519 0.759587 0.759645 0.759692 0.759728 
0.759752 0.759765 0.759769 0.759763 0.759749 0.759728 0.7597 0.759668 0.759632 
0.759594 0.759557 0.75952 0.759486 0.759455 0.75943 0.759411 0.759398 0.759394 
0.7594 0.759415 0.759439 0.759472 0.759515 0.759566 0.759627 0.75969 0.759809 
0.759734 0.755076 0.743029 0.724669 0.701218 0.673902 0.643955 0.612618 0.58115 
0.550881 0.523376 0.50032 0.483352 0.474097 0.472686 0.472758 0.47282 0.472874 