# vtk DataFile Version 5.1
vtk output
ASCII
DATASET UNSTRUCTURED_GRID
POINTS 10043 double
-10.1 1.4499999993 -2.1070103173e-07 -10.049999999 1.4499999993 -1.1911856035e-07 -10.049999999 1.5 4.3043814912e-07 
-9.9999999985 1.4499999993 -8.3775596238e-08 -9.9999999985 1.5 3.1405920708e-07 -9.9499999978 1.4499999993 -6.6266004239e-08 
-9.9499999978 1.5 2.5035637918e-07 -9.899999997 1.4499999993 -5.5230191975e-08 -9.899999997 1.5 2.0955282309e-07 
-9.8499999963 1.4499999993 -4.7554056692e-08 -9.8499999963 1.5 1.8083798636e-07 -9.7999999955 1.4499999993 -4.1867895817e-08 
-9.7999999955 1.5 1.5949423471e-07 -9.7499999948 1.4499999993 -3.7516873164e-08 -9.7499999948 1.5 1.4295598305e-07 
-9.699999994 1.4499999993 -3.4017137551e-08 -9.699999994 1.5 1.297810428e-07 -9.6499999933 1.4499999993 -3.1265006584e-08 
-9.6499999933 1.5 1.1901625641e-07 -9.5999999925 1.4499999993 -2.8843933464e-08 -9.5999999925 1.5 1.1007592349e-07 
-9.5499999918 1.4499999993 -2.6899433792e-08 -9.5499999918 1.5 1.0257804917e-07 -9.4999999911 1.4499999993 -2.5180488805e-08 
-9.4999999911 1.5 9.6186120402e-08 -9.4499999903 1.4499999993 -2.3807151805e-08 -9.4499999903 1.5 9.070368634e-08 
-9.3999999896 1.4499999993 -2.2492022467e-08 -9.3999999896 1.5 8.6043435488e-08 -9.3499999888 1.4499999993 -2.1549785956e-08 
-9.3499999888 1.5 8.195070933e-08 -9.2999999881 1.4499999993 -2.0540246837e-08 -9.2999999881 1.5 7.8447335738e-08 
-9.2499999873 1.4499999993 -1.9789004213e-08 -9.2499999873 1.5 7.5247733378e-08 -9.1999999866 1.4499999993 -1.891407031e-08 
-9.1999999866 1.5 7.2597678979e-08 -9.1499999858 1.4499999993 -1.8413848224e-08 -9.1499999858 1.5 7.0223684645e-08 
-9.0999999851 1.4499999993 -1.7853599488e-08 -9.0999999851 1.5 6.8106380979e-08 -9.0499999844 1.4499999993 -1.7407947084e-08 
-9.0499999844 1.5 6.6205537053e-08 -8.9999999836 1.4499999993 -1.6925914892e-08 -8.9999999836 1.5 6.4721241699e-08 
-8.9499999829 1.4499999993 -1.6556660043e-08 -8.9499999829 1.5 6.3280602092e-08 -8.8999999821 1.4499999993 -1.6285630622e-08 
-8.8999999821 1.5 6.2025499403e-08 -8.8499999814 1.4499999993 -1.6032791095e-08 -8.8499999814 1.5 6.1065072998e-08 
-8.7999999806 1.4499999993 -1.5769037631e-08 -8.7999999806 1.5 6.0141026381e-08 -8.7499999799 1.4499999993 -1.562169949e-08 
-8.7499999799 1.5 5.9438900024e-08 -8.6999999791 1.4499999993 -1.549800821e-08 -8.6999999791 1.5 5.9169689592e-08 
-8.6499999784 1.4499999993 -1.5474361348e-08 -8.6499999784 1.5 5.8638544687e-08 -8.5999999776 1.4499999993 -1.5290643418e-08 
-8.5999999776 1.5 5.8269289838e-08 -8.5499999769 1.4499999993 -1.5239711715e-08 -8.5499999769 1.5 5.8041916162e-08 
-8.4999999762 1.4499999993 -1.5139667298e-08 -8.4999999762 1.5 5.7867293179e-08 -8.4499999754 1.4499999993 -1.5177866075e-08 
-8.4499999754 1.5 5.7792714614e-08 -8.3999999747 1.4499999993 -1.5170590117e-08 -8.3999999747 1.5 5.7809085519e-08 
-8.3499999739 1.4499999993 -1.5145124266e-08 -8.3499999739 1.5 5.7954604671e-08 -8.2999999732 1.4499999993 -1.5181504054e-08 
-8.2999999732 1.5 5.8236548028e-08 -8.2499999724 1.4499999993 -1.5394325814e-08 -8.2499999724 1.5 5.8603983888e-08 
-8.1999999717 1.4499999993 -1.5403420761e-08 -8.1999999717 1.5 5.8976940664e-08 -8.1499999709 1.4499999993 -1.5668993214e-08 
-8.1499999709 1.5 5.9471641833e-08 -8.0999999702 1.4499999993 -1.5759942684e-08 -8.0999999702 1.5 6.0131931434e-08 
-8.0499999695 1.4499999993 -1.6014601201e-08 -8.0499999695 1.5 6.0714008043e-08 -7.9999999687 1.4499999993 -1.6185586205e-08 
-7.9999999687 1.5 6.1479802582e-08 -7.949999968 1.4499999993 -1.6356571209e-08 -7.949999968 1.5 6.2272881962e-08 
-7.8999999672 1.4499999993 -1.653665116e-08 -7.8999999672 1.5 6.3216937463e-08 -7.8499999665 1.4499999993 -1.6826779969e-08 
-7.8499999665 1.5 6.4253761423e-08 -7.7999999657 1.4499999993 -1.7117818274e-08 -7.7999999657 1.5 6.5393358284e-08 
-7.749999965 1.4499999993 -1.7407947084e-08 -7.749999965 1.5 6.6563877965e-08 -7.6999999642 1.4499999993 -1.7789025364e-08 
-7.6999999642 1.5 6.7835351558e-08 -7.6499999635 1.4499999993 -1.8100982047e-08 -7.6499999635 1.5 6.9121377066e-08 
-7.5999999627 1.4499999993 -1.8465689422e-08 -7.5999999627 1.5 7.0629319282e-08 -7.549999962 1.4499999993 -1.8919527278e-08 
-7.549999962 1.5 7.212467068e-08 -7.4999999613 1.4499999993 -1.937245564e-08 -7.4999999613 1.5 7.3742519646e-08 
-7.4499999605 1.4499999993 -1.9744438973e-08 -7.4499999605 1.5 7.5435998781e-08 -7.3999999598 1.4499999993 -2.0252846511e-08 
-7.3999999598 1.5 7.7240436269e-08 -7.349999959 1.4499999993 -2.0665757106e-08 -7.349999959 1.5 7.9170384026e-08 
-7.2999999583 1.4499999993 -2.1272390072e-08 -7.2999999583 1.5 8.1097603299e-08 -7.2499999575 1.4499999993 -2.1798078009e-08 
-7.2499999575 1.5 8.3190350608e-08 -7.1999999568 1.4499999993 -2.2385611587e-08 -7.1999999568 1.5 8.5406789196e-08 
-7.149999956 1.4499999993 -2.3023167373e-08 -7.149999956 1.5 8.769962534e-08 -7.0999999553 1.4499999993 -2.3301472751e-08 
-7.0999999553 1.5 8.8875601989e-08 -7.0499999546 1.4499999993 -2.3889915823e-08 -7.0499999546 1.5 9.1324871221e-08 
-6.9999999538 1.4499999993 -2.4578403313e-08 -6.9999999538 1.5 9.3878732343e-08 -6.9499999531 1.4499999993 -2.5275076254e-08 
-6.9499999531 1.5 9.6594483523e-08 -6.8999999523 1.4499999993 -2.600358151e-08 -6.8999999523 1.5 9.9355709438e-08 
-6.8499999516 1.4499999993 -2.6782108975e-08 -6.8499999516 1.5 1.0233339509e-07 -6.7999999508 1.4499999993 -2.7596106733e-08 
-6.7999999508 1.5 1.0532563266e-07 -6.7499999501 1.4499999993 -2.8370996219e-08 -6.7499999501 1.5 1.0843792353e-07 
-6.6999999493 1.4499999993 -2.9272305468e-08 -6.6999999493 1.5 1.1173302283e-07 -6.6499999486 1.4499999993 -3.0166336984e-08 
-6.6499999486 1.5 1.151718223e-07 -6.5999999478 1.4499999993 -3.1115849453e-08 -6.5999999478 1.5 1.1873158456e-07 
-6.5499999471 1.4499999993 -3.2104470193e-08 -6.5499999471 1.5 1.2244598224e-07 -6.4999999464 1.4499999993 -3.3069444072e-08 
-6.4999999464 1.5 1.2629949708e-07 -6.4499999456 1.4499999993 -3.4128095905e-08 -6.4499999456 1.5 1.3026671297e-07 
-6.3999999449 1.4499999993 -3.5209485105e-08 -6.3999999449 1.5 1.3439127144e-07 -6.3499999441 1.4499999993 -3.629360279e-08 
-6.3499999441 1.5 1.386904529e-07 -6.2999999434 1.4499999993 -3.7535063058e-08 -6.2999999434 1.5 1.4313060603e-07 
-6.2499999426 1.4499999993 -3.8707401728e-08 -6.2499999426 1.5 1.4773264922e-07 -6.1999999419 1.4499999993 -3.9946133512e-08 
-6.1999999419 1.5 1.5253478125e-07 -6.1499999411 1.4499999993 -4.1259443861e-08 -6.1499999411 1.5 1.5743877668e-07 
-6.0999999404 1.4499999993 -4.2600948547e-08 -6.0999999404 1.5 1.6250193369e-07 -6.0499999397 1.4499999993 -4.3930629801e-08 
-6.0499999397 1.5 1.6777700296e-07 -5.9999999389 1.4499999993 -4.5307604779e-08 -5.9999999389 1.5 1.7320941481e-07 
-5.9499999382 1.4499999993 -4.6796902353e-08 -5.9499999382 1.5 1.7871367675e-07 -5.8999999374 1.4499999993 -4.8291202148e-08 
-5.8999999374 1.5 1.8446786498e-07 -5.8499999367 1.4499999993 -4.9846438088e-08 -5.8499999367 1.5 1.9035066146e-07 
-5.7999999359 1.4499999993 -5.1439418058e-08 -5.7999999359 1.5 1.9635287174e-07 -5.7499999352 1.4499999993 -5.3058773375e-08 
-5.7499999352 1.5 2.0249059673e-07 -5.6999999344 1.4499999993 -5.4661757787e-08 -5.6999999344 1.5 2.0872882089e-07 
-5.6499999337 1.4499999993 -5.6370243584e-08 -5.6499999337 1.5 2.1512302339e-07 -5.5999999329 1.4499999993 -5.802052172e-08 
-5.5999999329 1.5 2.2156906709e-07 -5.5499999322 1.4499999993 -5.8888179666e-08 -5.5499999322 1.5 2.2479423478e-07 
-5.4999999315 1.4499999993 -6.0567110438e-08 -5.4999999315 1.5 2.313188503e-07 -5.4499999307 1.4499999993 -6.2298333603e-08 
-5.4499999307 1.5 2.3778626712e-07 -5.39999993 1.4499999993 -6.396907537e-08 -5.39999993 1.5 2.442677669e-07 
-5.3499999292 1.4499999993 -6.5615715528e-08 -5.3499999292 1.5 2.5060649023e-07 -5.2999999285 1.4499999993 -6.7274633864e-08 
-5.2999999285 1.5 2.5678696147e-07 -5.2499999277 1.4499999993 -6.8788487795e-08 -5.2499999277 1.5 2.6268457987e-07 
-5.199999927 1.4499999993 -7.0209573266e-08 -5.199999927 1.5 2.6822067412e-07 -5.1499999262 1.4499999993 -7.1546530478e-08 
-5.1499999262 1.5 2.7326200325e-07 -5.0999999255 1.4499999993 -7.2701588749e-08 -5.0999999255 1.5 2.7761257115e-07 
-5.0499999247 1.4499999993 -7.3616540419e-08 -5.0499999247 1.5 2.8115050554e-07 -4.999999924 1.4499999993 -7.4270012362e-08 
-4.999999924 1.5 2.8361705517e-07 -4.9499999233 1.4499999993 -7.453649431e-08 -4.9499999233 1.5 2.8467252378e-07 
-4.8999999225 1.4499999993 -7.4355959612e-08 -4.8999999225 1.5 2.8400407359e-07 -4.8499999218 1.4499999993 -7.3602897999e-08 
-4.8499999218 1.5 2.8115687201e-07 -4.799999921 1.4499999993 -7.2127242845e-08 -4.799999921 1.5 2.7559713089e-07 
-4.7499999203 1.4499999993 -6.9775289546e-08 -4.7499999203 1.5 2.6659995456e-07 -4.6999999195 1.4499999993 -6.6284194133e-08 
-4.6999999195 1.5 2.5336498766e-07 -4.6499999188 1.4499999993 -6.1390203143e-08 -4.6499999188 1.5 2.3474173361e-07 
-4.599999918 1.4499999993 -5.4708596764e-08 -4.599999918 1.5 2.0939911849e-07 -4.5499999173 1.4499999993 -4.5817831307e-08 
-4.5499999173 1.5 1.7560229537e-07 -4.4999999166 1.4499999993 -3.4077618949e-08 -4.4999999166 1.5 1.3107434427e-07 
-4.4499999158 1.4499999993 -1.8797427614e-08 -4.4499999158 1.5 7.286121928e-08 -4.3999999151 1.4499999993 1.1323300075e-09 
-4.3999999151 1.5 -2.8014619513e-09 -4.3499999143 1.4499999993 2.7004952941e-08 -4.3499999143 1.5 -1.0104462689e-07 
-4.2999999136 1.4499999993 6.067171654e-08 -4.2999999136 1.5 -2.2876655237e-07 -4.2499999128 1.4499999993 1.0456734145e-07 
-4.2499999128 1.5 -3.9525232864e-07 -4.1999999121 1.4499999993 1.6216246479e-07 -4.1999999121 1.5 -6.1355785874e-07 
-4.1499999113 1.4499999993 2.3839790231e-07 -4.1499999113 1.5 -9.0212120085e-07 -4.0999999106 1.4499999993 3.403890787e-07 
-4.0999999106 1.5 -1.2877328572e-06 -4.0499999098 1.4499999993 4.7886487664e-07 -4.0499999098 1.5 -1.8103603452e-06 
-3.9999999091 1.4499999993 6.7041332841e-07 -3.9999999091 1.5 -2.5316787742e-06 -3.9499999084 1.4499999993 7.9389110397e-07 
[...]
CELL_DATA 9510
FIELD FieldData 4
Water_Depth_m 1 9510 float
0.639994 0.63998 0.639962 0.639942 0.639919 0.639892 0.639862 0.639828 0.639791 
0.639751 0.639709 0.639665 0.63962 0.639573 0.639527 0.639479 0.639432 0.639385 
0.639338 0.639292 0.639247 0.639202 0.639158 0.639116 0.639075 0.639037 0.639 
0.638967 0.638937 0.638912 0.638891 0.638875 0.638865 0.638861 0.638863 0.638873 
0.638889 0.638913 0.638943 0.638981 0.639024 0.639074 0.639128 0.639188 0.639251 
0.639317 0.639385 0.639455 0.639525 0.639596 0.639666 0.639735 0.639802 0.639866 
0.639929 0.639988 0.640045 0.640098 0.640148 0.640194 0.640237 0.640276 0.640312 
0.640344 0.640373 0.640398 0.640419 0.640438 0.640452 0.640464 0.640472 0.640478 
0.64048 0.640479 0.640475 0.640469 0.640459 0.640447 0.640432 0.640414 0.640394 
0.640371 0.640345 0.640317 0.640286 0.640253 0.640217 0.640179 0.640139 0.640097 
0.640054 0.640008 0.639962 0.639914 0.639866 0.639818 0.63977 0.639724 0.63968 
0.639638 0.6396 0.639567 0.639538 0.639516 0.6395 0.639491 0.63949 0.639496 
0.639511 0.639533 0.639562 0.639598 0.639641 0.63969 0.639745 0.639805 0.63987 
0.63994 0.640014 0.640093 0.640178 0.640269 0.640366 0.640472 0.640587 0.640712 
0.640848 0.641 0.641172 0.6414 0.641764 0.641751 0.63632 0.622947 0.603403 
0.579362 0.552115 0.522786 0.492422 0.462023 0.433118 0.406618 0.383613 0.365676 
0.354732 0.353056 0.353241 0.353409 0.353562 0.353702 0.353828 0.353942 0.354046 
0.354143 0.354234 0.354322 0.354408 0.354496 0.354649 0.354253 0.347241 0.324154 
0.306864 0.307271 0.311864 0.316042 0.319397 0.322027 0.323475 0.326064 0.33065 
0.335512 0.339545 0.34339 0.346772 0.352178 0.357266 0.362031 0.368996 0.372548 
0.378937 0.387672 0.393202 0.40142 0.409385 0.414407 0.419655 0.426961 0.436319 
0.44338 0.444671 0.446806 0.451841 0.45882 0.465162 0.474831 0.479769 0.481099 
0.426359 0.407131 0.385017 0.370753 0.369745 0.369772 0.369415 0.367156 0.363762 
0.362915 0.362889 0.359572 0.356794 0.356853 0.356909 0.356961 0.357012 0.357062 
0.35711 0.357156 0.3572 0.357242 0.357281 0.357319 0.357355 0.35739 0.357422 
0.357453 0.357483 0.357511 0.357538 0.357563 0.357588 0.357612 0.357634 0.357656 
0.357677 0.357697 0.357717 0.357736 0.357755 0.357773 0.35779 0.357808 0.357824 
0.357841 0.357857 0.357873 0.357888 0.357903 0.357918 0.357933 0.357948 0.357962 
0.357976 0.35799 0.358004 0.358017 0.358031 0.358044 0.358057 0.35807 0.358083 
0.358096 0.358108 0.358121 0.358133 0.358145 0.358158 0.358169 0.358181 0.358193 
0.358205 0.358216 0.358228 0.358239 0.35825 0.358262 0.358273 0.358283 0.358294 
0.358305 0.358316 0.358326 0.358336 0.358347 0.358357 0.358367 0.358377 0.358387 
0.358397 0.358406 0.358416 0.358425 0.358435 0.358444 0.353481 0.639994 0.63998 
0.639963 0.639943 0.63992 0.639893 0.639862 0.639828 0.63979 0.63975 0.639708 
0.639664 0.639618 0.639572 0.639525 0.639478 0.63943 0.639383 0.639337 0.63929 
0.639245 0.6392 0.639156 0.639114 0.639073 0.639034 0.638997 0.638964 0.638933 
0.638907 0.638886 0.638869 0.638859 0.638854 0.638857 0.638866 0.638882 0.638905 
0.638936 0.638973 0.639017 0.639067 0.639122 0.639181 0.639245 0.639312 0.63938 
0.639451 0.639522 0.639593 0.639663 0.639733 0.6398 0.639866 0.639928 0.639988 
0.640045 0.640099 0.640149 0.640196 0.640239 0.640278 0.640314 0.640347 0.640375 
0.6404 0.640422 0.64044 0.640455 0.640467 0.640476 0.640481 0.640483 0.640482 
0.640478 0.640471 0.640462 0.640449 0.640434 0.640416 0.640396 0.640372 0.640346 
0.640318 0.640287 0.640253 0.640217 0.640179 0.640139 0.640096 0.640052 0.640006 
0.639959 0.639911 0.639862 0.639814 0.639766 0.639719 0.639674 0.639632 0.639593 
0.639559 0.639531 0.639508 0.639492 0.639483 0.639482 0.639488 0.639503 0.639525 
0.639555 0.639592 0.639635 0.639685 0.63974 0.6398 0.639865 0.639934 0.640008 
0.640086 0.64017 0.640259 0.640355 0.640458 0.640569 0.64069 0.640821 0.640963 
0.641117 0.641284 0.641478 0.641536 0.636666 0.62398 0.604889 0.580956 0.553551 
0.523891 0.493091 0.462164 0.432431 0.405097 0.381715 0.36411 0.354408 0.353091 
0.353267 0.353428 0.353579 0.353717 0.353842 0.353956 0.35406 0.354156 0.354246 
0.354334 0.354421 0.354511 0.35483 0.354426 0.345677 0.316948 0.298316 0.305226 
0.308292 0.311116 0.314952 0.320013 0.324747 0.330236 0.334563 0.340077 0.345274 
0.351758 0.357714 0.363653 0.36847 0.37459 0.380851 0.388337 0.395209 0.402302 
0.409978 0.417762 0.42491 0.431254 0.43742 0.444836 0.453897 0.461101 0.461425 
0.457811 0.472301 0.483509 0.489669 0.497525 0.504865 0.505577 0.448258 0.435036 
0.410974 0.383182 0.372891 0.370737 0.369701 0.367859 0.364029 0.363413 0.363365 
0.359609 0.356765 0.356824 0.356882 0.356938 0.356992 0.357045 0.357095 0.357143 
0.357188 0.357231 0.357272 0.357311 0.357348 0.357383 0.357416 0.357448 0.357477 
0.357506 0.357533 0.357559 0.357584 0.357608 0.35763 0.357653 0.357674 0.357694 
0.357714 0.357733 0.357752 0.35777 0.357788 0.357805 0.357822 0.357839 0.357855 
0.357871 0.357886 0.357901 0.357917 0.357931 0.357946 0.35796 0.357974 0.357988 
0.358002 0.358016 0.358029 0.358043 0.358056 0.358069 0.358082 0.358094 0.358107 
0.35812 0.358132 0.358144 0.358156 0.358168 0.35818 0.358192 0.358204 0.358215 
0.358227 0.358238 0.35825 0.358261 0.358272 0.358283 0.358293 0.358304 0.358315 
0.358325 0.358336 0.358346 0.358356 0.358366 0.358376 0.358386 0.358396 0.358406 
0.358415 0.358425 0.358434 0.358443 0.353479 0.639994 0.639981 0.639964 0.639944 
0.63992 0.639893 0.639862 0.639827 0.639789 0.639749 0.639706 0.639661 0.639615 
0.639569 0.639522 0.639474 0.639427 0.63938 0.639333 0.639287 0.639241 0.639196 
0.639152 0.639109 0.639068 0.639028 0.638991 0.638956 0.638925 0.638898 0.638876 
0.638858 0.638847 0.638842 0.638843 0.638852 0.638868 0.638891 0.638921 0.638959 
0.639003 0.639054 0.639109 0.63917 0.639234 0.639302 0.639372 0.639443 0.639515 
0.639587 0.639659 0.639729 0.639798 0.639864 0.639928 0.639989 0.640046 0.640101 
0.640152 0.640199 0.640242 0.640282 0.640319 0.640351 0.64038 0.640406 0.640428 
0.640446 0.640461 0.640473 0.640482 0.640487 0.640489 0.640488 0.640484 0.640477 
0.640467 0.640454 0.640439 0.64042 0.640399 0.640376 0.640349 0.64032 0.640288 
0.640254 0.640218 0.640179 0.640138 0.640094 0.640049 0.640002 0.639954 0.639905 
0.639855 0.639805 0.639756 0.639708 0.639662 0.639619 0.639579 0.639544 0.639515 
0.639491 0.639475 0.639466 0.639465 0.639472 0.639487 0.63951 0.639541 0.639579 
0.639623 0.639673 0.639729 0.63979 0.639855 0.639924 0.639997 0.640074 0.640156 
0.640243 0.640337 0.640437 0.640546 0.640664 0.640792 0.640932 0.641085 0.641254 
0.641495 0.641504 0.636787 0.62445 0.60569 0.58192 0.554486 0.524637 0.49353 
0.462253 0.432101 0.404415 0.38097 0.363684 0.354369 0.353088 0.353275 0.353444 
0.353595 0.353731 0.353853 0.353963 0.354063 0.354153 0.354236 0.354314 0.354388 
0.354461 0.354758 0.354352 0.346371 0.319686 0.306133 0.314045 0.317727 0.320294 
0.323933 0.32856 0.333872 0.339445 0.345054 0.350845 0.356664 0.362908 0.369102 
0.374649 0.378517 0.383905 0.392231 0.400938 0.407974 0.414656 0.422272 0.430714 
0.439177 0.447314 0.453574 0.459635 0.467361 0.47272 0.475991 0.481286 0.491278 
0.505857 0.509113 0.514657 0.51748 0.517134 0.460649 0.449545 0.435498 0.411677 
0.386346 0.371426 0.369761 0.369028 0.365574 0.364224 0.364182 0.360117 0.356764 
0.356825 0.356884 0.356941 0.356996 0.357049 0.357099 0.357147 0.357193 0.357236 
0.357276 0.357315 0.357352 0.357386 0.357419 0.35745 0.35748 0.357508 0.357535 
0.357561 0.357586 0.357609 0.357632 0.357654 0.357675 0.357695 0.357715 0.357734 
0.357753 0.357771 0.357789 0.357806 0.357823 0.357839 0.357855 0.357871 0.357887 
0.357902 0.357917 0.357932 0.357946 0.35796 0.357975 0.357989 0.358002 0.358016 
0.358029 0.358043 0.358056 0.358069 0.358082 0.358095 0.358107 0.35812 0.358132 
0.358144 0.358157 0.358169 0.35818 0.358192 0.358204 0.358216 0.358227 0.358238 
0.35825 0.358261 0.358272 0.358283 0.358294 0.358304 0.358315 0.358325 0.358336 
0.358346 0.358356 0.358366 0.358376 0.358386 0.358396 0.358406 0.358415 0.358425 
0.358434 0.358443 0.353479 0.639995 0.639982 0.639965 0.639945 0.639921 0.639893 
0.639861 0.639826 0.639787 0.639746 0.639702 0.639657 0.63961 0.639563 0.639516 
0.639469 0.639422 0.639375 0.639328 0.639282 0.639237 0.639191 0.639147 0.639103 
0.639061 0.63902 0.638982 0.638946 0.638913 0.638885 0.638861 0.638842 0.638829 
0.638823 0.638823 0.638831 0.638846 0.63887 0.6389 0.638938 0.638983 0.639034 
0.639091 0.639153 0.639218 0.639288 0.639359 0.639432 0.639506 0.63958 0.639653 
0.639724 0.639794 0.639862 0.639927 0.639989 0.640048 0.640103 0.640155 0.640203 
0.640248 0.640289 0.640325 0.640359 0.640388 0.640414 0.640436 0.640455 0.640471 
0.640482 0.640491 0.640496 0.640498 0.640497 0.640492 0.640485 0.640475 0.640462 
0.640446 0.640427 0.640405 0.640381 0.640353 0.640324 0.640291 0.640256 0.640218 
0.640178 0.640136 0.640091 0.640045 0.639996 0.639947 0.639896 0.639845 0.639793 
0.639742 0.639692 0.639644 0.639599 0.639558 0.639521 0.63949 0.639466 0.639449 
0.63944 0.639439 0.639447 0.639463 0.639487 0.639519 0.639559 0.639605 0.639656 
0.639713 0.639775 0.63984 0.639909 0.639981 0.640056 0.640136 0.64022 0.64031 
0.640406 0.64051 0.640623 0.640746 0.640882 0.64103 0.641191 0.641426 0.641449 
0.636805 0.624647 0.606091 0.582454 0.555035 0.525084 0.49379 0.462308 0.431944 
0.404149 0.380741 0.363604 0.354417 0.353134 0.353319 0.353484 0.353632 0.353765 
0.353884 0.35399 0.354085 0.354171 0.354249 0.354319 0.354383 0.354439 0.354679 
0.354271 0.347395 0.325041 0.314318 0.322228 0.325699 0.328495 0.332252 0.33638 
0.340856 0.345913 0.352125 0.358706 0.364147 0.37001 0.376204 0.381769 0.385568 
0.390797 0.399979 0.409934 0.416592 0.423589 0.431179 0.440095 0.450081 0.459315 
0.466937 0.473523 0.478107 0.484074 0.489821 0.49812 0.502815 0.508819 0.514962 
0.522018 0.525661 0.528486 0.480812 0.463721 0.450616 0.433442 0.409842 0.382807 
0.370613 0.369235 0.366486 0.365482 0.365415 0.360455 0.356761 0.356824 0.356885 
0.356944 0.357 0.357053 0.357104 0.357152 0.357197 0.357241 0.357281 0.35732 
0.357356 0.35739 0.357423 0.357454 0.357483 0.357511 0.357538 0.357564 0.357588 
0.357612 0.357634 0.357656 0.357677 0.357697 0.357716 0.357736 0.357754 0.357772 
0.357789 0.357807 0.357823 0.35784 0.357856 0.357871 0.357887 0.357902 0.357917 
0.357932 0.357946 0.357961 0.357975 0.357989 0.358003 0.358016 0.35803 0.358043 
0.358056 0.358069 0.358082 0.358095 0.358107 0.35812 0.358132 0.358144 0.358157 
0.358169 0.35818 0.358192 0.358204 0.358215 0.358227 0.358238 0.35825 0.358261 
0.358272 0.358283 0.358293 0.358304 0.358315 0.358325 0.358336 0.358346 0.358356 
0.358366 0.358376 0.358386 0.358396 0.358406 0.358415 0.358425 0.358434 0.358443 
0.353479 0.639995 0.639983 0.639967 0.639947 0.639922 0.639893 0.639861 0.639824 
0.639784 0.639741 0.639697 0.639651 0.639604 0.639557 0.639509 0.639462 0.639415 
0.639369 0.639322 0.639276 0.639231 0.639185 0.63914 0.639095 0.639052 0.63901 
0.63897 0.638932 0.638898 0.638868 0.638842 0.638821 0.638807 0.638799 0.638798 
0.638805 0.63882 0.638842 0.638873 0.638912 0.638957 0.639009 0.639068 0.639131 
0.639199 0.63927 0.639343 0.639419 0.639494 0.63957 0.639645 0.639719 0.639791 
0.63986 0.639927 0.63999 0.640051 0.640107 0.64016 0.64021 0.640255 0.640297 
0.640335 0.640369 0.640399 0.640425 0.640448 0.640467 0.640483 0.640495 0.640503 
0.640509 0.64051 0.640509 0.640504 0.640496 0.640485 0.640472 0.640455 0.640435 
0.640413 0.640387 0.640359 0.640328 0.640294 0.640258 0.640219 0.640177 0.640133 
0.640087 0.640039 0.639988 0.639937 0.639884 0.63983 0.639776 0.639722 0.63967 
0.639619 0.639572 0.639528 0.63949 0.639457 0.639431 0.639413 0.639404 0.639403 
0.639412 0.63943 0.639456 0.63949 0.639532 0.63958 0.639634 0.639692 0.639755 
0.639821 0.63989 0.639961 0.640034 0.640111 0.64019 0.640275 0.640365 0.640463 
0.640569 0.640686 0.640816 0.640959 0.641118 0.641353 0.641377 0.636766 0.624699 
0.60626 0.582712 0.555319 0.525322 0.49393 0.462346 0.431888 0.404073 0.380711 
0.363638 0.354479 0.353193 0.353375 0.353537 0.353681 0.353809 0.353923 0.354025 
0.354115 0.354195 0.354266 0.354327 0.35438 0.35442 0.354608 0.35421 0.347989 
0.327564 0.318862 0.326796 0.330637 0.334129 0.340145 0.345166 0.346576 0.34958 
0.356471 0.362573 0.367874 0.373301 0.379379 0.385421 0.39093 0.39738 0.40486 
0.412721 0.421835 0.430027 0.438673 0.448084 0.459888 0.469949 0.476306 0.480696 
0.48328 0.486837 0.49476 0.50026 0.505385 0.517148 0.527229 0.530307 0.535081 
0.539088 0.505695 0.485547 0.463964 0.451064 0.43297 0.403846 0.379172 0.368578 
0.366622 0.3656 0.365518 0.360491 0.356761 0.356827 0.35689 0.35695 0.357007 
0.357061 0.357112 0.35716 0.357205 0.357248 0.357289 0.357327 0.357363 0.357397 
0.357429 0.357459 0.357488 0.357516 0.357542 0.357568 0.357592 0.357615 0.357637 
0.357658 0.357679 0.357699 0.357718 0.357737 0.357756 0.357773 0.357791 0.357808 
0.357824 0.357841 0.357857 0.357872 0.357888 0.357903 0.357918 0.357932 0.357947 
0.357961 0.357975 0.357989 0.358003 0.358016 0.35803 0.358043 0.358056 0.358069 
0.358082 0.358095 0.358107 0.35812 0.358132 0.358144 0.358157 0.358169 0.35818 
0.358192 0.358204 0.358216 0.358227 0.358238 0.35825 0.358261 0.358272 0.358283 
0.358294 0.358304 0.358315 0.358325 0.358336 0.358346 0.358356 0.358366 0.358376 
0.358386 0.358396 0.358406 0.358415 0.358425 0.358434 0.358443 0.353479 0.639996 
0.639984 0.639968 0.639948 0.639923 0.639894 0.63986 0.639822 0.639781 0.639737 
0.639691 0.639644 0.639597 0.63955 0.639502 0.639455 0.639409 0.639363 0.639317 
0.639271 0.639225 0.639179 0.639133 0.639087 0.639042 0.638999 0.638957 0.638917 
0.63888 0.638848 0.638819 0.638797 0.63878 0.63877 0.638768 0.638774 0.638788 
0.63881 0.638841 0.63888 0.638927 0.63898 0.63904 0.639106 0.639176 0.63925 
0.639326 0.639404 0.639482 0.63956 0.639638 0.639714 0.639788 0.639859 0.639928 
0.639993 0.640055 0.640113 0.640168 0.640218 0.640265 0.640308 0.640347 0.640382 
0.640413 0.64044 0.640463 0.640483 0.640498 0.640511 0.640519 0.640524 0.640526 
0.640524 0.640519 0.64051 0.640499 0.640484 0.640467 0.640446 0.640423 0.640396 
0.640366 0.640334 0.640299 0.640261 0.64022 0.640176 0.64013 0.640082 0.640031 
0.639978 0.639924 0.639868 0.639811 0.639754 0.639697 0.639642 0.639588 0.639537 
0.63949 0.639449 0.639414 0.639386 0.639367 0.639357 0.639357 0.639367 0.639387 
0.639416 0.639453 0.639498 0.639549 0.639606 0.639668 0.639733 0.6398 0.639868 
0.639938 0.640009 0.640081 0.640156 0.640234 0.640317 0.640406 0.640504 0.640611 
0.640732 0.640867 0.64102 0.641253 0.641279 0.636686 0.624664 0.606291 0.582802 
0.555437 0.52543 0.494002 0.46238 0.431889 0.404085 0.380759 0.363715 0.354561 
0.35327 0.353448 0.353605 0.353743 0.353866 0.353974 0.35407 0.354154 0.354228 
0.354292 0.354346 0.354388 0.354417 0.354578 0.354188 0.348127 0.328067 0.320501 
0.328942 0.333961 0.337932 0.342457 0.347535 0.352849 0.357838 0.361553 0.366311 
0.371335 0.376343 0.382287 0.388148 0.395695 0.403411 0.410965 0.419567 0.42858 
0.438653 0.447763 0.457303 0.468548 0.480511 0.483092 0.484874 0.491405 0.497719 
0.50513 0.509392 0.511101 0.53209 0.536011 0.542411 0.544533 0.54858 0.526487 
0.512 0.488719 0.468228 0.448268 0.42238 0.397377 0.374897 0.366703 0.365247 
0.365195 0.360494 0.356763 0.356832 0.356896 0.356958 0.357016 0.357071 0.357122 
0.35717 0.357215 0.357258 0.357298 0.357335 0.357371 0.357404 0.357436 0.357466 
0.357495 0.357522 0.357547 0.357572 0.357596 0.357619 0.357641 0.357662 0.357682 
0.357702 0.357721 0.357739 0.357758 0.357775 0.357792 0.357809 0.357826 0.357842 
0.357858 0.357873 0.357889 0.357904 0.357918 0.357933 0.357947 0.357962 0.357976 
0.35799 0.358003 0.358017 0.35803 0.358043 0.358056 0.358069 0.358082 0.358095 
0.358108 0.35812 0.358132 0.358145 0.358157 0.358169 0.358181 0.358192 0.358204 
0.358216 0.358227 0.358238 0.35825 0.358261 0.358272 0.358283 0.358294 0.358304 
0.358315 0.358325 0.358336 0.358346 0.358356 0.358366 0.358376 0.358386 0.358396 
0.358406 0.358415 0.358425 0.358434 0.358443 0.353479 0.639996 0.639986 0.63997 
0.63995 0.639925 0.639895 0.63986 0.639821 0.639778 0.639733 0.639687 0.639639 
0.639592 0.639544 0.639497 0.63945 0.639404 0.639358 0.639313 0.639266 0.63922 
0.639173 0.639126 0.639079 0.639033 0.638987 0.638943 0.6389 0.638861 0.638826 
0.638795 0.638769 0.63875 0.638739 0.638734 0.638739 0.638752 0.638773 0.638804 
0.638844 0.638892 0.638947 0.639009 0.639077 0.63915 0.639227 0.639306 0.639387 
0.639469 0.63955 0.63963 0.639709 0.639786 0.63986 0.63993 0.639998 0.640061 
0.640121 0.640177 0.640229 0.640277 0.640321 0.640361 0.640397 0.640429 0.640457 
0.640481 0.640501 0.640517 0.640529 0.640538 0.640543 0.640544 0.640542 0.640536 
0.640527 0.640515 0.6405 0.640481 0.640459 0.640434 0.640406 0.640375 0.640341 
0.640304 0.640264 0.640221 0.640175 0.640127 0.640075 0.640022 0.639966 0.639908 
0.639849 0.639789 0.639728 0.639667 0.639607 0.639549 0.639494 0.639443 0.639398 
0.63936 0.63933 0.63931 0.6393 0.6393 0.639312 0.639335 0.639367 0.639409 
0.639458 0.639514 0.639575 0.639641 0.639709 0.639778 0.639846 0.639915 0.639983 
0.640051 0.640119 0.64019 0.640264 0.640342 0.640428 0.640524 0.640633 0.640757 
0.6409 0.641127 0.641154 0.63657 0.624573 0.606239 0.582791 0.555457 0.525463 
0.494037 0.462419 0.431929 0.404145 0.380846 0.363816 0.35466 0.353364 0.353536 
0.353686 0.353818 0.353934 0.354036 0.354125 0.354203 0.35427 0.354327 0.354374 
0.354409 0.354431 0.354587 0.354208 0.348161 0.328203 0.321176 0.329785 0.334554 
0.338228 0.342683 0.348233 0.355101 0.36063 0.364462 0.369204 0.375968 0.383236 
0.38828 0.394675 0.402621 0.410883 0.419009 0.427366 0.437943 0.448042 0.459599 
0.469144 0.475282 0.480089 0.491735 0.502546 0.509332 0.516537 0.525487 0.529999 
0.536011 0.543307 0.549713 0.561581 0.56528 0.567854 0.542478 0.530671 0.510208 
0.484107 0.461631 0.440593 0.417896 0.385249 0.367684 0.366681 0.366004 0.360476 
0.356767 0.356839 0.356906 0.356969 0.357028 0.357083 0.357135 0.357183 0.357228 
0.35727 0.357309 0.357346 0.357381 0.357414 0.357445 0.357474 0.357502 0.357528 
0.357554 0.357578 0.357601 0.357623 0.357645 0.357665 0.357685 0.357705 0.357724 
0.357742 0.35776 0.357777 0.357794 0.357811 0.357827 0.357843 0.357859 0.357874 
0.35789 0.357904 0.357919 0.357934 0.357948 0.357962 0.357976 0.35799 0.358004 
0.358017 0.35803 0.358044 0.358057 0.35807 0.358083 0.358095 0.358108 0.35812 
0.358133 0.358145 0.358157 0.358169 0.358181 0.358192 0.358204 0.358216 0.358227 
0.358238 0.35825 0.358261 0.358272 0.358283 0.358294 0.358304 0.358315 0.358325 
0.358336 0.358346 0.358356 0.358366 0.358376 0.358386 0.358396 0.358406 0.358415 
0.358425 0.358434 0.358443 0.353479 0.639997 0.639988 0.639973 0.639953 0.639928 
0.639897 0.639861 0.639821 0.639778 0.639732 0.639685 0.639637 0.639589 0.639541 
0.639494 0.639448 0.639402 0.639356 0.63931 0.639264 0.639217 0.639169 0.639121 
0.639072 0.639023 0.638975 0.638928 0.638883 0.638841 0.638802 0.638768 0.63874 
0.638718 0.638703 0.638697 0.638699 0.638711 0.638733 0.638764 0.638804 0.638853 
0.638911 0.638975 0.639046 0.639122 0.639201 0.639284 0.639369 0.639454 0.639538 
0.639622 0.639704 0.639784 0.639861 0.639934 0.640004 0.64007 0.640132 0.64019 
0.640243 0.640293 0.640338 0.640379 0.640416 0.640448 0.640477 0.640502 0.640522 
0.640539 0.640551 0.64056 0.640565 0.640566 0.640563 0.640556 0.640547 0.640533 
0.640517 0.640497 0.640474 0.640448 0.640418 0.640385 0.640349 0.64031 0.640267 
0.640222 0.640173 0.640122 0.640068 0.640011 0.639952 0.63989 0.639827 0.639762 
0.639696 0.63963 0.639565 0.639502 0.639442 0.639387 0.639338 0.639296 0.639264 
0.639242 0.639232 0.639234 0.639248 0.639275 0.639312 0.639359 0.639415 0.639477 
0.639545 0.639616 0.639688 0.639758 0.639828 0.639895 0.63996 0.640023 0.640085 
0.640147 0.64021 0.640277 0.64035 0.640431 0.640524 0.640632 0.640761 0.640977 
0.641001 0.636423 0.624442 0.606136 0.582722 0.555422 0.525458 0.494059 0.462467 
0.431999 0.40424 0.380964 0.363941 0.35478 0.353476 0.35364 0.353782 0.353906 