# vtk DataFile Version 5.1
vtk output
ASCII
DATASET UNSTRUCTURED_GRID
POINTS 10043 double
-10.1 1.4499999993 0 -10.049999999 1.4499999993 0 -10.049999999 1.5 0 
-9.9999999985 1.4499999993 0 -9.9999999985 1.5 0 -9.9499999978 1.4499999993 0 
-9.9499999978 1.5 0 -9.899999997 1.4499999993 0 -9.899999997 1.5 0 
-9.8499999963 1.4499999993 0 -9.8499999963 1.5 0 -9.7999999955 1.4499999993 0 
-9.7999999955 1.5 0 -9.7499999948 1.4499999993 0 -9.7499999948 1.5 0 
-9.699999994 1.4499999993 0 -9.699999994 1.5 0 -9.6499999933 1.4499999993 0 
-9.6499999933 1.5 0 -9.5999999925 1.4499999993 0 -9.5999999925 1.5 0 
-9.5499999918 1.4499999993 0 -9.5499999918 1.5 0 -9.4999999911 1.4499999993 0 
-9.4999999911 1.5 0 -9.4499999903 1.4499999993 0 -9.4499999903 1.5 0 
-9.3999999896 1.4499999993 0 -9.3999999896 1.5 0 -9.3499999888 1.4499999993 0 
-9.3499999888 1.5 0 -9.2999999881 1.4499999993 0 -9.2999999881 1.5 0 
-9.2499999873 1.4499999993 0 -9.2499999873 1.5 0 -9.1999999866 1.4499999993 0 
-9.1999999866 1.5 0 -9.1499999858 1.4499999993 0 -9.1499999858 1.5 0 
-9.0999999851 1.4499999993 0 -9.0999999851 1.5 0 -9.0499999844 1.4499999993 0 
-9.0499999844 1.5 0 -8.9999999836 1.4499999993 0 -8.9999999836 1.5 0 
-8.9499999829 1.4499999993 0 -8.9499999829 1.5 0 -8.8999999821 1.4499999993 0 
-8.8999999821 1.5 0 -8.8499999814 1.4499999993 0 -8.8499999814 1.5 0 
-8.7999999806 1.4499999993 0 -8.7999999806 1.5 0 -8.7499999799 1.4499999993 0 
-8.7499999799 1.5 0 -8.6999999791 1.4499999993 0 -8.6999999791 1.5 0 
-8.6499999784 1.4499999993 0 -8.6499999784 1.5 0 -8.5999999776 1.4499999993 0 
-8.5999999776 1.5 0 -8.5499999769 1.4499999993 0 -8.5499999769 1.5 0 
-8.4999999762 1.4499999993 0 -8.4999999762 1.5 0 -8.4499999754 1.4499999993 0 
-8.4499999754 1.5 0 -8.3999999747 1.4499999993 0 -8.3999999747 1.5 0 
-8.3499999739 1.4499999993 0 -8.3499999739 1.5 0 -8.2999999732 1.4499999993 0 
-8.2999999732 1.5 0 -8.2499999724 1.4499999993 0 -8.2499999724 1.5 0 
-8.1999999717 1.4499999993 0 -8.1999999717 1.5 0 -8.1499999709 1.4499999993 0 
-8.1499999709 1.5 0 -8.0999999702 1.4499999993 0 -8.0999999702 1.5 0 
-8.0499999695 1.4499999993 0 -8.0499999695 1.5 0 -7.9999999687 1.4499999993 0 
-7.9999999687 1.5 0 -7.949999968 1.4499999993 0 -7.949999968 1.5 0 
-7.8999999672 1.4499999993 0 -7.8999999672 1.5 0 -7.8499999665 1.4499999993 0 
-7.8499999665 1.5 0 -7.7999999657 1.4499999993 0 -7.7999999657 1.5 0 
-7.749999965 1.4499999993 0 -7.749999965 1.5 0 -7.6999999642 1.4499999993 0 
-7.6999999642 1.5 0 -7.6499999635 1.4499999993 0 -7.6499999635 1.5 0 
-7.5999999627 1.4499999993 0 -7.5999999627 1.5 0 -7.549999962 1.4499999993 0 
-7.549999962 1.5 0 -7.4999999613 1.4499999993 0 -7.4999999613 1.5 0 
-7.4499999605 1.4499999993 0 -7.4499999605 1.5 0 -7.3999999598 1.4499999993 0 
-7.3999999598 1.5 0 -7.349999959 1.4499999993 0 -7.349999959 1.5 0 
-7.2999999583 1.4499999993 0 -7.2999999583 1.5 0 -7.2499999575 1.4499999993 0 
-7.2499999575 1.5 0 -7.1999999568 1.4499999993 0 -7.1999999568 1.5 0 
-7.149999956 1.4499999993 0 -7.149999956 1.5 0 -7.0999999553 1.4499999993 0 
-7.0999999553 1.5 0 -7.0499999546 1.4499999993 0 -7.0499999546 1.5 0 
-6.9999999538 1.4499999993 0 -6.9999999538 1.5 0 -6.9499999531 1.4499999993 0 
-6.9499999531 1.5 0 -6.8999999523 1.4499999993 0 -6.8999999523 1.5 0 
-6.8499999516 1.4499999993 0 -6.8499999516 1.5 0 -6.7999999508 1.4499999993 0 
-6.7999999508 1.5 0 -6.7499999501 1.4499999993 0 -6.7499999501 1.5 0 
-6.6999999493 1.4499999993 0 -6.6999999493 1.5 0 -6.6499999486 1.4499999993 0 
-6.6499999486 1.5 0 -6.5999999478 1.4499999993 0 -6.5999999478 1.5 0 
-6.5499999471 1.4499999993 0 -6.5499999471 1.5 0 -6.4999999464 1.4499999993 0 
-6.4999999464 1.5 0 -6.4499999456 1.4499999993 0 -6.4499999456 1.5 0 
-6.3999999449 1.4499999993 0 -6.3999999449 1.5 0 -6.3499999441 1.4499999993 0 
-6.3499999441 1.5 0 -6.2999999434 1.4499999993 0 -6.2999999434 1.5 0 
-6.2499999426 1.4499999993 0 -6.2499999426 1.5 0 -6.1999999419 1.4499999993 0 
-6.1999999419 1.5 0 -6.1499999411 1.4499999993 0 -6.1499999411 1.5 0 
-6.0999999404 1.4499999993 0 -6.0999999404 1.5 0 -6.0499999397 1.4499999993 0 
-6.0499999397 1.5 0 -5.9999999389 1.4499999993 0 -5.9999999389 1.5 0 
-5.9499999382 1.4499999993 0 -5.9499999382 1.5 0 -5.8999999374 1.4499999993 0 
-5.8999999374 1.5 0 -5.8499999367 1.4499999993 0 -5.8499999367 1.5 0 
-5.7999999359 1.4499999993 0 -5.7999999359 1.5 0 -5.7499999352 1.4499999993 0 
-5.7499999352 1.5 0 -5.6999999344 1.4499999993 0 -5.6999999344 1.5 0 
-5.6499999337 1.4499999993 0 -5.6499999337 1.5 0 -5.5999999329 1.4499999993 0 
-5.5999999329 1.5 0 -5.5499999322 1.4499999993 0 -5.5499999322 1.5 0 
-5.4999999315 1.4499999993 0 -5.4999999315 1.5 0 -5.4499999307 1.4499999993 0 
-5.4499999307 1.5 0 -5.39999993 1.4499999993 0 -5.39999993 1.5 0 
-5.3499999292 1.4499999993 0 -5.3499999292 1.5 0 -5.2999999285 1.4499999993 0 
-5.2999999285 1.5 0 -5.2499999277 1.4499999993 0 -5.2499999277 1.5 0 
-5.199999927 1.4499999993 0 -5.199999927 1.5 0 -5.1499999262 1.4499999993 0 
-5.1499999262 1.5 0 -5.0999999255 1.4499999993 0 -5.0999999255 1.5 0 
-5.0499999247 1.4499999993 0 -5.0499999247 1.5 0 -4.999999924 1.4499999993 0 
-4.999999924 1.5 0 -4.9499999233 1.4499999993 0 -4.9499999233 1.5 0 
-4.8999999225 1.4499999993 0 -4.8999999225 1.5 0 -4.8499999218 1.4499999993 0 
-4.8499999218 1.5 0 -4.799999921 1.4499999993 0 -4.799999921 1.5 0 
-4.7499999203 1.4499999993 0 -4.7499999203 1.5 0 -4.6999999195 1.4499999993 0 
-4.6999999195 1.5 0 -4.6499999188 1.4499999993 0 -4.6499999188 1.5 0 
-4.599999918 1.4499999993 0 -4.599999918 1.5 0 -4.5499999173 1.4499999993 0 
-4.5499999173 1.5 0 -4.4999999166 1.4499999993 0 -4.4999999166 1.5 0 
-4.4499999158 1.4499999993 0 -4.4499999158 1.5 0 -4.3999999151 1.4499999993 0 
-4.3999999151 1.5 0 -4.3499999143 1.4499999993 0 -4.3499999143 1.5 0 
-4.2999999136 1.4499999993 0 -4.2999999136 1.5 0 -4.2499999128 1.4499999993 0 
-4.2499999128 1.5 0 -4.1999999121 1.4499999993 0 -4.1999999121 1.5 0 
-4.1499999113 1.4499999993 0 -4.1499999113 1.5 0 -4.0999999106 1.4499999993 0 
-4.0999999106 1.5 0 -4.0499999098 1.4499999993 0 -4.0499999098 1.5 0 
-3.9999999091 1.4499999993 0 -3.9999999091 1.5 0 -3.9499999084 1.4499999993 0 
-3.9499999084 1.5 0 -3.8999999076 1.4499999993 0 -3.8999999076 1.5 0 
-3.8499999069 1.4499999993 0 -3.8499999069 1.5 0 -3.7999999061 1.4499999993 0 
-3.7999999061 1.5 0 -3.7499999054 1.4499999993 0 -3.7499999054 1.5 0 
-3.6999999046 1.4499999993 0 -3.6999999046 1.5 0 -3.6499999039 1.4499999993 0 
-3.6499999039 1.5 0 -3.5999999031 1.4499999993 0 -3.5999999031 1.5 0 
-3.5499999024 1.4499999993 0 -3.5499999024 1.5 0 -3.4999999017 1.4499999993 0 
-3.4999999017 1.5 0 -3.4499999009 1.4499999993 0 -3.4499999009 1.5 0 
-3.3999999002 1.4499999993 0 -3.3999999002 1.5 0 -3.3499998994 1.4499999993 0 
-3.3499998994 1.5 0 -3.2999998987 1.4499999993 0 -3.2999998987 1.5 0 
-3.2499998979 1.4499999993 0 -3.2499998979 1.5 0 -3.1999998972 1.4499999993 0 
-3.1999998972 1.5 0 -3.1499998964 1.4499999993 0 -3.1499998964 1.5 0 
-3.0999998957 1.4499999993 0 -3.0999998957 1.5 0 -3.0499998949 1.4499999993 0 
-3.0499998949 1.5 0 -2.9999998942 1.4499999993 0 -2.9999998942 1.5 0 
-2.9499998935 1.4499999993 0 -2.9499998935 1.5 0 -2.8999998927 1.4499999993 0 
-2.8999998927 1.5 0 -2.849999892 1.4499999993 0 -2.849999892 1.5 0 
-2.7999998912 1.4499999993 0 -2.7999998912 1.5 0 -2.7499998905 1.4499999993 0 
-2.7499998905 1.5 0 -2.6999998897 1.4499999993 0 -2.6999998897 1.5 0 
-2.649999889 1.4499999993 0 -2.649999889 1.5 0 -2.5999998882 1.4499999993 0 
-2.5999998882 1.5 0 -2.5499998875 1.4499999993 0 -2.5499998875 1.5 0 
-2.4999998868 1.4499999993 0 -2.4999998868 1.5 0 -2.449999886 1.4499999993 0 
-2.449999886 1.5 0 -2.3999998853 1.4499999993 0 -2.3999998853 1.5 0 
-2.3499998845 1.4499999993 0 -2.3499998845 1.5 0 -2.2999998838 1.4499999993 0 
-2.2999998838 1.5 0 -2.249999883 1.4499999993 0 -2.249999883 1.5 0 
-2.1999998823 1.4499999993 0 -2.1999998823 1.5 0 -2.1499998815 1.4499999993 0 
-2.1499998815 1.5 0 -2.0999998808 1.4499999993 0 -2.0999998808 1.5 0 
-2.04999988 1.4499999993 0 -2.04999988 1.5 0 -1.9999998793 1.4499999993 0 
-1.9999998793 1.5 0 -1.9499998786 1.4499999993 0 -1.9499998786 1.5 0 
-1.8999998778 1.4499999993 0 -1.8999998778 1.5 0 -1.8499998771 1.4499999993 0 
-1.8499998771 1.5 0 -1.7999998763 1.4499999993 0 -1.7999998763 1.5 0 
-1.7499998756 1.4499999993 0 -1.7499998756 1.5 0 -1.6999998748 1.4499999993 0 
-1.6999998748 1.5 0 -1.6499998741 1.4499999993 0 -1.6499998741 1.5 0 
-1.5999998733 1.4499999993 0 -1.5999998733 1.5 0 -1.5499998726 1.4499999993 0 
-1.5499998726 1.5 0 -1.4999998718 1.4499999993 0 -1.4999998718 1.5 0 
-1.4499998711 1.4499999993 0 -1.4499998711 1.5 0 -1.3999998704 1.4499999993 0 
-1.3999998704 1.5 0 -1.3499998696 1.4499999993 0 -1.3499998696 1.5 0 
-1.2999998689 1.4499999993 0 -1.2999998689 1.5 0 -1.2499998681 1.4499999993 0 
-1.2499998681 1.5 0 -1.1999998674 1.4499999993 0 -1.1999998674 1.5 0 
-1.1499998666 1.4499999993 0 -1.1499998666 1.5 0 -1.0999998659 1.4499999993 0 
-1.0999998659 1.5 0 -1.0499998651 1.4499999993 0 -1.0499998651 1.5 0 
-0.9999998644 1.4499999993 0 -0.9999998644 1.5 0 -0.94999986365 1.4499999993 0 
-0.94999986365 1.5 0 -0.89999986291 1.4499999993 0 -0.89999986291 1.5 0 
-0.84999986216 1.4499999993 0 -0.84999986216 1.5 0 -0.79999986142 1.4499999993 0 
-0.79999986142 1.5 0 -0.74999986067 1.4499999993 0 -0.74999986067 1.5 0 
-0.69999985993 1.4499999993 0 -0.69999985993 1.5 0 -0.64999985918 1.4499999993 0 
-0.64999985918 1.5 0 -0.59999985844 1.4499999993 0 -0.59999985844 1.5 0 
-0.54999985769 1.4499999993 0 -0.54999985769 1.5 0 -0.49999985695 1.4499999993 0 
-0.49999985695 1.5 0 -0.4499998562 1.4499999993 0 -0.4499998562 1.5 0 
-0.39999985546 1.4499999993 0 -0.39999985546 1.5 0 -0.34999985471 1.4499999993 0 
-0.34999985471 1.5 0 -0.29999985397 1.4499999993 0 -0.29999985397 1.5 0 
-0.24999985322 1.4499999993 0 -0.24999985322 1.5 0 -0.191663057 1.4499999993 0 
-0.17548248559 1.5 0 0.18862900414 1.4499999993 0 0.25000015423 1.4499999993 0 
[...]
CELL_DATA 9510
FIELD FieldData 4
Water_Depth_m 1 9510 float
0.479979 0.479934 0.479888 0.47984 0.479789 0.479736 0.479679 0.479619 0.479555 
0.479486 0.479414 0.479336 0.479254 0.479166 0.479074 0.478978 0.478879 0.478777 
0.478675 0.478573 0.478474 0.478378 0.478288 0.478204 0.478127 0.478058 0.477996 
0.477942 0.477895 0.477854 0.477819 0.477788 0.477761 0.477737 0.477716 0.477698 
0.477683 0.477669 0.477659 0.47765 0.477645 0.477642 0.477642 0.477646 0.477654 
0.477665 0.47768 0.477699 0.477722 0.47775 0.477781 0.477816 0.477855 0.477898 
0.477944 0.477993 0.478044 0.478098 0.478153 0.47821 0.478267 0.478325 0.478383 
0.47844 0.478495 0.47855 0.478602 0.478651 0.478698 0.478742 0.478782 0.478818 
0.478851 0.478879 0.478902 0.478921 0.478934 0.478942 0.478945 0.478943 0.478934 
0.47892 0.4789 0.478874 0.478842 0.478804 0.47876 0.478709 0.478652 0.47859 
0.478521 0.478448 0.478369 0.478287 0.4782 0.47811 0.478019 0.477925 0.477832 
0.477738 0.477647 0.477557 0.477471 0.47739 0.477314 0.477244 0.477183 0.47713 
0.477087 0.477054 0.477034 0.477026 0.477031 0.477049 0.47708 0.477123 0.477179 
0.477245 0.477321 0.477405 0.477495 0.477589 0.477684 0.47778 0.477874 0.477965 
0.47805 0.47813 0.478202 0.478266 0.478321 0.478368 0.478406 0.478434 0.478454 
0.478464 0.478466 0.47846 0.478446 0.478425 0.478397 0.478363 0.478323 0.478278 
0.47823 0.478179 0.478127 0.478074 0.478022 0.477973 0.477927 0.477886 0.47785 
0.477821 0.477799 0.477783 0.477774 0.477771 0.477773 0.477779 0.477789 0.4778 
0.477813 0.477827 0.47784 0.477852 0.477864 0.477875 0.477885 0.477895 0.477904 
0.477914 0.477924 0.477935 0.477947 0.477962 0.477978 0.477998 0.478021 0.478048 
0.47808 0.478116 0.478159 0.478209 0.478266 0.478331 0.478406 0.47849 0.478586 
0.478694 0.478814 0.478948 0.479096 0.479259 0.479437 0.479626 0.479838 0.480086 
0.482093 0.482315 0.482498 0.482668 0.482823 0.482965 0.483094 0.483211 0.483316 
0.483411 0.483496 0.483572 0.48364 0.483701 0.483756 0.483805 0.483848 0.483888 
0.483923 0.483954 0.483982 0.484008 0.484031 0.484051 0.48407 0.484086 0.484102 
0.484115 0.484128 0.484139 0.484149 0.484158 0.484167 0.484174 0.484182 0.484188 
0.484194 0.484199 0.484205 0.484209 0.484214 0.484218 0.484221 0.484225 0.484228 
0.484231 0.484234 0.484237 0.48424 0.484242 0.484245 0.484247 0.484249 0.484252 
0.484254 0.484256 0.484258 0.48426 0.484262 0.484264 0.484266 0.484267 0.484269 
0.484271 0.484273 0.484275 0.484276 0.484278 0.48428 0.484282 0.484284 0.484285 
0.484287 0.484289 0.484291 0.484292 0.484294 0.484296 0.484298 0.4843 0.484301 
0.484303 0.484305 0.484307 0.484309 0.484311 0.484312 0.484314 0.484316 0.484318 
0.48432 0.484322 0.484324 0.484326 0.484325 0.483045 0.478891 0.479979 0.479934 
0.479888 0.47984 0.479789 0.479736 0.479679 0.479618 0.479554 0.479485 0.479412 
0.479334 0.479251 0.479163 0.47907 0.478973 0.478873 0.47877 0.478667 0.478565 
0.478465 0.478369 0.478278 0.478194 0.478118 0.478049 0.477988 0.477935 0.477889 
0.477849 0.477814 0.477784 0.477757 0.477734 0.477714 0.477696 0.47768 0.477667 
0.477656 0.477647 0.477641 0.477638 0.477639 0.477642 0.477649 0.47766 0.477675 
0.477694 0.477717 0.477745 0.477776 0.477811 0.47785 0.477893 0.477939 0.477988 
0.47804 0.478094 0.47815 0.478207 0.478265 0.478323 0.478381 0.478438 0.478495 
0.47855 0.478602 0.478652 0.4787 0.478744 0.478785 0.478822 0.478854 0.478883 
0.478907 0.478925 0.478939 0.478948 0.478951 0.478948 0.47894 0.478926 0.478906 
0.47888 0.478848 0.478809 0.478764 0.478713 0.478656 0.478593 0.478524 0.478449 
0.47837 0.478286 0.478199 0.478108 0.478016 0.477922 0.477827 0.477733 0.47764 
0.47755 0.477463 0.477381 0.477304 0.477234 0.477172 0.477118 0.477075 0.477042 
0.477021 0.477013 0.477018 0.477036 0.477067 0.477112 0.477168 0.477236 0.477313 
0.477398 0.477489 0.477584 0.477682 0.477779 0.477875 0.477967 0.478053 0.478134 
0.478207 0.478272 0.478328 0.478375 0.478413 0.478442 0.478462 0.478473 0.478475 
0.478468 0.478454 0.478432 0.478403 0.478368 0.478327 0.478282 0.478232 0.47818 
0.478126 0.478072 0.478019 0.477968 0.477921 0.477879 0.477843 0.477814 0.477792 
0.477776 0.477768 0.477766 0.477769 0.477776 0.477787 0.477799 0.477813 0.477827 
0.47784 0.477853 0.477865 0.477876 0.477886 0.477895 0.477904 0.477913 0.477923 
0.477933 0.477945 0.477959 0.477976 0.477995 0.478017 0.478044 0.478075 0.478111 
0.478153 0.478201 0.478257 0.478321 0.478395 0.478478 0.478573 0.478679 0.478798 
0.478931 0.479079 0.47924 0.479416 0.479608 0.479817 0.48006 0.482094 0.482318 
0.482503 0.482673 0.482829 0.482972 0.483101 0.483217 0.483322 0.483417 0.483502 
0.483577 0.483645 0.483706 0.48376 0.483809 0.483852 0.483891 0.483926 0.483957 
0.483985 0.48401 0.484033 0.484053 0.484071 0.484088 0.484103 0.484116 0.484129 
0.48414 0.48415 0.484159 0.484167 0.484175 0.484182 0.484189 0.484194 0.4842 
0.484205 0.48421 0.484214 0.484218 0.484222 0.484225 0.484228 0.484232 0.484235 
0.484237 0.48424 0.484242 0.484245 0.484247 0.48425 0.484252 0.484254 0.484256 
0.484258 0.48426 0.484262 0.484264 0.484266 0.484267 0.484269 0.484271 0.484273 
0.484275 0.484276 0.484278 0.48428 0.484282 0.484284 0.484285 0.484287 0.484289 
0.484291 0.484292 0.484294 0.484296 0.484298 0.4843 0.484301 0.484303 0.484305 
0.484307 0.484309 0.484311 0.484312 0.484314 0.484316 0.484318 0.48432 0.484322 
0.484324 0.484326 0.484325 0.483045 0.478891 0.479979 0.479935 0.479888 0.47984 
0.479789 0.479735 0.479678 0.479616 0.479551 0.479482 0.479408 0.479329 0.479244 
0.479155 0.479061 0.478962 0.478861 0.478757 0.478652 0.478548 0.478447 0.47835 
0.478259 0.478175 0.478099 0.478032 0.477973 0.477921 0.477877 0.477839 0.477805 
0.477777 0.477751 0.477729 0.477709 0.477691 0.477675 0.477662 0.477651 0.477642 
0.477635 0.477632 0.477631 0.477634 0.477641 0.477652 0.477666 0.477685 0.477708 
0.477735 0.477766 0.477801 0.477841 0.477884 0.47793 0.477979 0.478032 0.478086 
0.478143 0.478201 0.47826 0.478319 0.478378 0.478436 0.478494 0.47855 0.478603 
0.478655 0.478703 0.478748 0.47879 0.478828 0.478862 0.478891 0.478915 0.478935 
0.478949 0.478958 0.478962 0.47896 0.478952 0.478937 0.478917 0.478891 0.478858 
0.478819 0.478773 0.478721 0.478663 0.478599 0.478528 0.478452 0.478371 0.478286 
0.478197 0.478104 0.47801 0.477914 0.477817 0.477722 0.477627 0.477535 0.477447 
0.477363 0.477285 0.477213 0.47715 0.477095 0.47705 0.477017 0.476995 0.476987 
0.476992 0.47701 0.477042 0.477088 0.477146 0.477215 0.477295 0.477383 0.477477 
0.477576 0.477676 0.477777 0.477875 0.47797 0.47806 0.478142 0.478218 0.478284 
0.478342 0.47839 0.478429 0.478458 0.478478 0.478489 0.478491 0.478484 0.478469 
0.478446 0.478415 0.478379 0.478336 0.478288 0.478236 0.478181 0.478125 0.478068 
0.478012 0.477959 0.47791 0.477867 0.47783 0.4778 0.477778 0.477763 0.477756 
0.477756 0.477761 0.47777 0.477782 0.477797 0.477812 0.477827 0.477842 0.477855 
0.477867 0.477877 0.477887 0.477896 0.477904 0.477912 0.477921 0.477931 0.477942 
0.477955 0.47797 0.477988 0.47801 0.478035 0.478064 0.478099 0.478139 0.478186 
0.47824 0.478302 0.478373 0.478455 0.478547 0.478651 0.478767 0.478898 0.479042 
0.479202 0.479377 0.479569 0.479776 0.480019 0.482096 0.482324 0.482512 0.482684 
0.482842 0.482985 0.483114 0.483231 0.483336 0.483429 0.483513 0.483589 0.483656 
0.483716 0.483769 0.483817 0.483859 0.483898 0.483932 0.483962 0.48399 0.484015 
0.484037 0.484057 0.484075 0.484091 0.484106 0.484119 0.484131 0.484142 0.484152 
0.484161 0.484169 0.484176 0.484183 0.48419 0.484195 0.484201 0.484206 0.48421 
0.484214 0.484218 0.484222 0.484226 0.484229 0.484232 0.484235 0.484238 0.48424 
0.484243 0.484245 0.484247 0.48425 0.484252 0.484254 0.484256 0.484258 0.48426 
0.484262 0.484264 0.484266 0.484268 0.484269 0.484271 0.484273 0.484275 0.484277 
0.484278 0.48428 0.484282 0.484284 0.484285 0.484287 0.484289 0.484291 0.484292 
0.484294 0.484296 0.484298 0.4843 0.484301 0.484303 0.484305 0.484307 0.484309 
0.484311 0.484313 0.484314 0.484316 0.484318 0.48432 0.484322 0.484324 0.484326 
0.484325 0.483045 0.478891 0.479979 0.479935 0.479888 0.47984 0.479788 0.479734 
0.479676 0.479614 0.479548 0.479477 0.479402 0.479321 0.479235 0.479144 0.479047 
0.478946 0.478842 0.478735 0.478628 0.478522 0.478419 0.47832 0.478229 0.478146 
0.478071 0.478006 0.477949 0.477901 0.477859 0.477824 0.477793 0.477766 0.477742 
0.477721 0.477702 0.477684 0.477669 0.477655 0.477643 0.477633 0.477626 0.477622 
0.477621 0.477623 0.477629 0.477639 0.477652 0.477671 0.477693 0.47772 0.477751 
0.477786 0.477826 0.477869 0.477916 0.477966 0.478019 0.478075 0.478132 0.478192 
0.478252 0.478312 0.478373 0.478433 0.478492 0.47855 0.478605 0.478658 0.478708 
0.478755 0.478798 0.478837 0.478872 0.478903 0.478929 0.478949 0.478964 0.478974 
0.478978 0.478976 0.478969 0.478955 0.478934 0.478907 0.478874 0.478834 0.478787 
0.478734 0.478674 0.478608 0.478535 0.478457 0.478373 0.478285 0.478193 0.478098 
0.478001 0.477902 0.477803 0.477704 0.477607 0.477513 0.477422 0.477336 0.477256 
0.477182 0.477116 0.47706 0.477014 0.476979 0.476956 0.476947 0.476952 0.476971 
0.477004 0.477051 0.477112 0.477184 0.477268 0.47736 0.477459 0.477562 0.477668 
0.477773 0.477877 0.477976 0.478069 0.478155 0.478233 0.478303 0.478362 0.478412 
0.478452 0.478483 0.478503 0.478514 0.478515 0.478507 0.478491 0.478466 0.478434 
0.478395 0.478349 0.478298 0.478242 0.478183 0.478123 0.478062 0.478002 0.477945 
0.477893 0.477847 0.477808 0.477777 0.477756 0.477743 0.477738 0.47774 0.477748 
0.477761 0.477777 0.477794 0.477811 0.477828 0.477844 0.477858 0.47787 0.47788 
0.477889 0.477897 0.477904 0.477911 0.477919 0.477927 0.477937 0.477948 0.477962 
0.477978 0.477998 0.478022 0.478049 0.478082 0.47812 0.478164 0.478215 0.478274 
0.478342 0.478419 0.478507 0.478607 0.47872 0.478847 0.478988 0.479144 0.479317 
0.479509 0.479715 0.479959 0.4821 0.482334 0.482526 0.482701 0.482861 0.483005 
0.483135 0.483252 0.483356 0.483448 0.483531 0.483605 0.483671 0.48373 0.483782 
0.483829 0.48387 0.483907 0.483941 0.48397 0.483997 0.484021 0.484043 0.484062 
0.484079 0.484095 0.484109 0.484122 0.484134 0.484145 0.484154 0.484163 0.484171 
0.484178 0.484185 0.484191 0.484197 0.484202 0.484207 0.484211 0.484215 0.484219 
0.484223 0.484226 0.484229 0.484232 0.484235 0.484238 0.484241 0.484243 0.484245 
0.484248 0.48425 0.484252 0.484254 0.484256 0.484258 0.48426 0.484262 0.484264 
0.484266 0.484268 0.484269 0.484271 0.484273 0.484275 0.484277 0.484278 0.48428 
0.484282 0.484284 0.484285 0.484287 0.484289 0.484291 0.484292 0.484294 0.484296 
0.484298 0.4843 0.484301 0.484303 0.484305 0.484307 0.484309 0.484311 0.484313 
0.484314 0.484316 0.484318 0.48432 0.484322 0.484324 0.484326 0.484325 0.483045 
0.478891 0.479979 0.479935 0.479888 0.47984 0.479788 0.479733 0.479674 0.479611 
0.479544 0.479471 0.479394 0.479311 0.479223 0.479129 0.479029 0.478925 0.478817 
0.478706 0.478595 0.478486 0.47838 0.478281 0.478189 0.478107 0.478034 0.477972 
0.477919 0.477874 0.477837 0.477805 0.477778 0.477754 0.477732 0.477712 0.477694 
0.477677 0.477661 0.477646 0.477634 0.477623 0.477615 0.477609 0.477607 0.477608 
0.477613 0.477622 0.477635 0.477652 0.477674 0.4777 0.477731 0.477767 0.477806 
0.47785 0.477898 0.477949 0.478003 0.47806 0.478119 0.478179 0.478241 0.478304 
0.478366 0.478429 0.47849 0.478549 0.478607 0.478662 0.478714 0.478763 0.478808 
0.47885 0.478887 0.478919 0.478946 0.478968 0.478984 0.478995 0.479 0.478999 
0.478991 0.478977 0.478957 0.478929 0.478895 0.478854 0.478806 0.47875 0.478688 
0.478619 0.478544 0.478463 0.478376 0.478284 0.478188 0.47809 0.477988 0.477886 
0.477783 0.477681 0.477581 0.477483 0.477389 0.4773 0.477216 0.47714 0.477072 
0.477013 0.476964 0.476927 0.476904 0.476894 0.476898 0.476918 0.476952 0.477002 
0.477065 0.477142 0.477231 0.477329 0.477434 0.477544 0.477657 0.477769 0.477878 
0.477983 0.478082 0.478173 0.478255 0.478327 0.47839 0.478442 0.478484 0.478515 
0.478536 0.478547 0.478548 0.478539 0.478521 0.478494 0.478459 0.478416 0.478367 
0.478311 0.47825 0.478186 0.47812 0.478053 0.477987 0.477925 0.477868 0.477819 
0.477778 0.477746 0.477725 0.477714 0.477712 0.477718 0.477731 0.477749 0.477769 
0.47779 0.477812 0.477831 0.477848 0.477863 0.477875 0.477884 0.477892 0.477898 
0.477904 0.477909 0.477915 0.477922 0.47793 0.477939 0.477951 0.477966 0.477983 
0.478004 0.47803 0.478059 0.478094 0.478135 0.478182 0.478237 0.4783 0.478372 
0.478455 0.47855 0.478657 0.478779 0.478915 0.479066 0.479236 0.479426 0.479631 
0.479876 0.482104 0.482348 0.482546 0.482726 0.482888 0.483034 0.483164 0.483279 
0.483382 0.483474 0.483555 0.483628 0.483692 0.483749 0.483799 0.483844 0.483884 
0.48392 0.483952 0.483981 0.484007 0.48403 0.48405 0.484069 0.484086 0.484101 
0.484115 0.484127 0.484138 0.484148 0.484158 0.484166 0.484174 0.484181 0.484187 
0.484193 0.484199 0.484204 0.484208 0.484213 0.484217 0.48422 0.484224 0.484227 
0.48423 0.484233 0.484236 0.484239 0.484241 0.484244 0.484246 0.484248 0.48425 
0.484252 0.484254 0.484256 0.484258 0.48426 0.484262 0.484264 0.484266 0.484268 
0.48427 0.484271 0.484273 0.484275 0.484277 0.484278 0.48428 0.484282 0.484284 
0.484285 0.484287 0.484289 0.484291 0.484293 0.484294 0.484296 0.484298 0.4843 
0.484301 0.484303 0.484305 0.484307 0.484309 0.484311 0.484313 0.484314 0.484316 
0.484318 0.48432 0.484322 0.484324 0.484326 0.484325 0.483045 0.478891 0.479979 
0.479935 0.479889 0.47984 0.479787 0.479732 0.479672 0.479608 0.479539 0.479464 
0.479385 0.479299 0.479207 0.47911 0.479006 0.478898 0.478785 0.47867 0.478555 
0.478441 0.478333 0.478232 0.47814 0.478059 0.47799 0.477932 0.477884 0.477844 
0.477812 0.477785 0.477762 0.477741 0.477722 0.477704 0.477686 0.477669 0.477652 
0.477637 0.477623 0.477611 0.477602 0.477595 0.477591 0.47759 0.477594 0.477601 
0.477613 0.47763 0.477651 0.477677 0.477707 0.477743 0.477782 0.477827 0.477875 
0.477927 0.477982 0.47804 0.478101 0.478164 0.478228 0.478293 0.478358 0.478423 
0.478486 0.478549 0.478609 0.478667 0.478722 0.478773 0.478821 0.478865 0.478904 
0.478938 0.478967 0.478991 0.479009 0.479021 0.479027 0.479026 0.479019 0.479005 
0.478984 0.478956 0.478921 0.478879 0.478829 0.478771 0.478706 0.478634 0.478555 
0.47847 0.478379 0.478282 0.478182 0.478078 0.477972 0.477865 0.477758 0.477651 
0.477547 0.477445 0.477347 0.477254 0.477167 0.477087 0.477015 0.476953 0.476901 
0.476862 0.476836 0.476825 0.476829 0.47685 0.476886 0.476937 0.477005 0.477087 
0.477183 0.477289 0.477402 0.477521 0.477642 0.477763 0.47788 0.477993 0.478098 
0.478195 0.478282 0.478359 0.478424 0.478479 0.478523 0.478555 0.478577 0.478588 
0.478588 0.478578 0.478558 0.478529 0.47849 0.478443 0.478389 0.478328 0.478261 
0.478189 0.478116 0.478041 0.477968 0.477899 0.477836 0.477781 0.477737 0.477704 
0.477684 0.477676 0.477679 0.477691 0.47771 0.477734 0.477761 0.477788 0.477813 
0.477836 0.477855 0.47787 0.477882 0.477891 0.477897 0.477901 0.477904 0.477907 
0.477911 0.477915 0.477921 0.477928 0.477938 0.47795 0.477965 0.477983 0.478005 
0.478032 0.478062 0.478099 0.478141 0.478191 0.478248 0.478314 0.478391 0.478478 
0.478579 0.478693 0.478822 0.478968 0.479132 0.479317 0.47952 0.479766 0.482112 
0.482367 0.482573 0.482758 0.482923 0.48307 0.4832 0.483315 0.483417 0.483506 
0.483585 0.483655 0.483717 0.483772 0.483821 0.483864 0.483902 0.483936 0.483967 
0.483994 0.484019 0.48404 0.48406 0.484078 0.484094 0.484108 0.484121 0.484133 
0.484143 0.484153 0.484162 0.48417 0.484177 0.484184 0.48419 0.484196 0.484201 
0.484206 0.48421 0.484214 0.484218 0.484222 0.484225 0.484228 0.484231 0.484234 
0.484237 0.484239 0.484242 0.484244 0.484246 0.484249 0.484251 0.484253 0.484255 
0.484257 0.484259 0.484261 0.484262 0.484264 0.484266 0.484268 0.48427 0.484271 
0.484273 0.484275 0.484277 0.484279 0.48428 0.484282 0.484284 0.484286 0.484287 
0.484289 0.484291 0.484293 0.484294 0.484296 0.484298 0.4843 0.484301 0.484303 
0.484305 0.484307 0.484309 0.484311 0.484313 0.484314 0.484316 0.484318 0.48432 
0.484322 0.484324 0.484326 0.484325 0.483045 0.478891 0.479979 0.479935 0.479889 
0.47984 0.479787 0.479731 0.47967 0.479604 0.479533 0.479456 0.479374 0.479285 
0.47919 0.479088 0.47898 0.478866 0.478748 0.478628 0.478508 0.47839 0.478279 
0.478177 0.478086 0.478008 0.477943 0.47789 0.477848 0.477815 0.477789 0.477767 
0.477748 0.47773 0.477713 0.477696 0.477678 0.477661 0.477644 0.477627 0.477612 
0.477599 0.477587 0.477578 0.477573 0.477571 0.477573 0.477579 0.477589 0.477605 
0.477625 0.47765 0.47768 0.477715 0.477755 0.4778 0.477849 0.477901 0.477958 
0.478018 0.478081 0.478146 0.478212 0.47828 0.478348 0.478415 0.478482 0.478548 
0.478611 0.478672 0.47873 0.478785 0.478836 0.478882 0.478924 0.478961 0.478992 
0.479018 0.479038 0.479052 0.479059 0.479059 0.479052 0.479039 0.479018 0.478989 
0.478953 0.478908 0.478856 0.478796 0.478727 0.478651 0.478568 0.478478 0.478381 
0.47828 0.478174 0.478064 0.477952 0.47784 0.477727 0.477615 0.477505 0.477399 
0.477296 0.477199 0.477107 0.477022 0.476946 0.47688 0.476824 0.476782 0.476753 
0.47674 0.476744 0.476765 0.476803 0.476858 0.47693 0.47702 0.477124 0.47724 
0.477364 0.477494 0.477625 0.477756 0.477883 0.478004 0.478117 0.478221 0.478314 
0.478396 0.478466 0.478524 0.478569 0.478603 0.478626 0.478637 0.478637 0.478626 
0.478603 0.478571 0.478528 0.478476 0.478416 0.478348 0.478273 0.478193 0.47811 
0.478026 0.477943 0.477864 0.477793 0.477732 0.477684 0.47765 0.477631 0.477627 
0.477636 0.477656 0.477684 0.477717 0.477752 0.477786 0.477817 0.477844 0.477865 
0.477881 0.477892 0.477899 0.477903 0.477904 0.477905 0.477905 0.477906 0.477908 
0.477911 0.477916 0.477923 0.477932 0.477944 0.477959 0.477977 0.477999 0.478026 
0.478057 0.478094 0.478137 0.478187 0.478246 0.478314 0.478393 0.478485 0.47859 
0.47871 0.478847 0.479004 0.479182 0.47938 0.479626 0.482124 0.482393 0.482608 
0.482799 0.482968 0.483116 0.483245 0.483359 0.483458 0.483545 0.483622 0.483689 
0.483748 0.4838 0.483846 0.483887 0.483923 0.483955 0.483984 0.48401 0.484032 
0.484053 0.484071 0.484088 0.484103 0.484116 0.484128 0.48414 0.484149 0.484158 
0.484167 0.484174 0.484181 0.484187 0.484193 0.484199 0.484203 0.484208 0.484212 
0.484216 0.48422 0.484223 0.484226 0.484229 0.484232 0.484235 0.484238 0.48424 
0.484242 0.484245 0.484247 0.484249 0.484251 0.484253 0.484255 0.484257 0.484259 
0.484261 0.484263 0.484265 0.484266 0.484268 0.48427 0.484272 0.484273 0.484275 
0.484277 0.484279 0.48428 0.484282 0.484284 0.484286 0.484287 0.484289 0.484291 
0.484293 0.484294 0.484296 0.484298 0.4843 0.484302 0.484303 0.484305 0.484307 
0.484309 0.484311 0.484313 0.484314 0.484316 0.484318 0.48432 0.484322 0.484324 
0.484326 0.484325 0.483045 0.478891 0.479979 0.479936 0.47989 0.479841 0.479787 
0.47973 0.479668 0.4796 0.479527 0.479448 0.479362 0.47927 0.47917 0.479064 
0.478951 0.478831 0.478708 0.478582 0.478457 0.478336 0.478223 0.478121 0.478032 
0.477958 0.477899 0.477852 0.477817 0.47779 0.47777 0.477752 0.477737 0.477721 
0.477706 0.477689 0.477671 0.477653 0.477635 0.477617 0.4776 0.477585 0.477571 
0.477561 0.477553 0.477549 0.47755 0.477554 0.477563 0.477577 0.477597 0.477621 
0.47765 0.477685 0.477725 0.47777 0.47782 0.477874 0.477932 0.477993 0.478058 
0.478125 0.478195 0.478265 0.478336 0.478407 0.478477 0.478546 0.478613 0.478678 
0.47874 0.478798 0.478852 0.478902 0.478947 0.478987 0.479021 0.479049 0.479071 
0.479086 0.479095 0.479096 0.47909 0.479077 0.479056 0.479026 0.478989 0.478943 
0.478888 0.478824 0.478752 0.478672 0.478583 0.478487 0.478384 0.478276 0.478163 
0.478046 0.477928 0.477808 0.477689 0.477572 0.477456 0.477344 0.477236 0.477133 
0.477036 0.476946 0.476865 0.476793 0.476733 0.476686 0.476655 0.47664 0.476644 
0.476666 0.476707 0.476765 0.476845 0.476944 0.477059 0.477186 0.477323 0.477465 
0.477608 0.477751 0.477888 0.478019 0.478141 0.478252 0.478352 0.478439 0.478513 
0.478575 0.478623 0.478659 0.478682 0.478693 0.478693 0.47868 0.478656 0.478619 
0.478572 0.478515 0.478448 0.478372 0.478288 0.478198 0.478103 0.478007 0.477911 