# vtk DataFile Version 5.1
vtk output
ASCII
DATASET UNSTRUCTURED_GRID
POINTS 10043 double
-10.1 1.4499999993 0 -10.049999999 1.4499999993 0 -10.049999999 1.5 0 
-9.9999999985 1.4499999993 0 -9.9999999985 1.5 0 -9.9499999978 1.4499999993 0 
-9.9499999978 1.5 0 -9.899999997 1.4499999993 0 -9.899999997 1.5 0 
-9.8499999963 1.4499999993 0 -9.8499999963 1.5 0 -9.7999999955 1.4499999993 0 
-9.7999999955 1.5 0 -9.7499999948 1.4499999993 0 -9.7499999948 1.5 0 
-9.699999994 1.4499999993 0 -9.699999994 1.5 0 -9.6499999933 1.4499999993 0 
-9.6499999933 1.5 0 -9.5999999925 1.4499999993 0 -9.5999999925 1.5 0 
-9.5499999918 1.4499999993 0 -9.5499999918 1.5 0 -9.4999999911 1.4499999993 0 
-9.4999999911 1.5 0 -9.4499999903 1.4499999993 0 -9.4499999903 1.5 0 
-9.3999999896 1.4499999993 0 -9.3999999896 1.5 0 -9.3499999888 1.4499999993 0 
-9.3499999888 1.5 0 -9.2999999881 1.4499999993 0 -9.2999999881 1.5 0 
-9.2499999873 1.4499999993 0 -9.2499999873 1.5 0 -9.1999999866 1.4499999993 0 
-9.1999999866 1.5 0 -9.1499999858 1.4499999993 0 -9.1499999858 1.5 0 
-9.0999999851 1.4499999993 0 -9.0999999851 1.5 0 -9.0499999844 1.4499999993 0 
-9.0499999844 1.5 0 -8.9999999836 1.4499999993 0 -8.9999999836 1.5 0 
-8.9499999829 1.4499999993 0 -8.9499999829 1.5 0 -8.8999999821 1.4499999993 0 
-8.8999999821 1.5 0 -8.8499999814 1.4499999993 0 -8.8499999814 1.5 0 
-8.7999999806 1.4499999993 0 -8.7999999806 1.5 0 -8.7499999799 1.4499999993 0 
-8.7499999799 1.5 0 -8.6999999791 1.4499999993 0 -8.6999999791 1.5 0 
-8.6499999784 1.4499999993 0 -8.6499999784 1.5 0 -8.5999999776 1.4499999993 0 
-8.5999999776 1.5 0 -8.5499999769 1.4499999993 0 -8.5499999769 1.5 0 
-8.4999999762 1.4499999993 0 -8.4999999762 1.5 0 -8.4499999754 1.4499999993 0 
-8.4499999754 1.5 0 -8.3999999747 1.4499999993 0 -8.3999999747 1.5 0 
-8.3499999739 1.4499999993 0 -8.3499999739 1.5 0 -8.2999999732 1.4499999993 0 
-8.2999999732 1.5 0 -8.2499999724 1.4499999993 0 -8.2499999724 1.5 0 
-8.1999999717 1.4499999993 0 -8.1999999717 1.5 0 -8.1499999709 1.4499999993 0 
-8.1499999709 1.5 0 -8.0999999702 1.4499999993 0 -8.0999999702 1.5 0 
-8.0499999695 1.4499999993 0 -8.0499999695 1.5 0 -7.9999999687 1.4499999993 0 
-7.9999999687 1.5 0 -7.949999968 1.4499999993 0 -7.949999968 1.5 0 
-7.8999999672 1.4499999993 0 -7.8999999672 1.5 0 -7.8499999665 1.4499999993 0 
-7.8499999665 1.5 0 -7.7999999657 1.4499999993 0 -7.7999999657 1.5 0 
-7.749999965 1.4499999993 0 -7.749999965 1.5 0 -7.6999999642 1.4499999993 0 
-7.6999999642 1.5 0 -7.6499999635 1.4499999993 0 -7.6499999635 1.5 0 
-7.5999999627 1.4499999993 0 -7.5999999627 1.5 0 -7.549999962 1.4499999993 0 
-7.549999962 1.5 0 -7.4999999613 1.4499999993 0 -7.4999999613 1.5 0 
-7.4499999605 1.4499999993 0 -7.4499999605 1.5 0 -7.3999999598 1.4499999993 0 
-7.3999999598 1.5 0 -7.349999959 1.4499999993 0 -7.349999959 1.5 0 
-7.2999999583 1.4499999993 0 -7.2999999583 1.5 0 -7.2499999575 1.4499999993 0 
-7.2499999575 1.5 0 -7.1999999568 1.4499999993 0 -7.1999999568 1.5 0 
-7.149999956 1.4499999993 0 -7.149999956 1.5 0 -7.0999999553 1.4499999993 0 
-7.0999999553 1.5 0 -7.0499999546 1.4499999993 0 -7.0499999546 1.5 0 
-6.9999999538 1.4499999993 0 -6.9999999538 1.5 0 -6.9499999531 1.4499999993 0 
-6.9499999531 1.5 0 -6.8999999523 1.4499999993 0 -6.8999999523 1.5 0 
-6.8499999516 1.4499999993 0 -6.8499999516 1.5 0 -6.7999999508 1.4499999993 0 
-6.7999999508 1.5 0 -6.7499999501 1.4499999993 0 -6.7499999501 1.5 0 
-6.6999999493 1.4499999993 0 -6.6999999493 1.5 0 -6.6499999486 1.4499999993 0 
-6.6499999486 1.5 0 -6.5999999478 1.4499999993 0 -6.5999999478 1.5 0 
-6.5499999471 1.4499999993 0 -6.5499999471 1.5 0 -6.4999999464 1.4499999993 0 
-6.4999999464 1.5 0 -6.4499999456 1.4499999993 0 -6.4499999456 1.5 0 
-6.3999999449 1.4499999993 0 -6.3999999449 1.5 0 -6.3499999441 1.4499999993 0 
-6.3499999441 1.5 0 -6.2999999434 1.4499999993 0 -6.2999999434 1.5 0 
-6.2499999426 1.4499999993 0 -6.2499999426 1.5 0 -6.1999999419 1.4499999993 0 
-6.1999999419 1.5 0 -6.1499999411 1.4499999993 0 -6.1499999411 1.5 0 
-6.0999999404 1.4499999993 0 -6.0999999404 1.5 0 -6.0499999397 1.4499999993 0 
-6.0499999397 1.5 0 -5.9999999389 1.4499999993 0 -5.9999999389 1.5 0 
-5.9499999382 1.4499999993 0 -5.9499999382 1.5 0 -5.8999999374 1.4499999993 0 
-5.8999999374 1.5 0 -5.8499999367 1.4499999993 0 -5.8499999367 1.5 0 
-5.7999999359 1.4499999993 0 -5.7999999359 1.5 0 -5.7499999352 1.4499999993 0 
-5.7499999352 1.5 0 -5.6999999344 1.4499999993 0 -5.6999999344 1.5 0 
-5.6499999337 1.4499999993 0 -5.6499999337 1.5 0 -5.5999999329 1.4499999993 0 
-5.5999999329 1.5 0 -5.5499999322 1.4499999993 0 -5.5499999322 1.5 0 
-5.4999999315 1.4499999993 0 -5.4999999315 1.5 0 -5.4499999307 1.4499999993 0 
-5.4499999307 1.5 0 -5.39999993 1.4499999993 0 -5.39999993 1.5 0 
-5.3499999292 1.4499999993 0 -5.3499999292 1.5 0 -5.2999999285 1.4499999993 0 
-5.2999999285 1.5 0 -5.2499999277 1.4499999993 0 -5.2499999277 1.5 0 
-5.199999927 1.4499999993 0 -5.199999927 1.5 0 -5.1499999262 1.4499999993 0 
-5.1499999262 1.5 0 -5.0999999255 1.4499999993 0 -5.0999999255 1.5 0 
-5.0499999247 1.4499999993 0 -5.0499999247 1.5 0 -4.999999924 1.4499999993 0 
-4.999999924 1.5 0 -4.9499999233 1.4499999993 0 -4.9499999233 1.5 0 
-4.8999999225 1.4499999993 0 -4.8999999225 1.5 0 -4.8499999218 1.4499999993 0 
-4.8499999218 1.5 0 -4.799999921 1.4499999993 0 -4.799999921 1.5 0 
-4.7499999203 1.4499999993 0 -4.7499999203 1.5 0 -4.6999999195 1.4499999993 0 
-4.6999999195 1.5 0 -4.6499999188 1.4499999993 0 -4.6499999188 1.5 0 
-4.599999918 1.4499999993 0 -4.599999918 1.5 0 -4.5499999173 1.4499999993 0 
-4.5499999173 1.5 0 -4.4999999166 1.4499999993 0 -4.4999999166 1.5 0 
-4.4499999158 1.4499999993 0 -4.4499999158 1.5 0 -4.3999999151 1.4499999993 0 
-4.3999999151 1.5 0 -4.3499999143 1.4499999993 0 -4.3499999143 1.5 0 
-4.2999999136 1.4499999993 0 -4.2999999136 1.5 0 -4.2499999128 1.4499999993 0 
-4.2499999128 1.5 0 -4.1999999121 1.4499999993 0 -4.1999999121 1.5 0 
-4.1499999113 1.4499999993 0 -4.1499999113 1.5 0 -4.0999999106 1.4499999993 0 
-4.0999999106 1.5 0 -4.0499999098 1.4499999993 0 -4.0499999098 1.5 0 
-3.9999999091 1.4499999993 0 -3.9999999091 1.5 0 -3.9499999084 1.4499999993 0 
-3.9499999084 1.5 0 -3.8999999076 1.4499999993 0 -3.8999999076 1.5 0 
-3.8499999069 1.4499999993 0 -3.8499999069 1.5 0 -3.7999999061 1.4499999993 0 
-3.7999999061 1.5 0 -3.7499999054 1.4499999993 0 -3.7499999054 1.5 0 
-3.6999999046 1.4499999993 0 -3.6999999046 1.5 0 -3.6499999039 1.4499999993 0 
-3.6499999039 1.5 0 -3.5999999031 1.4499999993 0 -3.5999999031 1.5 0 
-3.5499999024 1.4499999993 0 -3.5499999024 1.5 0 -3.4999999017 1.4499999993 0 
-3.4999999017 1.5 0 -3.4499999009 1.4499999993 0 -3.4499999009 1.5 0 
-3.3999999002 1.4499999993 0 -3.3999999002 1.5 0 -3.3499998994 1.4499999993 0 
-3.3499998994 1.5 0 -3.2999998987 1.4499999993 0 -3.2999998987 1.5 0 
-3.2499998979 1.4499999993 0 -3.2499998979 1.5 0 -3.1999998972 1.4499999993 0 
-3.1999998972 1.5 0 -3.1499998964 1.4499999993 0 -3.1499998964 1.5 0 
-3.0999998957 1.4499999993 0 -3.0999998957 1.5 0 -3.0499998949 1.4499999993 0 
-3.0499998949 1.5 0 -2.9999998942 1.4499999993 0 -2.9999998942 1.5 0 
-2.9499998935 1.4499999993 0 -2.9499998935 1.5 0 -2.8999998927 1.4499999993 0 
-2.8999998927 1.5 0 -2.849999892 1.4499999993 0 -2.849999892 1.5 0 
-2.7999998912 1.4499999993 0 -2.7999998912 1.5 0 -2.7499998905 1.4499999993 0 
-2.7499998905 1.5 0 -2.6999998897 1.4499999993 0 -2.6999998897 1.5 0 
-2.649999889 1.4499999993 0 -2.649999889 1.5 0 -2.5999998882 1.4499999993 0 
-2.5999998882 1.5 0 -2.5499998875 1.4499999993 0 -2.5499998875 1.5 0 
-2.4999998868 1.4499999993 0 -2.4999998868 1.5 0 -2.449999886 1.4499999993 0 
-2.449999886 1.5 0 -2.3999998853 1.4499999993 0 -2.3999998853 1.5 0 
-2.3499998845 1.4499999993 0 -2.3499998845 1.5 0 -2.2999998838 1.4499999993 0 
-2.2999998838 1.5 0 -2.249999883 1.4499999993 0 -2.249999883 1.5 0 
-2.1999998823 1.4499999993 0 -2.1999998823 1.5 0 -2.1499998815 1.4499999993 0 
-2.1499998815 1.5 0 -2.0999998808 1.4499999993 0 -2.0999998808 1.5 0 
-2.04999988 1.4499999993 0 -2.04999988 1.5 0 -1.9999998793 1.4499999993 0 
-1.9999998793 1.5 0 -1.9499998786 1.4499999993 0 -1.9499998786 1.5 0 
-1.8999998778 1.4499999993 0 -1.8999998778 1.5 0 -1.8499998771 1.4499999993 0 
-1.8499998771 1.5 0 -1.7999998763 1.4499999993 0 -1.7999998763 1.5 0 
-1.7499998756 1.4499999993 0 -1.7499998756 1.5 0 -1.6999998748 1.4499999993 0 
-1.6999998748 1.5 0 -1.6499998741 1.4499999993 0 -1.6499998741 1.5 0 
-1.5999998733 1.4499999993 0 -1.5999998733 1.5 0 -1.5499998726 1.4499999993 0 
-1.5499998726 1.5 0 -1.4999998718 1.4499999993 0 -1.4999998718 1.5 0 
-1.4499998711 1.4499999993 0 -1.4499998711 1.5 0 -1.3999998704 1.4499999993 0 
-1.3999998704 1.5 0 -1.3499998696 1.4499999993 0 -1.3499998696 1.5 0 
-1.2999998689 1.4499999993 0 -1.2999998689 1.5 0 -1.2499998681 1.4499999993 0 
-1.2499998681 1.5 0 -1.1999998674 1.4499999993 0 -1.1999998674 1.5 0 
-1.1499998666 1.4499999993 0 -1.1499998666 1.5 0 -1.0999998659 1.4499999993 0 
-1.0999998659 1.5 0 -1.0499998651 1.4499999993 0 -1.0499998651 1.5 0 
-0.9999998644 1.4499999993 0 -0.9999998644 1.5 0 -0.94999986365 1.4499999993 0 
-0.94999986365 1.5 0 -0.89999986291 1.4499999993 0 -0.89999986291 1.5 0 
-0.84999986216 1.4499999993 0 -0.84999986216 1.5 0 -0.79999986142 1.4499999993 0 
-0.79999986142 1.5 0 -0.74999986067 1.4499999993 0 -0.74999986067 1.5 0 
-0.69999985993 1.4499999993 0 -0.69999985993 1.5 0 -0.64999985918 1.4499999993 0 
-0.64999985918 1.5 0 -0.59999985844 1.4499999993 0 -0.59999985844 1.5 0 
-0.54999985769 1.4499999993 0 -0.54999985769 1.5 0 -0.49999985695 1.4499999993 0 
-0.49999985695 1.5 0 -0.4499998562 1.4499999993 0 -0.4499998562 1.5 0 
-0.39999985546 1.4499999993 0 -0.39999985546 1.5 0 -0.34999985471 1.4499999993 0 
-0.34999985471 1.5 0 -0.29999985397 1.4499999993 0 -0.29999985397 1.5 0 
-0.24999985322 1.4499999993 0 -0.24999985322 1.5 0 -0.191663057 1.4499999993 0 
-0.17548248559 1.5 0 0.18862900414 1.4499999993 0 0.25000015423 1.4499999993 0 
[...]
CELL_DATA 9510
FIELD FieldData 4
Water_Depth_m 1 9510 float
0.480006 0.480019 0.480033 0.480046 0.480061 0.480076 0.480092 0.48011 0.480129 
0.480149 0.480171 0.480194 0.480219 0.480245 0.480272 0.4803 0.480329 0.480359 
0.48039 0.480421 0.480452 0.480483 0.480513 0.480543 0.480572 0.4806 0.480626 
0.480651 0.480674 0.480695 0.480714 0.48073 0.480744 0.480755 0.480763 0.480768 
0.48077 0.480769 0.480765 0.480757 0.480746 0.480731 0.480713 0.48069 0.480663 
0.480632 0.480596 0.480555 0.480509 0.480457 0.4804 0.480336 0.480265 0.480188 
0.480104 0.480013 0.479915 0.47981 0.479699 0.479582 0.479461 0.479338 0.479212 
0.479087 0.478964 0.478846 0.478735 0.478633 0.478542 0.478464 0.478402 0.478356 
0.478327 0.478316 0.478323 0.478346 0.478387 0.478442 0.478512 0.478593 0.478686 
0.478787 0.478896 0.479011 0.47913 0.479252 0.479377 0.479502 0.479627 0.479751 
0.479873 0.479991 0.480106 0.480216 0.480321 0.480419 0.480511 0.480594 0.48067 
0.480737 0.480795 0.480843 0.480883 0.480912 0.480933 0.480944 0.480947 0.480942 
0.48093 0.480912 0.48089 0.480865 0.480839 0.480814 0.480793 0.480778 0.480771 
0.480774 0.480789 0.480817 0.480859 0.480913 0.48098 0.481057 0.481143 0.481235 
0.48133 0.481426 0.48152 0.48161 0.481693 0.481769 0.481836 0.481894 0.481943 
0.481982 0.482012 0.482035 0.48205 0.482059 0.482064 0.482064 0.482061 0.482057 
0.482051 0.482045 0.482038 0.482032 0.482026 0.48202 0.482014 0.482007 0.482001 
0.481994 0.481986 0.481978 0.481969 0.48196 0.481952 0.481943 0.481936 0.481929 
0.481925 0.481923 0.481924 0.481927 0.481934 0.481944 0.481957 0.481973 0.481993 
0.482016 0.482043 0.482073 0.482107 0.482144 0.482185 0.482231 0.482282 0.482339 
0.482401 0.482471 0.482549 0.482636 0.482733 0.482841 0.482962 0.483096 0.483246 
0.483413 0.483596 0.483798 0.48402 0.484263 0.484522 0.484811 0.485105 0.485469 
0.488385 0.488708 0.488976 0.489225 0.489453 0.489662 0.489853 0.490026 0.490183 
0.490325 0.490453 0.490569 0.490673 0.490768 0.490853 0.49093 0.490999 0.491062 
0.491119 0.491171 0.491218 0.491261 0.4913 0.491335 0.491368 0.491398 0.491425 
0.491451 0.491474 0.491496 0.491516 0.491534 0.491552 0.491568 0.491583 0.491597 
0.49161 0.491622 0.491634 0.491645 0.491656 0.491666 0.491675 0.491684 0.491693 
0.491701 0.491709 0.491716 0.491724 0.49173 0.491737 0.491744 0.49175 0.491756 
0.491762 0.491768 0.491773 0.491778 0.491784 0.491789 0.491794 0.491798 0.491803 
0.491808 0.491812 0.491816 0.49182 0.491824 0.491828 0.491832 0.491836 0.49184 
0.491843 0.491847 0.49185 0.491853 0.491857 0.49186 0.491863 0.491866 0.491869 
0.491871 0.491874 0.491877 0.491879 0.491882 0.491884 0.491886 0.491888 0.491891 
0.491893 0.491895 0.491897 0.491898 0.491794 0.489641 0.485401 0.480006 0.480019 
0.480032 0.480045 0.48006 0.480075 0.480091 0.480109 0.480127 0.480148 0.480169 
0.480193 0.480217 0.480243 0.480271 0.480299 0.480328 0.480359 0.480389 0.48042 
0.480452 0.480483 0.480514 0.480544 0.480573 0.480601 0.480628 0.480653 0.480676 
0.480697 0.480716 0.480733 0.480746 0.480758 0.480766 0.480771 0.480773 0.480772 
0.480768 0.480761 0.480749 0.480735 0.480716 0.480693 0.480666 0.480635 0.480599 
0.480558 0.480512 0.48046 0.480402 0.480338 0.480267 0.48019 0.480105 0.480013 
0.479914 0.479808 0.479696 0.479579 0.479456 0.479331 0.479204 0.479078 0.478954 
0.478834 0.478721 0.478618 0.478526 0.478448 0.478385 0.478339 0.47831 0.478299 
0.478306 0.478331 0.478372 0.478428 0.478499 0.478581 0.478675 0.478777 0.478887 
0.479003 0.479123 0.479247 0.479372 0.479499 0.479625 0.47975 0.479872 0.479992 
0.480108 0.480219 0.480325 0.480424 0.480517 0.480601 0.480678 0.480745 0.480804 
0.480853 0.480892 0.480922 0.480942 0.480952 0.480954 0.480948 0.480935 0.480915 
0.480891 0.480864 0.480836 0.480809 0.480786 0.480769 0.480761 0.480762 0.480777 
0.480804 0.480846 0.480901 0.480969 0.481048 0.481136 0.48123 0.481328 0.481426 
0.481522 0.481614 0.481699 0.481776 0.481844 0.481903 0.481951 0.48199 0.48202 
0.482042 0.482056 0.482064 0.482067 0.482067 0.482063 0.482058 0.482052 0.482045 
0.482038 0.482032 0.482025 0.48202 0.482014 0.482008 0.482001 0.481994 0.481987 
0.481978 0.48197 0.48196 0.481951 0.481942 0.481934 0.481927 0.481923 0.48192 
0.481921 0.481924 0.48193 0.48194 0.481954 0.48197 0.48199 0.482013 0.48204 
0.48207 0.482103 0.48214 0.482181 0.482226 0.482277 0.482332 0.482394 0.482463 
0.48254 0.482625 0.482721 0.482828 0.482947 0.48308 0.483228 0.483392 0.483574 
0.483775 0.483995 0.484234 0.484496 0.484782 0.485079 0.485432 0.488388 0.488713 
0.488983 0.489233 0.489462 0.489672 0.489863 0.490036 0.490193 0.490334 0.490462 
0.490577 0.490681 0.490775 0.490859 0.490935 0.491004 0.491067 0.491123 0.491175 
0.491221 0.491264 0.491303 0.491338 0.49137 0.4914 0.491427 0.491453 0.491476 
0.491497 0.491517 0.491535 0.491553 0.491569 0.491583 0.491597 0.491611 0.491623 
0.491635 0.491646 0.491656 0.491666 0.491675 0.491684 0.491693 0.491701 0.491709 
0.491717 0.491724 0.491731 0.491737 0.491744 0.49175 0.491756 0.491762 0.491768 
0.491773 0.491779 0.491784 0.491789 0.491794 0.491798 0.491803 0.491808 0.491812 
0.491816 0.49182 0.491824 0.491828 0.491832 0.491836 0.49184 0.491843 0.491847 
0.49185 0.491853 0.491857 0.49186 0.491863 0.491866 0.491869 0.491871 0.491874 
0.491877 0.491879 0.491882 0.491884 0.491886 0.491888 0.491891 0.491893 0.491895 
0.491897 0.491897 0.491794 0.489641 0.485401 0.480006 0.480018 0.480031 0.480044 
0.480058 0.480072 0.480088 0.480106 0.480124 0.480145 0.480166 0.480189 0.480214 
0.48024 0.480268 0.480297 0.480326 0.480357 0.480388 0.48042 0.480452 0.480483 
0.480515 0.480545 0.480575 0.480604 0.480631 0.480656 0.48068 0.480702 0.480721 
0.480738 0.480752 0.480763 0.480772 0.480777 0.480779 0.480779 0.480774 0.480767 
0.480756 0.480741 0.480722 0.480699 0.480673 0.480641 0.480605 0.480564 0.480517 
0.480465 0.480407 0.480343 0.480271 0.480193 0.480107 0.480014 0.479913 0.479806 
0.479691 0.479571 0.479446 0.479318 0.479188 0.479059 0.478931 0.478809 0.478694 
0.478588 0.478494 0.478415 0.478351 0.478304 0.478276 0.478265 0.478273 0.478299 
0.478341 0.4784 0.478472 0.478557 0.478653 0.478758 0.47887 0.478988 0.47911 
0.479236 0.479363 0.479491 0.47962 0.479747 0.479872 0.479994 0.480112 0.480225 
0.480333 0.480434 0.480529 0.480615 0.480693 0.480762 0.480821 0.480871 0.480911 
0.48094 0.480959 0.480969 0.480969 0.480961 0.480945 0.480922 0.480894 0.480863 
0.48083 0.480799 0.480772 0.480751 0.480739 0.480738 0.480751 0.480778 0.480819 
0.480876 0.480947 0.481029 0.481122 0.481221 0.481324 0.481427 0.481528 0.481623 
0.481712 0.481791 0.481861 0.48192 0.481968 0.482007 0.482035 0.482055 0.482068 
0.482074 0.482075 0.482072 0.482067 0.48206 0.482053 0.482045 0.482038 0.482031 
0.482025 0.482019 0.482014 0.482008 0.482002 0.481995 0.481988 0.481979 0.48197 
0.48196 0.48195 0.48194 0.481931 0.481924 0.481918 0.481915 0.481915 0.481918 
0.481924 0.481934 0.481947 0.481964 0.481984 0.482007 0.482033 0.482063 0.482096 
0.482132 0.482172 0.482217 0.482266 0.48232 0.48238 0.482447 0.482522 0.482605 
0.482698 0.482802 0.482918 0.483047 0.483192 0.483353 0.483531 0.483728 0.483944 
0.484182 0.484443 0.484725 0.485023 0.485376 0.488392 0.488723 0.488997 0.48925 
0.489481 0.489692 0.489883 0.490056 0.490212 0.490352 0.490479 0.490593 0.490696 
0.490788 0.490872 0.490947 0.491015 0.491076 0.491132 0.491183 0.491229 0.49127 
0.491309 0.491343 0.491375 0.491404 0.491431 0.491456 0.491479 0.4915 0.491519 
0.491538 0.491555 0.49157 0.491585 0.491599 0.491612 0.491624 0.491636 0.491647 
0.491657 0.491667 0.491676 0.491685 0.491693 0.491702 0.491709 0.491717 0.491724 
0.491731 0.491738 0.491744 0.49175 0.491756 0.491762 0.491768 0.491773 0.491779 
0.491784 0.491789 0.491794 0.491799 0.491803 0.491808 0.491812 0.491816 0.49182 
0.491825 0.491829 0.491832 0.491836 0.49184 0.491843 0.491847 0.49185 0.491853 
0.491857 0.49186 0.491863 0.491866 0.491869 0.491871 0.491874 0.491877 0.491879 
0.491882 0.491884 0.491886 0.491888 0.491891 0.491893 0.491895 0.491896 0.491897 
0.491794 0.489641 0.485401 0.480006 0.480017 0.480029 0.480041 0.480054 0.480069 
0.480084 0.480101 0.48012 0.48014 0.480161 0.480185 0.480209 0.480236 0.480264 
0.480293 0.480323 0.480354 0.480386 0.480419 0.480451 0.480484 0.480516 0.480547 
0.480578 0.480607 0.480635 0.480662 0.480686 0.480708 0.480728 0.480745 0.48076 
0.480771 0.48078 0.480786 0.480788 0.480788 0.480784 0.480776 0.480765 0.48075 
0.480731 0.480709 0.480682 0.48065 0.480614 0.480573 0.480526 0.480473 0.480415 
0.48035 0.480277 0.480198 0.48011 0.480015 0.479912 0.479802 0.479684 0.47956 
0.479431 0.479299 0.479164 0.47903 0.478898 0.478771 0.478652 0.478543 0.478446 
0.478364 0.478299 0.478252 0.478223 0.478214 0.478223 0.478251 0.478296 0.478357 
0.478433 0.478522 0.478621 0.478729 0.478844 0.478965 0.479091 0.479219 0.479349 
0.479481 0.479612 0.479742 0.47987 0.479995 0.480117 0.480234 0.480345 0.48045 
0.480547 0.480636 0.480717 0.480787 0.480848 0.480899 0.480939 0.480968 0.480986 
0.480994 0.480991 0.48098 0.480959 0.480932 0.480898 0.480861 0.480822 0.480784 
0.48075 0.480723 0.480705 0.4807 0.48071 0.480736 0.480779 0.480838 0.480912 
0.481001 0.4811 0.481206 0.481317 0.481428 0.481536 0.481638 0.481731 0.481814 
0.481886 0.481946 0.481995 0.482032 0.482059 0.482076 0.482086 0.482089 0.482086 
0.48208 0.482072 0.482063 0.482054 0.482045 0.482037 0.48203 0.482024 0.482019 
0.482014 0.482009 0.482004 0.481997 0.48199 0.481981 0.481971 0.48196 0.481948 
0.481937 0.481927 0.481918 0.481911 0.481907 0.481906 0.481908 0.481914 0.481924 
0.481937 0.481954 0.481974 0.481997 0.482023 0.482053 0.482085 0.482121 0.48216 
0.482203 0.48225 0.482302 0.48236 0.482424 0.482495 0.482575 0.482664 0.482763 
0.482874 0.482999 0.483138 0.483293 0.483466 0.483657 0.483868 0.484102 0.48436 
0.48464 0.484937 0.485292 0.488399 0.488739 0.489019 0.489276 0.48951 0.489722 
0.489913 0.490086 0.490241 0.49038 0.490505 0.490617 0.490718 0.490809 0.490891 
0.490964 0.491031 0.491091 0.491145 0.491194 0.491239 0.49128 0.491317 0.491351 
0.491382 0.491411 0.491437 0.491461 0.491483 0.491504 0.491523 0.491541 0.491558 
0.491573 0.491588 0.491601 0.491614 0.491626 0.491637 0.491648 0.491658 0.491668 
0.491677 0.491686 0.491694 0.491702 0.49171 0.491718 0.491725 0.491732 0.491738 
0.491745 0.491751 0.491757 0.491762 0.491768 0.491774 0.491779 0.491784 0.491789 
0.491794 0.491799 0.491803 0.491808 0.491812 0.491816 0.491821 0.491825 0.491829 
0.491832 0.491836 0.49184 0.491843 0.491847 0.49185 0.491853 0.491857 0.49186 
0.491863 0.491866 0.491869 0.491871 0.491874 0.491877 0.491879 0.491882 0.491884 
0.491886 0.491888 0.491891 0.491893 0.491895 0.491896 0.491897 0.491794 0.489641 
0.485401 0.480005 0.480015 0.480026 0.480038 0.48005 0.480064 0.480079 0.480095 
0.480113 0.480133 0.480155 0.480178 0.480203 0.48023 0.480258 0.480288 0.480319 
0.480351 0.480384 0.480417 0.480451 0.480484 0.480518 0.48055 0.480582 0.480613 
0.480642 0.480669 0.480694 0.480717 0.480738 0.480755 0.480771 0.480783 0.480792 
0.480798 0.4808 0.4808 0.480796 0.480788 0.480777 0.480762 0.480744 0.480721 
0.480694 0.480662 0.480626 0.480585 0.480537 0.480484 0.480425 0.480359 0.480285 
0.480204 0.480114 0.480017 0.479911 0.479796 0.479674 0.479545 0.479411 0.479272 
0.479131 0.47899 0.478852 0.478719 0.478595 0.478481 0.47838 0.478295 0.478228 
0.47818 0.478152 0.478144 0.478156 0.478186 0.478235 0.4783 0.478381 0.478474 
0.478578 0.478691 0.47881 0.478936 0.479065 0.479197 0.479331 0.479466 0.479601 
0.479735 0.479867 0.479997 0.480123 0.480244 0.48036 0.480469 0.480571 0.480664 
0.480748 0.480821 0.480884 0.480936 0.480977 0.481005 0.481022 0.481028 0.481022 
0.481006 0.48098 0.480945 0.480904 0.480858 0.48081 0.480762 0.480719 0.480683 
0.480659 0.480648 0.480654 0.480678 0.480721 0.480784 0.480864 0.48096 0.481069 
0.481186 0.481308 0.48143 0.481548 0.481658 0.481758 0.481846 0.481921 0.481983 
0.482031 0.482067 0.482091 0.482105 0.48211 0.482108 0.482101 0.482091 0.482078 
0.482066 0.482054 0.482043 0.482034 0.482027 0.482022 0.482018 0.482014 0.482011 
0.482006 0.482 0.481993 0.481983 0.481972 0.48196 0.481946 0.481933 0.481921 
0.48191 0.481901 0.481895 0.481893 0.481895 0.481901 0.48191 0.481924 0.481941 
0.481961 0.481985 0.482011 0.48204 0.482072 0.482106 0.482144 0.482185 0.48223 
0.482279 0.482333 0.482394 0.482461 0.482535 0.482619 0.482712 0.482817 0.482935 
0.483066 0.483214 0.483379 0.483562 0.483766 0.483993 0.484246 0.484522 0.484818 
0.485176 0.488409 0.488762 0.48905 0.489312 0.48955 0.489763 0.489955 0.490126 
0.49028 0.490417 0.49054 0.49065 0.490748 0.490836 0.490916 0.490987 0.491052 
0.49111 0.491162 0.49121 0.491253 0.491293 0.491329 0.491361 0.491392 0.491419 
0.491445 0.491468 0.49149 0.49151 0.491528 0.491545 0.491562 0.491577 0.491591 
0.491604 0.491617 0.491628 0.491639 0.49165 0.49166 0.491669 0.491679 0.491687 
0.491695 0.491703 0.491711 0.491718 0.491725 0.491732 0.491739 0.491745 0.491751 
0.491757 0.491763 0.491769 0.491774 0.491779 0.491784 0.491789 0.491794 0.491799 
0.491803 0.491808 0.491812 0.491817 0.491821 0.491825 0.491829 0.491832 0.491836 
0.49184 0.491843 0.491847 0.49185 0.491854 0.491857 0.49186 0.491863 0.491866 
0.491869 0.491871 0.491874 0.491877 0.491879 0.491882 0.491884 0.491886 0.491888 
0.491891 0.491893 0.491895 0.491897 0.491897 0.491794 0.489641 0.485401 0.480004 
0.480013 0.480023 0.480033 0.480045 0.480057 0.480072 0.480088 0.480105 0.480125 
0.480146 0.48017 0.480195 0.480222 0.480251 0.480281 0.480313 0.480346 0.48038 
0.480415 0.48045 0.480485 0.48052 0.480554 0.480587 0.480619 0.480649 0.480678 
0.480704 0.480728 0.480749 0.480768 0.480784 0.480797 0.480806 0.480812 0.480815 
0.480815 0.480811 0.480804 0.480792 0.480778 0.480759 0.480736 0.480709 0.480678 
0.480641 0.480599 0.480552 0.480498 0.480438 0.48037 0.480295 0.480212 0.48012 
0.480019 0.479909 0.47979 0.479662 0.479527 0.479385 0.479239 0.47909 0.47894 
0.478794 0.478653 0.478521 0.478401 0.478296 0.478207 0.478138 0.47809 0.478062 
0.478056 0.478071 0.478105 0.478158 0.478229 0.478316 0.478415 0.478525 0.478644 
0.478769 0.478899 0.479033 0.479169 0.479308 0.479447 0.479587 0.479726 0.479863 
0.479998 0.48013 0.480257 0.480379 0.480493 0.4806 0.480698 0.480786 0.480864 
0.48093 0.480983 0.481025 0.481053 0.481068 0.481071 0.481061 0.481039 0.481006 
0.480963 0.480912 0.480855 0.480795 0.480735 0.480679 0.480632 0.480597 0.480578 
0.480579 0.4806 0.480645 0.480711 0.480799 0.480906 0.481028 0.48116 0.481297 
0.481433 0.481564 0.481685 0.481794 0.481889 0.481968 0.482031 0.482079 0.482112 
0.482132 0.482141 0.48214 0.482132 0.482119 0.482102 0.482085 0.482068 0.482053 
0.48204 0.48203 0.482023 0.482019 0.482016 0.482015 0.482013 0.48201 0.482005 
0.481997 0.481987 0.481975 0.48196 0.481945 0.481928 0.481913 0.481899 0.481888 
0.48188 0.481877 0.481878 0.481883 0.481893 0.481907 0.481925 0.481946 0.481969 
0.481996 0.482024 0.482055 0.482089 0.482124 0.482163 0.482205 0.482251 0.482301 
0.482357 0.482418 0.482487 0.482564 0.48265 0.482746 0.482855 0.482978 0.483115 
0.48327 0.483444 0.483638 0.483855 0.4841 0.484371 0.484663 0.485023 0.488424 
0.488793 0.489091 0.489361 0.489602 0.489817 0.490008 0.490178 0.490329 0.490464 
0.490584 0.49069 0.490785 0.490871 0.490947 0.491016 0.491077 0.491133 0.491183 
0.491229 0.491271 0.491308 0.491343 0.491374 0.491403 0.491429 0.491454 0.491476 
0.491497 0.491516 0.491534 0.491551 0.491567 0.491581 0.491595 0.491608 0.49162 
0.491631 0.491642 0.491652 0.491662 0.491671 0.49168 0.491689 0.491697 0.491705 
0.491712 0.491719 0.491726 0.491733 0.491739 0.491746 0.491752 0.491758 0.491763 
0.491769 0.491774 0.49178 0.491785 0.49179 0.491794 0.491799 0.491804 0.491808 
0.491812 0.491817 0.491821 0.491825 0.491829 0.491833 0.491836 0.49184 0.491843 
0.491847 0.49185 0.491854 0.491857 0.49186 0.491863 0.491866 0.491869 0.491871 
0.491874 0.491877 0.491879 0.491882 0.491884 0.491886 0.491889 0.491891 0.491893 
0.491895 0.491897 0.491898 0.491794 0.489641 0.485401 0.480004 0.480011 0.480019 
0.480028 0.480038 0.48005 0.480063 0.480078 0.480095 0.480115 0.480136 0.480159 
0.480185 0.480213 0.480242 0.480273 0.480306 0.480341 0.480376 0.480412 0.480449 
0.480485 0.480522 0.480558 0.480593 0.480626 0.480658 0.480688 0.480716 0.480741 
0.480764 0.480783 0.4808 0.480813 0.480823 0.48083 0.480833 0.480833 0.480829 
0.480822 0.480811 0.480796 0.480777 0.480754 0.480727 0.480695 0.480659 0.480617 
0.480569 0.480515 0.480453 0.480385 0.480308 0.480222 0.480127 0.480022 0.479907 
0.479782 0.479648 0.479505 0.479354 0.479198 0.479039 0.478879 0.478723 0.478572 
0.478432 0.478304 0.478193 0.478101 0.478029 0.477981 0.477955 0.477952 0.477972 
0.478011 0.478071 0.478149 0.478243 0.47835 0.478467 0.478592 0.478722 0.478857 
0.478996 0.479137 0.47928 0.479424 0.479569 0.479714 0.479857 0.479998 0.480137 
0.480271 0.480399 0.480521 0.480634 0.480739 0.480832 0.480914 0.480984 0.48104 
0.481082 0.481111 0.481124 0.481123 0.481109 0.48108 0.481039 0.480986 0.480922 
0.480851 0.480776 0.4807 0.480629 0.480566 0.480518 0.480488 0.480482 0.480501 
0.480546 0.480618 0.480716 0.480837 0.480976 0.481127 0.481284 0.481439 0.481586 
0.481721 0.481841 0.481944 0.482027 0.482092 0.482139 0.482168 0.482183 0.482185 
0.482176 0.48216 0.482139 0.482115 0.482091 0.482068 0.482049 0.482034 0.482023 
0.482017 0.482014 0.482014 0.482015 0.482016 0.482015 0.482011 0.482004 0.481994 
0.481979 0.481962 0.481943 0.481923 0.481903 0.481886 0.481872 0.481862 0.481856 
0.481856 0.481861 0.481872 0.481886 0.481905 0.481927 0.481952 0.481978 0.482007 
0.482037 0.482069 0.482103 0.482138 0.482177 0.482219 0.482264 0.482314 0.482369 
0.482431 0.4825 0.482577 0.482663 0.482762 0.482873 0.482998 0.48314 0.483301 
0.483482 0.483687 0.483919 0.484179 0.484466 0.484826 0.488447 0.488835 0.489146 
0.489423 0.489668 0.489884 0.490074 0.490242 0.49039 0.49052 0.490636 0.490739 
0.49083 0.490911 0.490984 0.491049 0.491108 0.491161 0.491208 0.491252 0.491291 
0.491327 0.491359 0.491389 0.491416 0.491442 0.491465 0.491486 0.491506 0.491524 
0.491541 0.491557 0.491572 0.491586 0.4916 0.491612 0.491624 0.491635 0.491645 
0.491655 0.491665 0.491674 0.491682 0.491691 0.491699 0.491706 0.491713 0.491721 
0.491727 0.491734 0.49174 0.491747 0.491753 0.491758 0.491764 0.491769 0.491775 
0.49178 0.491785 0.49179 0.491795 0.491799 0.491804 0.491808 0.491813 0.491817 
0.491821 0.491825 0.491829 0.491833 0.491836 0.49184 0.491844 0.491847 0.49185 
0.491854 0.491857 0.49186 0.491863 0.491866 0.491869 0.491871 0.491874 0.491877 
0.491879 0.491882 0.491884 0.491886 0.491889 0.491891 0.491893 0.491895 0.491897 
0.491898 0.491794 0.489641 0.485401 0.480002 0.480008 0.480014 0.480021 0.48003 
0.480041 0.480053 0.480067 0.480084 0.480102 0.480123 0.480147 0.480173 0.480201 
0.480231 0.480264 0.480298 0.480334 0.480371 0.480409 0.480447 0.480486 0.480524 
0.480562 0.480599 0.480635 0.480669 0.480701 0.48073 0.480757 0.480781 0.480801 
0.480819 0.480833 0.480843 0.48085 0.480853 0.480853 0.48085 0.480842 0.480831 
0.480816 0.480797 0.480775 0.480747 0.480716 0.480679 0.480637 0.480589 0.480534 
0.480472 0.480401 0.480323 0.480234 0.480136 0.480026 0.479906 0.479774 0.479632 
0.47948 0.479319 0.479151 0.47898 0.478808 0.47864 0.478479 0.478328 0.478193 
0.478076 0.47798 0.477907 0.477859 0.477837 0.477839 0.477865 0.477913 0.477982 
0.478069 0.478172 0.478286 0.47841 0.47854 0.478676 0.478816 0.478959 0.479104 
0.479251 0.479399 0.479549 0.479699 0.479848 0.479997 0.480143 0.480285 0.480421 
0.480551 0.480673 0.480784 0.480884 0.480972 0.481046 0.481106 0.48115 0.481178 
0.48119 0.481185 0.481165 0.48113 0.481079 0.481013 0.480936 0.480848 0.480754 
0.480658 0.480566 0.480484 0.480419 0.480376 0.48036 0.480376 0.480423 0.480501 
0.480611 0.48075 0.480913 0.481088 0.481269 0.481447 0.481615 0.481768 0.481901 
0.482013 0.482101 0.482167 0.482211 0.482237 0.482244 0.482237 0.482219 0.482192 
0.48216 0.482127 0.482094 0.482065 0.482041 0.482023 0.482012 0.482007 0.482007 