# vtk DataFile Version 5.1
vtk output
ASCII
DATASET UNSTRUCTURED_GRID
POINTS 10043 double
-10.1 1.4499999993 -1.9274396834e-07 -10.049999999 1.4499999993 -1.0286679952e-07 -10.049999999 1.5 3.682841907e-07 
-9.9999999985 1.4499999993 -6.8151386756e-08 -9.9999999985 1.5 2.5468375497e-07 -9.9499999978 1.4499999993 -5.1095629061e-08 
-9.9499999978 1.5 1.9264986406e-07 -9.899999997 1.4499999993 -4.0350858654e-08 -9.899999997 1.5 1.5276852139e-07 
-9.8499999963 1.4499999993 -3.2863898269e-08 -9.8499999963 1.5 1.2472970923e-07 -9.7999999955 1.4499999993 -2.7287788029e-08 
-9.7999999955 1.5 1.0373583592e-07 -9.7499999948 1.4499999993 -2.2929489418e-08 -9.7499999948 1.5 8.7447695307e-08 
-9.699999994 1.4499999993 -1.9562540032e-08 -9.699999994 1.5 7.4291854446e-08 -9.6499999933 1.4499999993 -1.6707636163e-08 
-9.6499999933 1.5 6.3600744227e-08 -9.5999999925 1.4499999993 -1.4355682865e-08 -9.5999999925 1.5 5.458856478e-08 
-9.5499999918 1.4499999993 -1.2282944439e-08 -9.5499999918 1.5 4.6846036383e-08 -9.4999999911 1.4499999993 -1.0586736821e-08 
-9.4999999911 1.5 4.032859735e-08 -9.4499999903 1.4499999993 -9.0751566262e-09 -9.4499999903 1.5 3.459696174e-08 
-9.3999999896 1.4499999993 -7.8036830331e-09 -9.3999999896 1.5 2.9495604181e-08 -9.3499999888 1.4499999993 -6.5804126592e-09 
-9.3499999888 1.5 2.5005428839e-08 -9.2999999881 1.4499999993 -5.5172133528e-09 -9.2999999881 1.5 2.1062769306e-08 
-9.2499999873 1.4499999993 -4.6013521882e-09 -9.2499999873 1.5 1.7450256351e-08 -9.1999999866 1.4499999993 -3.7318752533e-09 
-9.1999999866 1.5 1.4277029337e-08 -9.1499999858 1.4499999993 -2.9897273546e-09 -9.1499999858 1.5 1.1356641849e-08 
-9.0999999851 1.4499999993 -2.2785024978e-09 -9.0999999851 1.5 8.6863654047e-09 -9.0499999844 1.4499999993 -1.6245758072e-09 
-9.0499999844 1.5 6.2780234344e-09 -8.9999999836 1.4499999993 -1.076150502e-09 -8.9999999836 1.5 4.1143355389e-09 
-8.9499999829 1.4499999993 -5.8411386838e-10 -8.9499999829 1.5 2.0406878409e-09 -8.8999999821 1.4499999993 -2.946753952e-12 
-8.8999999821 1.5 2.1806045858e-10 -8.8499999814 1.4499999993 2.9991498174e-10 -8.8499999814 1.5 -1.558182694e-09 
-8.7999999806 1.4499999993 7.937706048e-10 -8.7999999806 1.5 -3.0870432877e-09 -8.7499999799 1.4499999993 1.1730298954e-09 
-8.7499999799 1.5 -4.5158596862e-09 -8.6999999791 1.4499999993 1.3562930778e-09 -8.6999999791 1.5 -5.2411817109e-09 
-8.6499999784 1.4499999993 1.6878038966e-09 -8.6499999784 1.5 -6.4694543056e-09 -8.5999999776 1.4499999993 2.017495726e-09 
-8.5999999776 1.5 -7.6718063013e-09 -8.5499999769 1.4499999993 2.2867061578e-09 -8.5499999769 1.5 -8.7863920584e-09 
-8.4999999762 1.4499999993 2.5709232521e-09 -8.4999999762 1.5 -9.7677368416e-09 -8.4499999754 1.4499999993 2.786018749e-09 
-8.4499999754 1.5 -1.0780459192e-08 -8.3999999747 1.4499999993 3.0547744334e-09 -8.3999999747 1.5 -1.1589909477e-08 
-8.3499999739 1.4499999993 3.2380376158e-09 -8.3499999739 1.5 -1.232569069e-08 -8.2999999732 1.4499999993 3.4294862505e-09 
-8.2999999732 1.5 -1.3056469683e-08 -8.2499999724 1.4499999993 3.6245728641e-09 -8.2499999724 1.5 -1.367492608e-08 
-8.1999999717 1.4499999993 3.806016835e-09 -8.1999999717 1.5 -1.4250636227e-08 -8.1499999709 1.4499999993 4.0247507549e-09 
-8.1499999709 1.5 -1.4761317502e-08 -8.0999999702 1.4499999993 4.1216114965e-09 -8.0999999702 1.5 -1.5177866075e-08 
-8.0499999695 1.4499999993 4.313969626e-09 -8.0499999695 1.5 -1.5534842746e-08 -7.9999999687 1.4499999993 4.4763144302e-09 
-7.9999999687 1.5 -1.5875903259e-08 -7.949999968 1.4499999993 4.5299746176e-09 -7.949999968 1.5 -1.6161939342e-08 
-7.8999999672 1.4499999993 4.5490740064e-09 -7.8999999672 1.5 -1.6397043723e-08 -7.8499999665 1.4499999993 4.5408885541e-09 
-7.8499999665 1.5 -1.6625326893e-08 -7.7999999657 1.4499999993 4.599096215e-09 -7.7999999657 1.5 -1.6749018172e-08 
-7.749999965 1.4499999993 4.5831800577e-09 -7.749999965 1.5 -1.6788126445e-08 -7.6999999642 1.4499999993 4.6027341938e-09 
-7.6999999642 1.5 -1.6877711673e-08 -7.6499999635 1.4499999993 4.5277008809e-09 -7.6499999635 1.5 -1.6842241379e-08 
-7.5999999627 1.4499999993 4.5613521849e-09 -7.5999999627 1.5 -1.6792219171e-08 -7.549999962 1.4499999993 4.5154227024e-09 
-7.549999962 1.5 -1.6623962651e-08 -7.4999999613 1.4499999993 4.4171972746e-09 -7.4999999613 1.5 -1.6462072594e-08 
-7.4499999605 1.4499999993 4.3344332568e-09 -7.4499999605 1.5 -1.6241974876e-08 -7.3999999598 1.4499999993 4.3207908362e-09 
-7.3999999598 1.5 -1.5926380215e-08 -7.349999959 1.4499999993 4.1920973359e-09 -7.349999959 1.5 -1.5585319701e-08 
-7.2999999583 1.4499999993 4.054763636e-09 -7.2999999583 1.5 -1.5178320822e-08 -7.2499999575 1.4499999993 3.9351650827e-09 
-7.2499999575 1.5 -1.4672187021e-08 -7.1999999568 1.4499999993 3.8173855188e-09 -7.1999999568 1.5 -1.4131492421e-08 
-7.149999956 1.4499999993 3.6345773058e-09 -7.149999956 1.5 -1.3525314202e-08 -7.0999999553 1.4499999993 3.5145240052e-09 
-7.0999999553 1.5 -1.3206536309e-08 -7.0499999546 1.4499999993 3.3578635428e-09 -7.0499999546 1.5 -1.2492355594e-08 
-6.9999999538 1.4499999993 3.1516356191e-09 -6.9999999538 1.5 -1.1725196813e-08 -6.9499999531 1.4499999993 2.9356306275e-09 
-6.9499999531 1.5 -1.0887324819e-08 -6.8999999523 1.4499999993 2.7134865466e-09 -6.8999999523 1.5 -9.9557748712e-09 
-6.8499999516 1.4499999993 2.4031214796e-09 -6.8499999516 1.5 -8.9951210924e-09 -6.7999999508 1.4499999993 2.1652886151e-09 
-6.7999999508 1.5 -7.8900850298e-09 -6.7499999501 1.4499999993 1.825592344e-09 -6.7499999501 1.5 -6.7818657357e-09 
-6.6999999493 1.4499999993 1.5186378821e-09 -6.6999999493 1.5 -5.598385755e-09 -6.6499999486 1.4499999993 1.2082728151e-09 
-6.6499999486 1.5 -4.2648391485e-09 -6.5999999478 1.4499999993 8.3151463492e-10 -6.5999999478 1.5 -2.8767226379e-09 
-6.5499999471 1.4499999993 3.9177394662e-10 -6.5499999471 1.5 -1.3637782015e-09 -6.4999999464 1.4499999993 9.1038288019e-15 
-6.4999999464 1.5 1.9873369617e-10 -6.4499999456 1.4499999993 -4.756566252e-10 -6.4499999456 1.5 1.8958508097e-09 
-6.3999999449 1.4499999993 -9.2881236036e-10 -6.3999999449 1.5 3.6593610364e-09 -6.3499999441 1.4499999993 -1.4147099048e-09 
-6.3499999441 1.5 5.5613416095e-09 -6.2999999434 1.4499999993 -1.9474464263e-09 -6.2999999434 1.5 7.5649584375e-09 
-6.2499999426 1.4499999993 -2.4756354744e-09 -6.2499999426 1.5 9.676805135e-09 -6.1999999419 1.4499999993 -3.070672383e-09 
-6.1999999419 1.5 1.1860501914e-08 -6.1499999411 1.4499999993 -3.6986784746e-09 -6.1499999411 1.5 1.4189717845e-08 
-6.0999999404 1.4499999993 -4.32122782e-09 -6.0999999404 1.5 1.6651265256e-08 -6.0499999397 1.4499999993 -5.0117616723e-09 
-6.0499999397 1.5 1.9185799616e-08 -5.9999999389 1.4499999993 -5.7277613763e-09 -5.9999999389 1.5 2.1850391718e-08 
-5.9499999382 1.4499999993 -6.4330745175e-09 -5.9499999382 1.5 2.4679374988e-08 -5.8999999374 1.4499999993 -7.206145014e-09 
-5.8999999374 1.5 2.7579753592e-08 -5.8499999367 1.4499999993 -8.0013844439e-09 -5.8499999367 1.5 3.0600187273e-08 
-5.7999999359 1.4499999993 -8.8184517466e-09 -5.7999999359 1.5 3.3738057681e-08 -5.7499999352 1.4499999993 -9.7055501413e-09 
-5.7499999352 1.5 3.6996208763e-08 -5.6999999344 1.4499999993 -1.0565250008e-08 -5.6999999344 1.5 4.0378278499e-08 
-5.6499999337 1.4499999993 -1.1469969863e-08 -5.6499999337 1.5 4.3829242458e-08 -5.5999999329 1.4499999993 -1.2400269256e-08 
-5.5999999329 1.5 4.7363652556e-08 -5.5499999322 1.4499999993 -1.2887758416e-08 -5.5499999322 1.5 4.9145466363e-08 
-5.4999999315 1.4499999993 -1.3846024771e-08 -5.4999999315 1.5 5.2783672544e-08 -5.4499999307 1.4499999993 -1.4800766834e-08 
-5.4499999307 1.5 5.6460191189e-08 -5.39999993 1.4499999993 -1.5745049708e-08 -5.39999993 1.5 6.0163081628e-08 
-5.3499999292 1.4499999993 -1.6733556762e-08 -5.3499999292 1.5 6.3804584727e-08 -5.2999999285 1.4499999993 -1.7662719287e-08 
-5.2999999285 1.5 6.7391631831e-08 -5.2499999277 1.4499999993 -1.8555502024e-08 -5.2499999277 1.5 7.0856579271e-08 
-5.199999927 1.4499999993 -1.9419749364e-08 -5.199999927 1.5 7.4098700509e-08 -5.1499999262 1.4499999993 -2.0202142181e-08 
-5.1499999262 1.5 7.7062061621e-08 -5.0999999255 1.4499999993 -2.088994755e-08 -5.0999999255 1.5 7.9613194259e-08 
-5.0499999247 1.4499999993 -2.1406426853e-08 -5.0499999247 1.5 8.1675587182e-08 -4.999999924 1.4499999993 -2.176783731e-08 
-4.999999924 1.5 8.3038237619e-08 -4.9499999233 1.4499999993 -2.1898918234e-08 -4.9499999233 1.5 8.3489460678e-08 
-4.8999999225 1.4499999993 -2.169632829e-08 -4.8999999225 1.5 8.2768004006e-08 -4.8499999218 1.4499999993 -2.1115956983e-08 
-4.8499999218 1.5 8.0561115112e-08 -4.799999921 1.4499999993 -2.0030077152e-08 -4.799999921 1.5 7.6436954544e-08 
-4.7499999203 1.4499999993 -1.8314315398e-08 -4.7499999203 1.5 6.9894220189e-08 -4.6999999195 1.4499999993 -1.5771936646e-08 
-4.6999999195 1.5 6.0288193993e-08 -4.6499999188 1.4499999993 -1.2218768219e-08 -4.6499999188 1.5 4.6741217119e-08 
-4.599999918 1.4499999993 -7.3485946217e-09 -4.599999918 1.5 2.8166377675e-08 -4.5499999173 1.4499999993 -7.9540085629e-10 
-4.5499999173 1.5 3.206716892e-09 -4.4999999166 1.4499999993 7.9327922009e-09 -4.4999999166 1.5 -2.9934529522e-08 
-4.4499999158 1.4499999993 1.9452452094e-08 -4.4499999158 1.5 -7.3709593096e-08 -4.3999999151 1.4499999993 3.4612138933e-08 
-4.3999999151 1.5 -1.3126860665e-07 -4.3499999143 1.4499999993 5.4512963032e-08 -4.3499999143 1.5 -2.0684340996e-07 
-4.2999999136 1.4499999993 8.0724198881e-08 -4.2999999136 1.5 -3.0626426906e-07 -4.2499999128 1.4499999993 1.1535752975e-07 
-4.2499999128 1.5 -4.3754931767e-07 -4.1999999121 1.4499999993 1.6143174264e-07 -4.1999999121 1.5 -6.1200614709e-07 
-4.1499999113 1.4499999993 2.2323975202e-07 -4.1499999113 1.5 -8.4582364934e-07 -4.0999999106 1.4499999993 3.071435799e-07 
-4.0999999106 1.5 -1.162802846e-06 -4.0499999098 1.4499999993 4.2280368007e-07 -4.0499999098 1.5 -1.598946028e-06 
-3.9999999091 1.4499999993 5.8537347059e-07 -3.9999999091 1.5 -2.2104752588e-06 -3.9499999084 1.4499999993 6.9144692816e-07 
[...]
CELL_DATA 9510
FIELD FieldData 4
Water_Depth_m 1 9510 float
0.603001 0.603001 0.603002 0.603002 0.603003 0.603003 0.603004 0.603005 0.603005 
0.603006 0.603006 0.603007 0.603008 0.603008 0.603009 0.603009 0.60301 0.603011 
0.603011 0.603012 0.603012 0.603013 0.603014 0.603014 0.603015 0.603015 0.603016 
0.603016 0.603017 0.603018 0.603018 0.603019 0.60302 0.60302 0.603021 0.603021 
0.603022 0.603023 0.603023 0.603024 0.603024 0.603025 0.603025 0.603026 0.603027 
0.603027 0.603028 0.603028 0.603029 0.60303 0.60303 0.603031 0.603031 0.603032 
0.603033 0.603033 0.603034 0.603034 0.603035 0.603036 0.603036 0.603037 0.603037 
0.603038 0.603038 0.603039 0.60304 0.60304 0.603041 0.603041 0.603042 0.603042 
0.603043 0.603044 0.603044 0.603045 0.603045 0.603046 0.603046 0.603047 0.603048 
0.603048 0.603049 0.603049 0.60305 0.60305 0.603051 0.603051 0.603052 0.603052 
0.603053 0.603053 0.603054 0.603054 0.603055 0.603055 0.603056 0.603056 0.603056 
0.603057 0.603057 0.603058 0.603058 0.603058 0.603058 0.603058 0.603059 0.603059 
0.603059 0.603059 0.603059 0.603059 0.603058 0.603058 0.603058 0.603057 0.603057 
0.603056 0.603055 0.603054 0.603053 0.603052 0.603051 0.60305 0.603049 0.603049 
0.60305 0.603054 0.603067 0.603124 0.603322 0.603199 0.597598 0.583912 0.563976 
0.539527 0.511926 0.482362 0.45232 0.422975 0.394857 0.369016 0.3466 0.328956 
0.318007 0.316154 0.316146 0.316141 0.316145 0.316155 0.325705 0.333349 0.332909 
0.327565 0.328783 0.328463 0.301673 0.257924 0.233145 0.23164 0.217425 0.183236 
0.177803 0.182235 0.18069 0.181105 0.186064 0.188047 0.193147 0.19889 0.201313 
0.204411 0.209099 0.215422 0.218845 0.22312 0.22829 0.23386 0.23882 0.241023 
0.247724 0.255336 0.263817 0.266698 0.271059 0.283206 0.295949 0.312609 0.329553 
0.343748 0.357928 0.36744 0.385104 0.393457 0.405285 0.425207 0.449847 0.487691 
0.618991 0.572558 0.535585 0.492708 0.461481 0.425381 0.387371 0.378402 0.378067 
0.367698 0.367402 0.367284 0.367246 0.36723 0.367222 0.367218 0.367217 0.367217 
0.367217 0.367218 0.36722 0.367222 0.367224 0.367227 0.367229 0.367232 0.367235 
0.367238 0.367241 0.367244 0.367247 0.36725 0.367253 0.367256 0.36726 0.367263 
0.367266 0.367269 0.367273 0.367276 0.367279 0.367282 0.367286 0.367289 0.367292 
0.367296 0.367299 0.367303 0.367306 0.367309 0.367313 0.367316 0.36732 0.367323 
0.367326 0.36733 0.367333 0.367337 0.36734 0.367343 0.367347 0.36735 0.367354 
0.367357 0.367361 0.367364 0.367367 0.367371 0.367374 0.367378 0.367381 0.367385 
0.367388 0.367391 0.367395 0.367398 0.367402 0.367405 0.367409 0.367412 0.367416 
0.367419 0.367423 0.367426 0.367429 0.367433 0.367436 0.36744 0.367443 0.367447 
0.36745 0.367454 0.367457 0.367461 0.367413 0.367408 0.362802 0.603001 0.603001 
0.603002 0.603002 0.603003 0.603003 0.603004 0.603005 0.603005 0.603006 0.603006 
0.603007 0.603008 0.603008 0.603009 0.603009 0.60301 0.603011 0.603011 0.603012 
0.603012 0.603013 0.603014 0.603014 0.603015 0.603015 0.603016 0.603016 0.603017 
0.603018 0.603018 0.603019 0.603019 0.60302 0.603021 0.603021 0.603022 0.603022 
0.603023 0.603024 0.603024 0.603025 0.603025 0.603026 0.603027 0.603027 0.603028 
0.603028 0.603029 0.60303 0.60303 0.603031 0.603031 0.603032 0.603033 0.603033 
0.603034 0.603034 0.603035 0.603035 0.603036 0.603037 0.603037 0.603038 0.603038 
0.603039 0.60304 0.60304 0.603041 0.603041 0.603042 0.603042 0.603043 0.603044 
0.603044 0.603045 0.603045 0.603046 0.603046 0.603047 0.603048 0.603048 0.603049 
0.603049 0.60305 0.60305 0.603051 0.603051 0.603052 0.603052 0.603053 0.603053 
0.603054 0.603054 0.603055 0.603055 0.603056 0.603056 0.603056 0.603057 0.603057 
0.603058 0.603058 0.603058 0.603058 0.603059 0.603059 0.603059 0.603059 0.603059 
0.603059 0.603059 0.603058 0.603058 0.603058 0.603057 0.603056 0.603056 0.603055 
0.603054 0.603052 0.603051 0.603049 0.603047 0.603045 0.603042 0.603039 0.603035 
0.603032 0.60303 0.603061 0.603005 0.597913 0.584807 0.565182 0.540678 0.512745 
0.48268 0.451946 0.421771 0.392946 0.366643 0.344173 0.327135 0.317623 0.316176 
0.31616 0.316153 0.316167 0.316176 0.324365 0.331329 0.331011 0.3259 0.323955 
0.322699 0.306251 0.283474 0.262285 0.24003 0.217915 0.183808 0.168763 0.170541 
0.173961 0.176374 0.18021 0.182339 0.187149 0.190959 0.193179 0.194493 0.198411 
0.204086 0.206817 0.209764 0.212079 0.216473 0.220377 0.224831 0.23102 0.242076 
0.250189 0.262229 0.273324 0.285943 0.30259 0.319458 0.334512 0.351404 0.366527 
0.383206 0.398585 0.412771 0.426024 0.441806 0.452372 0.486784 0.613419 0.569906 
0.535119 0.492077 0.456629 0.421336 0.387796 0.379668 0.379173 0.36835 0.367172 
0.367176 0.367178 0.367181 0.367184 0.367188 0.367191 0.367195 0.367199 0.367202 
0.367206 0.367209 0.367213 0.367216 0.36722 0.367223 0.367227 0.367231 0.367234 
0.367237 0.367241 0.367245 0.367248 0.367251 0.367255 0.367258 0.367262 0.367265 
0.367269 0.367272 0.367276 0.367279 0.367283 0.367286 0.36729 0.367293 0.367297 
0.3673 0.367304 0.367307 0.367311 0.367314 0.367318 0.367321 0.367325 0.367328 
0.367332 0.367335 0.367338 0.367342 0.367345 0.367349 0.367352 0.367356 0.367359 
0.367363 0.367366 0.36737 0.367373 0.367377 0.36738 0.367384 0.367387 0.367391 
0.367394 0.367397 0.367401 0.367404 0.367408 0.367411 0.367415 0.367418 0.367422 
0.367425 0.367429 0.367432 0.367436 0.367439 0.367443 0.367446 0.367449 0.367453 
0.367456 0.36746 0.367412 0.367407 0.362799 0.603 0.603001 0.603002 0.603002 
0.603003 0.603003 0.603004 0.603005 0.603005 0.603006 0.603006 0.603007 0.603008 
0.603008 0.603009 0.603009 0.60301 0.603011 0.603011 0.603012 0.603012 0.603013 
0.603014 0.603014 0.603015 0.603015 0.603016 0.603016 0.603017 0.603018 0.603018 
0.603019 0.603019 0.60302 0.603021 0.603021 0.603022 0.603022 0.603023 0.603024 
0.603024 0.603025 0.603025 0.603026 0.603027 0.603027 0.603028 0.603028 0.603029 
0.60303 0.60303 0.603031 0.603031 0.603032 0.603033 0.603033 0.603034 0.603034 
0.603035 0.603035 0.603036 0.603037 0.603037 0.603038 0.603038 0.603039 0.60304 
0.60304 0.603041 0.603041 0.603042 0.603042 0.603043 0.603044 0.603044 0.603045 
0.603045 0.603046 0.603046 0.603047 0.603047 0.603048 0.603049 0.603049 0.60305 
0.60305 0.603051 0.603051 0.603052 0.603052 0.603053 0.603053 0.603054 0.603054 
0.603055 0.603055 0.603056 0.603056 0.603056 0.603057 0.603057 0.603058 0.603058 
0.603058 0.603058 0.603059 0.603059 0.603059 0.603059 0.603059 0.603059 0.603059 
0.603058 0.603058 0.603058 0.603057 0.603057 0.603056 0.603055 0.603054 0.603053 
0.603051 0.603049 0.603047 0.603045 0.603043 0.60304 0.603037 0.603034 0.603036 
0.603115 0.603006 0.598027 0.585183 0.565771 0.541301 0.513215 0.482868 0.451698 
0.420988 0.391758 0.365288 0.342996 0.326503 0.317527 0.316137 0.316135 0.316134 
0.316135 0.316156 0.323483 0.329536 0.329271 0.323884 0.322056 0.321845 0.308973 
0.302478 0.288156 0.257784 0.225653 0.190609 0.165038 0.163695 0.163928 0.164806 
0.167402 0.169078 0.171762 0.174684 0.176551 0.178553 0.181944 0.190224 0.190672 
0.191708 0.199811 0.204825 0.210388 0.221174 0.229657 0.24143 0.249907 0.261574 
0.273001 0.286653 0.302818 0.319452 0.333776 0.351063 0.366385 0.382156 0.398799 
0.414191 0.429456 0.444069 0.458199 0.489 0.612077 0.556703 0.524428 0.486039 
0.450491 0.419435 0.391759 0.382973 0.382356 0.368081 0.367177 0.367181 0.367181 
0.367183 0.367186 0.367189 0.367193 0.367196 0.367199 0.367203 0.367206 0.36721 
0.367213 0.367217 0.36722 0.367224 0.367227 0.367231 0.367234 0.367238 0.367241 
0.367245 0.367248 0.367252 0.367255 0.367259 0.367262 0.367266 0.367269 0.367273 
0.367276 0.367279 0.367283 0.367286 0.36729 0.367293 0.367297 0.3673 0.367304 
0.367307 0.367311 0.367314 0.367318 0.367321 0.367325 0.367328 0.367332 0.367335 
0.367339 0.367342 0.367345 0.367349 0.367352 0.367356 0.367359 0.367363 0.367366 
0.36737 0.367373 0.367377 0.36738 0.367384 0.367387 0.367391 0.367394 0.367397 
0.367401 0.367404 0.367408 0.367411 0.367415 0.367418 0.367422 0.367425 0.367429 
0.367432 0.367436 0.367439 0.367443 0.367446 0.36745 0.367453 0.367456 0.36746 
0.367412 0.367407 0.3628 0.603 0.603001 0.603002 0.603002 0.603003 0.603003 
0.603004 0.603005 0.603005 0.603006 0.603006 0.603007 0.603008 0.603008 0.603009 
0.603009 0.60301 0.603011 0.603011 0.603012 0.603012 0.603013 0.603014 0.603014 
0.603015 0.603015 0.603016 0.603016 0.603017 0.603018 0.603018 0.603019 0.603019 
0.60302 0.603021 0.603021 0.603022 0.603022 0.603023 0.603024 0.603024 0.603025 
0.603025 0.603026 0.603027 0.603027 0.603028 0.603028 0.603029 0.60303 0.60303 
0.603031 0.603031 0.603032 0.603032 0.603033 0.603034 0.603034 0.603035 0.603035 
0.603036 0.603037 0.603037 0.603038 0.603038 0.603039 0.60304 0.60304 0.603041 
0.603041 0.603042 0.603042 0.603043 0.603044 0.603044 0.603045 0.603045 0.603046 
0.603046 0.603047 0.603047 0.603048 0.603049 0.603049 0.60305 0.60305 0.603051 
0.603051 0.603052 0.603052 0.603053 0.603053 0.603054 0.603054 0.603055 0.603055 
0.603056 0.603056 0.603056 0.603057 0.603057 0.603058 0.603058 0.603058 0.603058 
0.603059 0.603059 0.603059 0.603059 0.603059 0.603059 0.603059 0.603059 0.603058 
0.603058 0.603058 0.603057 0.603056 0.603055 0.603054 0.603053 0.603052 0.60305 
0.603048 0.603046 0.603043 0.60304 0.603037 0.603033 0.603028 0.603102 0.603005 
0.598068 0.585336 0.56604 0.54161 0.513462 0.48297 0.451549 0.420528 0.391092 
0.364588 0.342463 0.326261 0.31751 0.316136 0.316134 0.316135 0.31614 0.316164 
0.321377 0.325202 0.323654 0.318302 0.317094 0.316441 0.311901 0.311632 0.297653 
0.263631 0.233105 0.200427 0.168524 0.160113 0.161558 0.162036 0.164868 0.165747 
0.167632 0.169294 0.174426 0.176879 0.181059 0.193084 0.19466 0.199502 0.206347 
0.210623 0.214382 0.220737 0.228396 0.234685 0.244121 0.261158 0.265026 0.279396 
0.290347 0.305235 0.318138 0.338354 0.354278 0.363947 0.380024 0.397099 0.418139 
0.435269 0.456411 0.489497 0.609531 0.558294 0.520391 0.484216 0.446263 0.417273 
0.391237 0.382944 0.382313 0.368424 0.367168 0.367172 0.367176 0.36718 0.367183 
0.367187 0.367191 0.367194 0.367198 0.367202 0.367205 0.367209 0.367213 0.367216 
0.36722 0.367223 0.367227 0.36723 0.367234 0.367237 0.367241 0.367244 0.367248 
0.367251 0.367255 0.367258 0.367262 0.367265 0.367269 0.367272 0.367276 0.367279 
0.367283 0.367286 0.36729 0.367293 0.367297 0.3673 0.367304 0.367307 0.367311 
0.367314 0.367318 0.367321 0.367325 0.367328 0.367331 0.367335 0.367338 0.367342 
0.367345 0.367349 0.367352 0.367356 0.367359 0.367363 0.367366 0.36737 0.367373 
0.367377 0.36738 0.367384 0.367387 0.367391 0.367394 0.367397 0.367401 0.367404 
0.367408 0.367411 0.367415 0.367418 0.367422 0.367425 0.367429 0.367432 0.367436 
0.367439 0.367443 0.367446 0.367449 0.367453 0.367456 0.36746 0.367412 0.367407 
0.362799 0.603 0.603001 0.603002 0.603002 0.603003 0.603003 0.603004 0.603005 
0.603005 0.603006 0.603006 0.603007 0.603008 0.603008 0.603009 0.603009 0.60301 
0.603011 0.603011 0.603012 0.603012 0.603013 0.603014 0.603014 0.603015 0.603015 
0.603016 0.603016 0.603017 0.603018 0.603018 0.603019 0.603019 0.60302 0.603021 
0.603021 0.603022 0.603022 0.603023 0.603024 0.603024 0.603025 0.603025 0.603026 
0.603027 0.603027 0.603028 0.603028 0.603029 0.60303 0.60303 0.603031 0.603031 
0.603032 0.603032 0.603033 0.603034 0.603034 0.603035 0.603035 0.603036 0.603037 
0.603037 0.603038 0.603038 0.603039 0.60304 0.60304 0.603041 0.603041 0.603042 
0.603042 0.603043 0.603044 0.603044 0.603045 0.603045 0.603046 0.603046 0.603047 
0.603047 0.603048 0.603049 0.603049 0.60305 0.60305 0.603051 0.603051 0.603052 
0.603052 0.603053 0.603053 0.603054 0.603054 0.603055 0.603055 0.603056 0.603056 
0.603056 0.603057 0.603057 0.603058 0.603058 0.603058 0.603058 0.603059 0.603059 
0.603059 0.603059 0.603059 0.603059 0.603059 0.603059 0.603059 0.603058 0.603058 
0.603057 0.603057 0.603056 0.603055 0.603054 0.603053 0.603051 0.603049 0.603047 
0.603045 0.603042 0.603039 0.603035 0.603032 0.603107 0.603008 0.598083 0.585393 
0.566152 0.541749 0.51358 0.483022 0.451469 0.420284 0.390753 0.364256 0.342234 
0.326167 0.317496 0.316128 0.316128 0.31613 0.316139 0.316154 0.318242 0.319827 
0.319012 0.315657 0.313642 0.312269 0.311649 0.311384 0.296782 0.262807 0.232555 
0.199106 0.168061 0.167436 0.171227 0.174352 0.174051 0.177157 0.181177 0.185778 
0.188328 0.191863 0.20002 0.207574 0.210685 0.219368 0.223509 0.233627 0.237463 
0.240039 0.254446 0.263523 0.266601 0.275298 0.286236 0.289515 0.303639 0.310739 
0.311069 0.312488 0.327695 0.336418 0.353972 0.372947 0.396749 0.425842 0.448687 
0.488346 0.608638 0.558814 0.523024 0.490226 0.44731 0.409941 0.386567 0.383341 
0.382761 0.368368 0.36717 0.367174 0.367176 0.36718 0.367184 0.367187 0.367191 
0.367195 0.367198 0.367202 0.367206 0.367209 0.367213 0.367216 0.36722 0.367223 
0.367227 0.36723 0.367234 0.367237 0.367241 0.367244 0.367248 0.367251 0.367255 
0.367258 0.367262 0.367265 0.367269 0.367272 0.367276 0.367279 0.367283 0.367286 
0.36729 0.367293 0.367297 0.3673 0.367304 0.367307 0.367311 0.367314 0.367318 
0.367321 0.367325 0.367328 0.367332 0.367335 0.367338 0.367342 0.367345 0.367349 
0.367352 0.367356 0.367359 0.367363 0.367366 0.36737 0.367373 0.367377 0.36738 
0.367384 0.367387 0.367391 0.367394 0.367397 0.367401 0.367404 0.367408 0.367411 
0.367415 0.367418 0.367422 0.367425 0.367429 0.367432 0.367436 0.367439 0.367443 
0.367446 0.367449 0.367453 0.367456 0.36746 0.367412 0.367407 0.362799 0.603 
0.603001 0.603002 0.603002 0.603003 0.603003 0.603004 0.603005 0.603005 0.603006 
0.603006 0.603007 0.603008 0.603008 0.603009 0.603009 0.60301 0.603011 0.603011 
0.603012 0.603012 0.603013 0.603014 0.603014 0.603015 0.603015 0.603016 0.603016 
0.603017 0.603018 0.603018 0.603019 0.603019 0.60302 0.603021 0.603021 0.603022 
0.603022 0.603023 0.603024 0.603024 0.603025 0.603025 0.603026 0.603027 0.603027 
0.603028 0.603028 0.603029 0.60303 0.60303 0.603031 0.603031 0.603032 0.603033 
0.603033 0.603034 0.603034 0.603035 0.603035 0.603036 0.603037 0.603037 0.603038 
0.603038 0.603039 0.60304 0.60304 0.603041 0.603041 0.603042 0.603042 0.603043 
0.603044 0.603044 0.603045 0.603045 0.603046 0.603046 0.603047 0.603048 0.603048 
0.603049 0.603049 0.60305 0.60305 0.603051 0.603051 0.603052 0.603052 0.603053 
0.603053 0.603054 0.603054 0.603055 0.603055 0.603056 0.603056 0.603057 0.603057 
0.603057 0.603058 0.603058 0.603058 0.603059 0.603059 0.603059 0.603059 0.603059 
0.60306 0.60306 0.60306 0.603059 0.603059 0.603059 0.603059 0.603058 0.603058 
0.603057 0.603056 0.603055 0.603054 0.603052 0.603051 0.603049 0.603047 0.603044 
0.603041 0.603037 0.603035 0.60311 0.603011 0.598089 0.585411 0.566193 0.541806 
0.513632 0.483047 0.451432 0.420169 0.390598 0.364113 0.342142 0.32613 0.317487 
0.316119 0.31612 0.316123 0.316133 0.316155 0.318493 0.320359 0.319441 0.313657 
0.308929 0.306267 0.308269 0.308073 0.292023 0.25708 0.226312 0.189542 0.172888 
0.17414 0.176631 0.180853 0.183961 0.186108 0.190443 0.194422 0.196625 0.206071 
0.209141 0.215803 0.218731 0.22382 0.233142 0.241556 0.251281 0.254686 0.264217 
0.274556 0.282647 0.284076 0.290429 0.29879 0.306357 0.313089 0.319488 0.327601 
0.342191 0.343548 0.354133 0.373087 0.396896 0.42547 0.449797 0.48784 0.605125 
0.555858 0.521492 0.487913 0.446064 0.405995 0.384477 0.384547 0.383921 0.368549 
0.36717 0.367174 0.367176 0.36718 0.367184 0.367187 0.367191 0.367195 0.367198 
0.367202 0.367206 0.367209 0.367213 0.367216 0.36722 0.367223 0.367227 0.36723 
0.367234 0.367237 0.367241 0.367244 0.367248 0.367251 0.367255 0.367258 0.367262 
0.367265 0.367269 0.367272 0.367276 0.367279 0.367283 0.367286 0.36729 0.367293 
0.367297 0.3673 0.367304 0.367307 0.367311 0.367314 0.367318 0.367321 0.367325 
0.367328 0.367332 0.367335 0.367338 0.367342 0.367345 0.367349 0.367352 0.367356 
0.367359 0.367363 0.367366 0.36737 0.367373 0.367377 0.36738 0.367384 0.367387 
0.367391 0.367394 0.367397 0.367401 0.367404 0.367408 0.367411 0.367415 0.367418 
0.367422 0.367425 0.367429 0.367432 0.367436 0.367439 0.367443 0.367446 0.367449 
0.367453 0.367456 0.36746 0.367412 0.367407 0.362799 0.603 0.603001 0.603002 
0.603002 0.603003 0.603003 0.603004 0.603005 0.603005 0.603006 0.603006 0.603007 
0.603008 0.603008 0.603009 0.603009 0.60301 0.603011 0.603011 0.603012 0.603012 
0.603013 0.603014 0.603014 0.603015 0.603015 0.603016 0.603016 0.603017 0.603018 
0.603018 0.603019 0.603019 0.60302 0.603021 0.603021 0.603022 0.603022 0.603023 
0.603024 0.603024 0.603025 0.603025 0.603026 0.603027 0.603027 0.603028 0.603028 
0.603029 0.60303 0.60303 0.603031 0.603031 0.603032 0.603033 0.603033 0.603034 
0.603034 0.603035 0.603035 0.603036 0.603037 0.603037 0.603038 0.603038 0.603039 
0.60304 0.60304 0.603041 0.603041 0.603042 0.603042 0.603043 0.603044 0.603044 
0.603045 0.603045 0.603046 0.603046 0.603047 0.603048 0.603048 0.603049 0.603049 
0.60305 0.60305 0.603051 0.603051 0.603052 0.603052 0.603053 0.603053 0.603054 
0.603054 0.603055 0.603055 0.603056 0.603056 0.603057 0.603057 0.603058 0.603058 
0.603058 0.603059 0.603059 0.603059 0.603059 0.60306 0.60306 0.60306 0.60306 
0.60306 0.60306 0.60306 0.60306 0.603059 0.603059 0.603059 0.603058 0.603057 
0.603056 0.603055 0.603054 0.603053 0.603051 0.603049 0.603047 0.603044 0.603041 
0.603039 0.603115 0.603017 0.598092 0.585416 0.566205 0.541826 0.513652 0.48306 
0.451424 0.420124 0.390538 0.364059 0.342115 0.32612 0.317475 0.316107 0.316108 
0.316112 0.316119 0.316138 0.319227 0.322227 0.322029 0.316377 0.310316 0.306823 
0.305928 0.3055 0.28776 0.250158 0.215782 0.184818 0.182804 0.187385 0.188913 
0.191089 0.196609 0.19837 0.201467 0.205336 0.209347 0.217246 0.219951 0.224064 
0.231149 0.233375 0.242813 0.253777 0.256607 0.264673 0.26946 0.275705 0.285011 
0.286873 0.296131 0.30618 0.308337 0.314316 0.325584 0.330133 0.34153 0.343097 
0.353265 0.371831 0.394579 0.419593 0.454933 0.499471 0.604173 0.563416 0.524245 
0.481577 0.446919 0.408603 0.38498 0.386027 0.38536 0.368643 0.367171 0.367174 
0.367177 0.36718 0.367184 0.367188 0.367191 0.367195 0.367198 0.367202 0.367206 
0.367209 0.367213 0.367216 0.36722 0.367223 0.367227 0.36723 0.367234 0.367237 
0.367241 0.367244 0.367248 0.367251 0.367255 0.367258 0.367262 0.367265 0.367269 
0.367272 0.367276 0.367279 0.367283 0.367286 0.36729 0.367293 0.367297 0.3673 
0.367304 0.367307 0.367311 0.367314 0.367318 0.367321 0.367325 0.367328 0.367332 
0.367335 0.367338 0.367342 0.367345 0.367349 0.367352 0.367356 0.367359 0.367363 
0.367366 0.36737 0.367373 0.367377 0.36738 0.367384 0.367387 0.367391 0.367394 
0.367397 0.367401 0.367404 0.367408 0.367411 0.367415 0.367418 0.367422 0.367425 
0.367429 0.367432 0.367436 0.367439 0.367443 0.367446 0.367449 0.367453 0.367456 
0.36746 0.367412 0.367407 0.362799 0.603 0.603001 0.603002 0.603002 0.603003 
0.603003 0.603004 0.603005 0.603005 0.603006 0.603006 0.603007 0.603008 0.603008 
0.603009 0.603009 0.60301 0.603011 0.603011 0.603012 0.603012 0.603013 0.603014 
0.603014 0.603015 0.603015 0.603016 0.603016 0.603017 0.603018 0.603018 0.603019 
0.603019 0.60302 0.603021 0.603021 0.603022 0.603022 0.603023 0.603024 0.603024 
0.603025 0.603025 0.603026 0.603027 0.603027 0.603028 0.603028 0.603029 0.60303 
0.60303 0.603031 0.603031 0.603032 0.603033 0.603033 0.603034 0.603034 0.603035 
0.603035 0.603036 0.603037 0.603037 0.603038 0.603038 0.603039 0.60304 0.60304 
0.603041 0.603041 0.603042 0.603042 0.603043 0.603044 0.603044 0.603045 0.603045 
0.603046 0.603046 0.603047 0.603048 0.603048 0.603049 0.603049 0.60305 0.60305 
0.603051 0.603051 0.603052 0.603053 0.603053 0.603054 0.603054 0.603055 0.603055 
0.603056 0.603056 0.603056 0.603057 0.603057 0.603058 0.603058 0.603059 0.603059 
0.603059 0.60306 0.60306 0.60306 0.60306 0.60306 0.603061 0.603061 0.603061 
0.603061 0.60306 0.60306 0.60306 0.60306 0.603059 0.603059 0.603058 0.603057 
0.603056 0.603055 0.603053 0.603052 0.60305 0.603048 0.603045 0.603043 0.60312 
0.603023 0.598096 0.585421 0.566209 0.541831 0.51366 0.483068 0.451429 0.420123 
0.390533 0.364058 0.342111 0.326111 0.317461 0.316093 0.316095 0.316097 0.316102 