# vtk DataFile Version 5.1
vtk output
ASCII
DATASET UNSTRUCTURED_GRID
POINTS 9610 double
0.1016 1.5 0.0051008639857 0.1016 1.45 0.002049474977 0.1016 1.4 0.00506520411 
0.1016 1.35 0.0041106543504 0.1016 1.3 0.0081110065803 0.1016 1.25 0.012290794402 
0.1016 1.2 0.019966604188 0.1016 1.15 0.025094944984 0.1016 1.1 0.025078719482 
0.1016 1.05 0.022677920759 0.1016 1 0.032476659864 0.1016 0.95 0.032933618873 
0.1016 0.9 0.033451445401 0.1016 0.85 0.035705879331 0.1016 0.8 0.041013989598 
0.1016 0.75 0.042368419468 0.1016 0.7 0.0461948663 0.1016 0.65 0.04613398388 
0.1016 0.6 0.037831872702 0.1016 0.55 0.028481155634 0.1016 0.5 0.029335644096 
0.1016 0.45 0.038272794336 0.1016 0.4 0.042588032782 0.1016 0.35 0.038786359131 
0.1016 0.3 0.028780227527 0.1016 0.25 0.029886942357 0.1016 0.2 0.03069373779 
0.1016 0.15 0.029957069084 0.1016 0.1 0.028933888301 0.1016 0.05 0.025441842154 
0.1016 0 0.018521258608 5.08 1.5 0.28700000048 5.08 1.45 0.28700000048 
5.08 1.4 0.28700000048 5.08 1.35 0.28700000048 5.08 1.3 0.28700000048 
5.08 1.25 0.28700000048 5.08 1.2 0.28700000048 5.08 1.15 0.28700000048 
5.08 1.1 0.28700000048 5.08 1.05 0.28700000048 5.08 1 0.28700000048 
5.08 0.95 0.28700000048 5.08 0.9 0.28700000048 5.08 0.85 0.28700000048 
5.08 0.8 0.28700000048 5.08 0.75 0.28700000048 5.08 0.7 0.28700000048 
5.08 0.65 0.28700000048 5.08 0.6 0.28700000048 5.08 0.55 0.28700000048 
5.08 0.5 0.28700000048 5.08 0.45 0.28700000048 5.08 0.4 0.28700000048 
5.08 0.35 0.28700000048 5.08 0.3 0.28700000048 5.08 0.25 0.28700000048 
5.08 0.2 0.28700000048 5.08 0.15 0.28700000048 5.08 0.1 0.28700000048 
5.08 0.05 0.28700000048 5.08 0 0.28700000048 0.151384 1.5 0.022531135008 
0.151384 1.45 0.021506568417 0.151384 1.4 0.033293098211 0.151384 1.35 0.023498250172 
0.151384 1.3 0.032372456044 0.151384 1.25 0.02954453975 0.151384 1.2 0.040467966348 
0.151384 1.15 0.040626335889 0.151384 1.1 0.043521791697 0.151384 1.05 0.027825251222 
0.151384 1 0.05445490405 0.151384 0.95 0.04275143519 0.151384 0.9 0.045677024871 
0.151384 0.85 0.043794211 0.151384 0.8 0.057593904436 0.151384 0.75 0.054694853723 
0.151384 0.7 0.065532401204 0.151384 0.65 0.067502133548 0.151384 0.6 0.057508010417 
0.151384 0.55 0.043574716896 0.151384 0.5 0.043620221317 0.151384 0.45 0.059493161738 
0.151384 0.4 0.062556006014 0.151384 0.35 0.061474561691 0.151384 0.3 0.039721693844 
0.151384 0.25 0.051484890282 0.151384 0.2 0.05248875916 0.151384 0.15 0.053448025137 
0.151384 0.1 0.052473355085 0.151384 0.05 0.0523882173 0.151384 0 0.03851127997 
0.201168 1.5 0.064154468477 0.201168 1.45 0.05653597042 0.201168 1.4 0.074236273766 
0.201168 1.35 0.068125076592 0.201168 1.3 0.07128996402 0.201168 1.25 0.069311082363 
0.201168 1.2 0.078297302127 0.201168 1.15 0.065909899771 0.201168 1.1 0.068836100399 
0.201168 1.05 0.066340602934 0.201168 1 0.07406514883 0.201168 0.95 0.073580957949 
0.201168 0.9 0.06788726896 0.201168 0.85 0.068780548871 0.201168 0.8 0.081760756671 
0.201168 0.75 0.084643580019 0.201168 0.7 0.096607588232 0.201168 0.65 0.095765121281 
0.201168 0.6 0.090561725199 0.201168 0.55 0.084232375026 0.201168 0.5 0.075610727072 
0.201168 0.45 0.089629545808 0.201168 0.4 0.091723702848 0.201168 0.35 0.083978570998 
0.201168 0.3 0.076405949891 0.201168 0.25 0.076849207282 0.201168 0.2 0.088458366692 
0.201168 0.15 0.088510513306 0.201168 0.1 0.084630288184 0.201168 0.05 0.081705674529 
0.201168 0 0.081169128418 0.250952 1.5 0.10635516047 0.250952 1.45 0.09193456918 
0.250952 1.4 0.10518491268 0.250952 1.35 0.11146408319 0.250952 1.3 0.10685089976 
0.250952 1.25 0.10779680312 0.250952 1.2 0.11476781219 0.250952 1.15 0.10361704975 
0.250952 1.1 0.097122706473 0.250952 1.05 0.10462022573 0.250952 1 0.10128586739 
0.250952 0.95 0.11817833036 0.250952 0.9 0.10192902386 0.250952 0.85 0.11320853233 
0.250952 0.8 0.12619817257 0.250952 0.75 0.12365099043 0.250952 0.7 0.12993659079 
0.250952 0.65 0.13176871836 0.250952 0.6 0.12499077618 0.250952 0.55 0.11427798867 
0.250952 0.5 0.11089701951 0.250952 0.45 0.12759782374 0.250952 0.4 0.12960143387 
0.250952 0.35 0.11779878289 0.250952 0.3 0.11083931476 0.250952 0.25 0.11645632982 
0.250952 0.2 0.12285158038 0.250952 0.15 0.12286756188 0.250952 0.1 0.11802565306 
0.250952 0.05 0.12070769072 0.250952 0 0.11600569636 0.300736 1.5 0.15327143669 
0.300736 1.45 0.12985861301 0.300736 1.4 0.13625732064 0.300736 1.35 0.15087223053 
0.300736 1.3 0.14677527547 0.300736 1.25 0.14045649767 0.300736 1.2 0.14999109507 
0.300736 1.15 0.14182704687 0.300736 1.1 0.14217425883 0.300736 1.05 0.14189071953 
0.300736 1 0.13805539906 0.300736 0.95 0.15017086267 0.300736 0.9 0.13788256049 
0.300736 0.85 0.14995282888 0.300736 0.8 0.15486072004 0.300736 0.75 0.15829096735 
0.300736 0.7 0.16150869429 0.300736 0.65 0.1662415266 0.300736 0.6 0.15182831883 
0.300736 0.55 0.14714950323 0.300736 0.5 0.14805971086 0.300736 0.45 0.16048012674 
0.300736 0.4 0.16430334747 0.300736 0.35 0.15500676632 0.300736 0.3 0.15347275138 
0.300736 0.25 0.15675061941 0.300736 0.2 0.16086807847 0.300736 0.15 0.16449941695 
0.300736 0.1 0.14846934378 0.300736 0.05 0.1422624886 0.300736 0 0.15111155808 
0.35052 1.5 0.17712074518 0.35052 1.45 0.17288278043 0.35052 1.4 0.17951062322 
0.35052 1.35 0.17919199169 0.35052 1.3 0.18227496743 0.35052 1.25 0.17355911434 
0.35052 1.2 0.18978303671 0.35052 1.15 0.18485561013 0.35052 1.1 0.17958623171 
0.35052 1.05 0.17565397918 0.35052 1 0.17343065143 0.35052 0.95 0.19514477253 
0.35052 0.9 0.1988504082 0.35052 0.85 0.19261233509 0.35052 0.8 0.19276130199 
0.35052 0.75 0.19330143929 0.35052 0.7 0.19201868773 0.35052 0.65 0.19415713847 
0.35052 0.6 0.18735337257 0.35052 0.55 0.18503309786 0.35052 0.5 0.17895646393 
0.35052 0.45 0.18815971911 0.35052 0.4 0.19483590126 0.35052 0.35 0.19043369591 
0.35052 0.3 0.19213120639 0.35052 0.25 0.19164463878 0.35052 0.2 0.20009593666 
0.35052 0.15 0.196884498 0.35052 0.1 0.18961776793 0.35052 0.05 0.18419648707 
0.35052 0 0.18444867432 0.400304 1.5 0.19977575541 0.400304 1.45 0.20427469909 
0.400304 1.4 0.21054114401 0.400304 1.35 0.21738430858 0.400304 1.3 0.22029735148 
0.400304 1.25 0.21933746338 0.400304 1.2 0.2245708555 0.400304 1.15 0.21709769964 
0.400304 1.1 0.21002753079 0.400304 1.05 0.21025577188 0.400304 1 0.21757812798 
0.400304 0.95 0.22932519019 0.400304 0.9 0.22653180361 0.400304 0.85 0.22450354695 
0.400304 0.8 0.23753720522 0.400304 0.75 0.22946040332 0.400304 0.7 0.21949267387 
0.400304 0.65 0.22585169971 0.400304 0.6 0.21582601964 0.400304 0.55 0.21984350681 
0.400304 0.5 0.2153891176 0.400304 0.45 0.22074846923 0.400304 0.4 0.22787922621 
0.400304 0.35 0.22922290862 0.400304 0.3 0.23191978037 0.400304 0.25 0.22572574019 
0.400304 0.2 0.23550023139 0.400304 0.15 0.23152658343 0.400304 0.1 0.22572937608 
0.400304 0.05 0.22954754531 0.400304 0 0.22317938507 0.450088 1.5 0.23973186314 
0.450088 1.45 0.24225261807 0.450088 1.4 0.24484057724 0.450088 1.35 0.24025267363 
0.450088 1.3 0.25109007955 0.450088 1.25 0.25326445699 0.450088 1.2 0.26566365361 
0.450088 1.15 0.25671115518 0.450088 1.1 0.24971534312 0.450088 1.05 0.25940722227 
0.450088 1 0.24867397547 0.450088 0.95 0.25569117069 0.450088 0.9 0.25942355394 
0.450088 0.85 0.26050403714 0.450088 0.8 0.26537120342 0.450088 0.75 0.26490151882 
0.450088 0.7 0.25719958544 0.450088 0.65 0.25265580416 0.450088 0.6 0.2476542294 
0.450088 0.55 0.24654780328 0.450088 0.5 0.25145027041 0.450088 0.45 0.25384056568 
0.450088 0.4 0.25315624475 0.450088 0.35 0.26314082742 0.450088 0.3 0.26530829072 
0.450088 0.25 0.26520383358 0.450088 0.2 0.26821899414 0.450088 0.15 0.26848313212 
0.450088 0.1 0.26246681809 0.450088 0.05 0.26652064919 0.450088 0 0.2594602704 
0.499872 1.5 0.27554345131 0.499872 1.45 0.27176037431 0.499872 1.4 0.2733759582 
0.499872 1.35 0.26881816983 0.499872 1.3 0.27141615748 0.499872 1.25 0.2720823586 
0.499872 1.2 0.27269855142 0.499872 1.15 0.27058157325 0.499872 1.1 0.26871365309 
0.499872 1.05 0.26780027151 0.499872 1 0.26621717215 0.499872 0.95 0.26711922884 
0.499872 0.9 0.26734054089 0.499872 0.85 0.26583510637 0.499872 0.8 0.26774942875 
0.499872 0.75 0.26968574524 0.499872 0.7 0.26456707716 0.499872 0.65 0.26669073105 
0.499872 0.6 0.26615199447 0.499872 0.55 0.26828944683 0.499872 0.5 0.26768928766 
0.499872 0.45 0.26708868146 0.499872 0.4 0.26836654544 0.499872 0.35 0.26932576299 
0.499872 0.3 0.27143844962 0.499872 0.25 0.27338728309 0.499872 0.2 0.27361786366 
0.499872 0.15 0.27546870708 0.499872 0.1 0.2771717608 0.499872 0.05 0.27937820554 
0.499872 0 0.27907055616 0.549656 1.5 0.28286254406 0.549656 1.45 0.27741619945 
0.549656 1.4 0.27859404683 0.549656 1.35 0.27401977777 0.549656 1.3 0.27552545071 
0.549656 1.25 0.27453348041 0.549656 1.2 0.27297157049 0.549656 1.15 0.27128124237 
0.549656 1.1 0.27117782831 0.549656 1.05 0.26810216904 0.549656 1 0.26853021979 
0.549656 0.95 0.26848161221 0.549656 0.9 0.2672290504 0.549656 0.85 0.26515167952 
0.549656 0.8 0.26716443896 0.549656 0.75 0.26908889413 0.549656 0.7 0.26514157653 
0.549656 0.65 0.26843315363 0.549656 0.6 0.26872390509 0.549656 0.55 0.27090147138 
0.549656 0.5 0.26879903674 0.549656 0.45 0.26853880286 0.549656 0.4 0.26968806982 
0.549656 0.35 0.26849123836 0.549656 0.3 0.27113586664 0.549656 0.25 0.2723133564 
0.549656 0.2 0.27394679189 0.549656 0.15 0.27521589398 0.549656 0.1 0.27748215199 
0.549656 0.05 0.28025880456 0.549656 0 0.28133359551 0.59944 1.5 0.29289853573 
0.59944 1.45 0.27733436227 0.59944 1.4 0.2769215405 0.59944 1.35 0.27352321148 
0.59944 1.3 0.27379944921 0.59944 1.25 0.27284267545 0.59944 1.2 0.27180299163 
0.59944 1.15 0.27054151893 0.59944 1.1 0.26956936717 0.59944 1.05 0.26646342874 
0.59944 1 0.26631307602 0.59944 0.95 0.26631873846 0.59944 0.9 0.26528045535 
0.59944 0.85 0.2640812099 0.59944 0.8 0.26533475518 0.59944 0.75 0.2665091157 
0.59944 0.7 0.26415762305 0.59944 0.65 0.26626214385 0.59944 0.6 0.26719772816 
0.59944 0.55 0.26831874251 0.59944 0.5 0.266310215 0.59944 0.45 0.2663167119 
[...]
CELL_DATA 9270
FIELD FieldData 7
B_Stress_n_p_m2 1 9270 float
0.184724 0.203381 0.205335 0.202961 0.200229 0.199106 0.197602 0.197979 0.196161 
0.197646 0.199308 0.197984 0.198624 0.201857 0.204233 0.20719 0.209366 0.208739 
0.205886 0.203882 0.208168 0.212688 0.214846 0.213784 0.214422 0.219649 0.223359 
0.226814 0.225789 0.209026 0.0290641 0.0611 0.0678092 0.065169 0.0625938 0.0602002 
0.0580861 0.0569515 0.0568273 0.0553462 0.0564632 0.0546476 0.0548787 0.0554183 0.0564456 
0.0575728 0.0590152 0.0596168 0.059741 0.0590128 0.059669 0.0608518 0.0609206 0.0617368 
0.0619279 0.0651338 0.068279 0.0705362 0.0652921 0.0334691 0.0572223 0.0968285 0.108735 
0.107158 0.103409 0.101179 0.0986099 0.0961328 0.0955124 0.094784 0.0949643 0.093778 
0.0937895 0.0954659 0.0969915 0.0985599 0.100621 0.100425 0.100353 0.100546 0.101657 
0.103592 0.103371 0.103248 0.104965 0.107588 0.11153 0.112286 0.103207 0.0634581 
0.0604538 0.103029 0.116488 0.117407 0.112689 0.111004 0.109159 0.107445 0.105766 
0.105406 0.105473 0.106041 0.10425 0.105763 0.107216 0.108655 0.110576 0.110565 
0.110056 0.109676 0.111457 0.114275 0.114623 0.11462 0.115944 0.119345 0.121874 
0.121077 0.107212 0.0638288 0.0763615 0.121646 0.136589 0.138851 0.135515 0.133125 
0.132329 0.130308 0.129321 0.129005 0.130764 0.132896 0.131418 0.131923 0.130563 
0.130867 0.132462 0.132959 0.132457 0.131958 0.133393 0.136767 0.138766 0.139365 
0.140619 0.144144 0.145669 0.144388 0.128324 0.0800684 0.0920343 0.142567 0.16043 
0.164365 0.16469 0.16321 0.161956 0.159412 0.158594 0.157851 0.159785 0.162906 
0.164066 0.164142 0.16307 0.160205 0.159165 0.158738 0.158858 0.160237 0.160766 
0.163898 0.168686 0.170934 0.172394 0.174478 0.176665 0.172712 0.156978 0.104479 
0.116175 0.170216 0.187014 0.192645 0.195064 0.196637 0.195849 0.192786 0.191503 
0.190178 0.190036 0.191421 0.191649 0.191853 0.19405 0.191594 0.188366 0.188017 
0.186944 0.189192 0.190896 0.192782 0.197097 0.201538 0.204628 0.205501 0.207757 
0.204326 0.186629 0.131964 0.139875 0.196077 0.212182 0.213512 0.21482 0.213716 
0.214099 0.212414 0.209459 0.209888 0.206228 0.204727 0.204488 0.204379 0.204698 
0.204988 0.20517 0.205142 0.206328 0.206546 0.208365 0.209681 0.210212 0.214059 
0.216843 0.219265 0.22037 0.219534 0.203179 0.147763 0.150856 0.20626 0.221314 
0.222568 0.221028 0.218806 0.215854 0.214822 0.212912 0.210569 0.20962 0.207227 
0.20556 0.20467 0.204768 0.205409 0.206195 0.208432 0.210232 0.21119 0.211359 
0.211862 0.212684 0.213792 0.215916 0.218262 0.21915 0.218642 0.205601 0.15092 
0.157987 0.211097 0.225552 0.226701 0.22567 0.223947 0.221915 0.220542 0.21916 
0.217006 0.216093 0.214603 0.213311 0.212382 0.212436 0.213108 0.213411 0.215022 
0.216264 0.217083 0.217122 0.217597 0.218337 0.218925 0.220626 0.221925 0.222522 
0.220876 0.207635 0.153867 0.164291 0.218138 0.233413 0.235902 0.235549 0.234867 
0.234097 0.233589 0.233096 0.232071 0.231325 0.23061 0.230026 0.229441 0.22914 
0.229581 0.229793 0.230276 0.230965 0.23162 0.231916 0.23218 0.23266 0.232639 
0.233182 0.233532 0.233333 0.229846 0.21456 0.159749 0.164103 0.22107 0.236439 
0.239809 0.23991 0.239703 0.23941 0.239264 0.239084 0.238997 0.238594 0.238142 
0.237883 0.237702 0.237381 0.237376 0.237844 0.237883 0.238151 0.238392 0.238951 
0.239218 0.239357 0.239525 0.239276 0.239147 0.238479 0.235243 0.219433 0.163329 
0.165291 0.221012 0.235805 0.238769 0.239001 0.238832 0.238586 0.238388 0.238173 
0.237955 0.23765 0.237338 0.2371 0.23692 0.236767 0.236783 0.236974 0.237096 
0.237321 0.237547 0.237851 0.238055 0.238199 0.238296 0.238262 0.238197 0.23765 
0.234561 0.219552 0.164108 0.165967 0.221327 0.235739 0.238536 0.238802 0.238673 
0.23848 0.238301 0.238112 0.237922 0.237694 0.237468 0.237285 0.237148 0.237051 
0.237051 0.237155 0.237254 0.237413 0.237582 0.237787 0.237945 0.238062 0.238143 
0.238148 0.238104 0.237631 0.234709 0.220139 0.164989 0.166545 0.221562 0.235658 
0.238316 0.238571 0.238453 0.238284 0.238119 0.237949 0.23778 0.237598 0.237425 
0.237281 0.237173 0.237104 0.237098 0.237155 0.237233 0.237348 0.237475 0.237619 
0.237742 0.237841 0.237916 0.237953 0.237943 0.237543 0.234767 0.220544 0.16568 
0.167062 0.221776 0.235612 0.238163 0.238397 0.238281 0.238126 0.237975 0.237824 
0.237676 0.237527 0.23739 0.237274 0.237187 0.237134 0.237124 0.237157 0.237213 
0.237297 0.237393 0.2375 0.237598 0.237684 0.237758 0.237815 0.237833 0.237492 
0.23484 0.220899 0.166311 0.167555 0.22197 0.235575 0.238037 0.238249 0.238132 
0.237985 0.237844 0.237708 0.237578 0.237453 0.23734 0.237245 0.237173 0.237129 
0.237117 0.237135 0.237176 0.237238 0.237312 0.237395 0.237476 0.237555 0.237629 
0.2377 0.23774 0.237447 0.234901 0.221207 0.166899 0.168037 0.222154 0.235544 
0.237928 0.238119 0.238 0.237858 0.237726 0.237602 0.237486 0.237378 0.237282 
0.237202 0.237142 0.237104 0.23709 0.2371 0.237129 0.237176 0.237235 0.237302 
0.237373 0.237446 0.237522 0.237603 0.237661 0.237405 0.234952 0.221487 0.167463 
0.168517 0.222332 0.235517 0.237829 0.238002 0.237881 0.237743 0.237617 0.237502 
0.237397 0.237301 0.237218 0.237149 0.237097 0.237063 0.237049 0.237054 0.237075 
0.237112 0.23716 0.237217 0.237281 0.237351 0.237429 0.237517 0.23759 0.237364 
0.234994 0.221746 0.168012 0.168999 0.222508 0.235491 0.237736 0.237894 0.237772 
0.237636 0.237515 0.237407 0.23731 0.237224 0.23715 0.237089 0.237043 0.237012 
0.236998 0.237 0.237016 0.237046 0.237086 0.237137 0.237197 0.237265 0.237345 
0.237439 0.237522 0.237321 0.235028 0.221991 0.168554 0.169486 0.222684 0.235468 
0.237648 0.237792 0.237668 0.237535 0.237418 0.237315 0.237225 0.237146 0.237079 
0.237024 0.236982 0.236954 0.23694 0.23694 0.236953 0.236978 0.237014 0.237061 
0.237117 0.237185 0.237267 0.237365 0.237456 0.237277 0.235056 0.222226 0.169091 
0.169977 0.222861 0.235447 0.237564 0.237695 0.237569 0.237438 0.237325 0.237226 
0.237141 0.237067 0.237005 0.236954 0.236916 0.23689 0.236877 0.236876 0.236887 
0.236909 0.236943 0.236987 0.237042 0.237109 0.237193 0.237294 0.237392 0.237231 
0.235079 0.222454 0.169626 0.170475 0.223039 0.235426 0.237482 0.2376 0.237474 
0.237344 0.237234 0.237139 0.237057 0.236988 0.236929 0.236882 0.236847 0.236823 
0.23681 0.236809 0.236818 0.236839 0.236871 0.236913 0.236968 0.237036 0.23712 
0.237225 0.237327 0.237184 0.235098 0.222676 0.170163 0.170979 0.223218 0.235407 
0.237402 0.237508 0.237381 0.237253 0.237145 0.237052 0.236974 0.236908 0.236852 
0.236808 0.236775 0.236752 0.23674 0.236739 0.236748 0.236768 0.236799 0.236841 
0.236895 0.236963 0.237049 0.237155 0.237262 0.237134 0.235114 0.222895 0.1707 
0.17149 0.223398 0.235389 0.237323 0.237419 0.237291 0.237164 0.237057 0.236967 
0.236891 0.236827 0.236775 0.236733 0.236701 0.23668 0.236669 0.236668 0.236677 
0.236697 0.236727 0.236768 0.236823 0.236891 0.236978 0.237086 0.237196 0.237083 
0.235126 0.223109 0.17124 0.172008 0.22358 0.235371 0.237246 0.23733 0.237202 
0.237076 0.23697 0.236882 0.236808 0.236747 0.236696 0.236656 0.236626 0.236606 
0.236595 0.236595 0.236604 0.236624 0.236654 0.236696 0.23675 0.23682 0.236907 
0.237016 0.23713 0.23703 0.235135 0.223322 0.171784 0.172532 0.223763 0.235354 
0.23717 0.237243 0.237114 0.236989 0.236885 0.236798 0.236726 0.236666 0.236617 
0.236578 0.23655 0.23653 0.236521 0.236521 0.236531 0.236551 0.236581 0.236623 
0.236678 0.236748 0.236836 0.236946 0.237062 0.236975 0.235142 0.223531 0.172331 
0.173062 0.223947 0.235337 0.237095 0.237157 0.237027 0.236903 0.2368 0.236714 
0.236643 0.236585 0.236537 0.2365 0.236472 0.236454 0.236446 0.236446 0.236457 
0.236477 0.236508 0.23655 0.236605 0.236675 0.236764 0.236875 0.236994 0.23692 
0.235147 0.223739 0.172882 0.173599 0.224132 0.23532 0.23702 0.237072 0.236941 
0.236817 0.236715 0.236631 0.236561 0.236504 0.236457 0.236421 0.236395 0.236377 
0.236369 0.236371 0.236381 0.236402 0.236433 0.236476 0.236531 0.236602 0.236692 
0.236804 0.236925 0.236862 0.23515 0.223945 0.173437 0.174142 0.224317 0.235304 
0.236946 0.236988 0.236856 0.236733 0.236631 0.236548 0.236479 0.236423 0.236377 
0.236342 0.236316 0.2363 0.236292 0.236294 0.236306 0.236327 0.236358 0.236401 
0.236458 0.236529 0.236619 0.236732 0.236855 0.236804 0.23515 0.224149 0.173997 
0.174692 0.224503 0.235287 0.236872 0.236904 0.236771 0.236648 0.236548 0.236465 
0.236397 0.236341 0.236297 0.236262 0.236237 0.236222 0.236215 0.236218 0.236229 
0.236251 0.236283 0.236326 0.236383 0.236455 0.236546 0.236659 0.236784 0.236744 
0.235148 0.224352 0.174561 0.175249 0.224689 0.235269 0.236799 0.23682 0.236687 
0.236564 0.236464 0.236382 0.236315 0.23626 0.236216 0.236183 0.236158 0.236143 
0.236137 0.23614 0.236153 0.236175 0.236207 0.236251 0.236308 0.23638 0.236471 
0.236585 0.236712 0.236683 0.235145 0.224553 0.17513 0.175811 0.224875 0.235251 
0.236725 0.236737 0.236603 0.236481 0.236381 0.2363 0.236233 0.236179 0.236135 
0.236102 0.236079 0.236064 0.236059 0.236062 0.236075 0.236098 0.236131 0.236175 
0.236232 0.236305 0.236397 0.236511 0.23664 0.236621 0.23514 0.224753 0.175705 
0.17638 0.225061 0.235233 0.236652 0.236655 0.236519 0.236397 0.236298 0.236217 
0.236151 0.236097 0.236054 0.236022 0.235999 0.235985 0.23598 0.235984 0.235997 
0.23602 0.236054 0.236098 0.236156 0.236229 0.236321 0.236436 0.236567 0.236558 
0.235132 0.224951 0.176284 0.176956 0.225247 0.235214 0.236579 0.236572 0.236435 
0.236314 0.236215 0.236135 0.236069 0.236016 0.235973 0.235941 0.235919 0.235905 
0.235901 0.235905 0.235919 0.235942 0.235976 0.236021 0.23608 0.236153 0.236245 
0.236361 0.236493 0.236494 0.235124 0.225148 0.176869 0.177537 0.225433 0.235195 
0.236505 0.23649 0.236352 0.236231 0.236132 0.236052 0.235987 0.235934 0.235892 
0.235861 0.235838 0.235825 0.235821 0.235826 0.23584 0.235864 0.235898 0.235944 
0.236003 0.236076 0.236169 0.236285 0.236418 0.236429 0.235113 0.225344 0.177459 
0.178125 0.225618 0.235174 0.236432 0.236407 0.236269 0.236148 0.23605 0.23597 
0.235905 0.235852 0.235811 0.23578 0.235758 0.235745 0.235742 0.235747 0.235761 
0.235785 0.23582 0.235866 0.235925 0.235999 0.236092 0.236208 0.236343 0.236363 
0.235101 0.225538 0.178055 0.17872 0.225803 0.235153 0.236358 0.236325 0.236186 
0.236065 0.235967 0.235887 0.235822 0.23577 0.235729 0.235699 0.235677 0.235665 
0.235661 0.235667 0.235682 0.235706 0.235741 0.235787 0.235847 0.235921 0.236014 
0.236131 0.236267 0.236296 0.235087 0.225731 0.178657 0.179321 0.225987 0.235131 
0.236284 0.236243 0.236103 0.235982 0.235884 0.235805 0.23574 0.235688 0.235648 
0.235617 0.235596 0.235584 0.235581 0.235587 0.235602 0.235627 0.235662 0.235709 
0.235768 0.235843 0.235936 0.236053 0.23619 0.236228 0.235071 0.225922 0.179264 
0.179928 0.22617 0.235108 0.23621 0.236161 0.23602 0.235899 0.235801 0.235722 
0.235658 0.235606 0.235566 0.235536 0.235515 0.235503 0.2355 0.235507 0.235522 
0.235547 0.235583 0.235629 0.235689 0.235764 0.235858 0.235975 0.236113 0.23616 
0.235054 0.226112 0.179877 0.180542 0.226353 0.235084 0.236136 0.236079 0.235936 
0.235816 0.235719 0.23564 0.235575 0.235524 0.235484 0.235454 0.235433 0.235422 
0.235419 0.235426 0.235442 0.235467 0.235503 0.23555 0.23561 0.235685 0.235779 
0.235896 0.236036 0.23609 0.235035 0.2263 0.180496 0.181163 0.226534 0.235059 
0.236061 0.235996 0.235853 0.235733 0.235636 0.235557 0.235493 0.235442 0.235402 
0.235372 0.235351 0.23534 0.235338 0.235345 0.235361 0.235386 0.235422 0.23547 
0.23553 0.235605 0.2357 0.235817 0.235958 0.23602 0.235015 0.226487 0.181121 
0.18179 0.226715 0.235033 0.235986 0.235914 0.23577 0.23565 0.235553 0.235474 
0.23541 0.235359 0.235319 0.23529 0.23527 0.235259 0.235257 0.235264 0.23528 
0.235305 0.235342 0.235389 0.23545 0.235525 0.23562 0.235738 0.235879 0.235949 
0.234993 0.226672 0.181752 0.182424 0.226894 0.235005 0.235911 0.235832 0.235687 
0.235567 0.23547 0.235391 0.235327 0.235277 0.235237 0.235207 0.235187 0.235177 
0.235175 0.235182 0.235198 0.235224 0.235261 0.235308 0.235369 0.235445 0.23554 
0.235658 0.2358 0.235878 0.23497 0.226856 0.18239 0.183065 0.227073 0.234977 
0.235835 0.235749 0.235604 0.235484 0.235386 0.235308 0.235244 0.235194 0.235154 
0.235125 0.235105 0.235094 0.235093 0.2351 0.235117 0.235143 0.23518 0.235227 
0.235288 0.235364 0.235459 0.235577 0.235721 0.235805 0.234945 0.227038 0.183034 
0.183712 0.22725 0.234947 0.235759 0.235666 0.235521 0.2354 0.235303 0.235225 
0.235161 0.235111 0.235071 0.235042 0.235022 0.235012 0.235011 0.235018 0.235035 
0.235061 0.235098 0.235146 0.235207 0.235283 0.235378 0.235497 0.235641 0.235732 
0.234918 0.227219 0.183685 0.184367 0.227425 0.234916 0.235683 0.235584 0.235437 
0.235317 0.23522 0.235142 0.235078 0.235028 0.234988 0.234959 0.23494 0.234929 
0.234928 0.234936 0.234953 0.234979 0.235016 0.235064 0.235126 0.235202 0.235297 
0.235416 0.235561 0.235659 0.23489 0.227397 0.184342 0.185028 0.2276 0.234884 
0.235606 0.235501 0.235354 0.235234 0.235136 0.235058 0.234995 0.234944 0.234905 
0.234876 0.234857 0.234847 0.234845 0.234853 0.23487 0.234897 0.234934 0.234982 
0.235044 0.23512 0.235216 0.235334 0.23548 0.235584 0.234861 0.227574 0.185005 
0.185696 0.227772 0.234851 0.235529 0.235418 0.23527 0.23515 0.235053 0.234975 
0.234911 0.234861 0.234822 0.234793 0.234773 0.234763 0.234762 0.23477 0.234787 
0.234814 0.234852 0.2349 0.234962 0.235038 0.235134 0.235252 0.235399 0.235509 
0.23483 0.22775 0.185676 0.186372 0.227943 0.234816 0.235452 0.235334 0.235186 
0.235066 0.234969 0.234891 0.234827 0.234777 0.234738 0.234709 0.23469 0.23468 
0.234679 0.234687 0.234704 0.234731 0.234769 0.234817 0.234879 0.234956 0.235051 
0.23517 0.235318 0.235434 0.234797 0.227923 0.186354 0.187055 0.228113 0.23478 
0.235374 0.235251 0.235102 0.234982 0.234885 0.234807 0.234743 0.234693 0.234654 
0.234626 0.234606 0.234596 0.234596 0.234604 0.234621 0.234648 0.234686 0.234734 
0.234796 0.234873 0.234969 0.235088 0.235236 0.235358 0.234763 0.228094 0.187038 
0.187745 0.22828 0.234743 0.235295 0.235167 0.235018 0.234898 0.234801 0.234723 
0.234659 0.234609 0.23457 0.234542 0.234522 0.234513 0.234512 0.23452 0.234538 
0.234565 0.234602 0.234651 0.234713 0.23479 0.234886 0.235005 0.235154 0.235281 
0.234728 0.228263 0.18773 0.188442 0.228446 0.234704 0.235217 0.235084 0.234934 
0.234814 0.234716 0.234639 0.234575 0.234525 0.234486 0.234457 0.234438 0.234429 
0.234428 0.234436 0.234454 0.234481 0.234519 0.234568 0.23463 0.234707 0.234803 
0.234922 0.235071 0.235204 0.234691 0.228431 0.188429 0.189147 0.228609 0.234665 
0.235137 0.235 0.234849 0.234729 0.234632 0.234554 0.23449 0.234441 0.234401 
0.234373 0.234354 0.234344 0.234344 0.234352 0.23437 0.234397 0.234435 0.234484 
0.234546 0.234623 0.23472 0.234839 0.234988 0.235126 0.234652 0.228596 0.189135 
0.189859 0.228771 0.234623 0.235058 0.234915 0.234764 0.234645 0.234547 0.234469 
0.234406 0.234356 0.234317 0.234289 0.234269 0.23426 0.234259 0.234268 0.234286 
0.234313 0.234351 0.2344 0.234462 0.234539 0.234636 0.234755 0.234905 0.235047 
0.234612 0.228759 0.189848 0.190579 0.22893 0.234581 0.234978 0.234831 0.23468 
0.23456 0.234462 0.234385 0.234321 0.234271 0.234232 0.234204 0.234185 0.234175 
0.234175 0.234183 0.234201 0.234228 0.234267 0.234316 0.234378 0.234455 0.234552 
0.234671 0.234822 0.234968 0.234571 0.228919 0.19057 0.191307 0.229087 0.234537 
0.234897 0.234746 0.234595 0.234475 0.234377 0.2343 0.234236 0.234186 0.234147 
0.234119 0.2341 0.23409 0.23409 0.234098 0.234116 0.234144 0.234182 0.234231 
0.234294 0.234371 0.234468 0.234587 0.234738 0.234889 0.234528 0.229077 0.191298 
0.192043 0.229242 0.234491 0.234816 0.234661 0.234509 0.234389 0.234292 0.234214 
0.234151 0.234101 0.234062 0.234034 0.234015 0.234005 0.234005 0.234013 0.234031 
0.234059 0.234097 0.234146 0.234209 0.234286 0.234383 0.234503 0.234654 0.234809 
0.234483 0.229233 0.192035 0.192786 0.229394 0.234444 0.234735 0.234576 0.234424 
0.234304 0.234206 0.234129 0.234065 0.234015 0.233976 0.233948 0.233929 0.23392 
0.233919 0.233928 0.233946 0.233974 0.234012 0.234061 0.234124 0.234201 0.234298 
0.234418 0.23457 0.234728 0.234437 0.229386 0.192779 0.193538 0.229543 0.234396 
0.234653 0.234491 0.234338 0.234218 0.234121 0.234043 0.23398 0.23393 0.233891 
0.233863 0.233844 0.233834 0.233834 0.233843 0.233861 0.233888 0.233927 0.233976 
0.234039 0.234116 0.234213 0.234333 0.234485 0.234647 0.234389 0.229536 0.193532 
0.194298 0.22969 0.234346 0.234571 0.234406 0.234253 0.234133 0.234035 0.233957 
0.233894 0.233844 0.233805 0.233777 0.233758 0.233749 0.233748 0.233757 0.233775 
0.233803 0.233841 0.23389 0.233954 0.234031 0.234128 0.234248 0.2344 0.234565 
0.234341 0.229684 0.194292 0.195066 0.229834 0.234295 0.234488 0.23432 0.234167 
0.234047 0.233949 0.233871 0.233808 0.233758 0.233719 0.233691 0.233672 0.233663 
0.233662 0.233671 0.233689 0.233717 0.233756 0.233805 0.233868 0.233945 0.234043 
0.234162 0.234315 0.234483 0.23429 0.229829 0.195061 0.195843 0.229975 0.234243 
0.234405 0.234234 0.23408 0.233961 0.233863 0.233785 0.233721 0.233672 0.233633 
0.233604 0.233586 0.233576 0.233576 0.233585 0.233603 0.233631 0.23367 0.233719 
0.233782 0.233859 0.233957 0.234076 0.23423 0.234401 0.234238 0.22997 0.195838 
0.196628 0.230114 0.234189 0.234322 0.234148 0.233994 0.233874 0.233776 0.233699 
0.233635 0.233585 0.233546 0.233518 0.233499 0.23349 0.23349 0.233499 0.233517 
0.233545 0.233583 0.233633 0.233696 0.233773 0.233871 0.23399 0.234144 0.234318 
0.234185 0.230109 0.196623 0.197421 0.230249 0.234133 0.234238 0.234061 0.233907 
0.233788 0.23369 0.233612 0.233548 0.233499 0.23346 0.233431 0.233413 0.233403 
0.233403 0.233412 0.23343 0.233458 0.233497 0.233546 0.23361 0.233687 0.233785 
0.233904 0.234058 0.234235 0.23413 0.230245 0.197418 0.198224 0.23038 0.234077 
0.234154 0.233975 0.23382 0.233701 0.233603 0.233525 0.233461 0.233412 0.233373 
0.233345 0.233326 0.233317 0.233316 0.233325 0.233344 0.233371 0.23341 0.23346 
0.233523 0.2336 0.233698 0.233818 0.233972 0.234151 0.234073 0.230377 0.19822 
0.199035 0.230509 0.234018 0.234069 0.233888 0.233733 0.233614 0.233516 0.233438 
0.233374 0.233325 0.233286 0.233258 0.233239 0.23323 0.23323 0.233238 0.233257 
0.233285 0.233323 0.233373 0.233436 0.233514 0.233611 0.233731 0.233885 0.234066 
0.234015 0.230506 0.199032 0.199855 0.230634 0.233959 0.233984 0.233801 0.233646 
0.233527 0.233429 0.233351 0.233287 0.233238 0.233199 0.233171 0.233152 0.233143 
0.233142 0.233151 0.23317 0.233198 0.233236 0.233286 0.233349 0.233427 0.233524 
0.233644 0.233799 0.233982 0.233956 0.230631 0.199852 0.200684 0.230755 0.233898 
0.233899 0.233714 0.233559 0.233439 0.233341 0.233264 0.2332 0.23315 0.233111 
0.233083 0.233065 0.233055 0.233055 0.233064 0.233083 0.23311 0.233149 0.233199 
0.233262 0.233339 0.233437 0.233557 0.233711 0.233897 0.233895 0.230752 0.200682 
0.201522 0.230872 0.233835 0.233813 0.233626 0.233471 0.233352 0.233254 0.233176 
0.233112 0.233063 0.233024 0.232996 0.232977 0.232968 0.232968 0.232977 0.232995 
0.233023 0.233062 0.233111 0.233175 0.233252 0.23335 0.233469 0.233624 0.233811 
0.233833 0.23087 0.20152 0.20237 0.230986 0.233771 0.233727 0.233538 0.233383 
0.233264 0.233166 0.233088 0.233025 0.232975 0.232936 0.232908 0.232889 0.23288 
0.23288 0.232889 0.232908 0.232935 0.232974 0.233024 0.233087 0.233164 0.233262 
0.233381 0.233537 0.233725 0.233769 0.230984 0.202368 0.203227 0.231095 0.233705 
0.23364 0.23345 0.233295 0.233176 0.233078 0.233 0.232937 0.232887 0.232848 
0.23282 0.232802 0.232793 0.232792 0.232801 0.23282 0.232848 0.232886 0.232936 
0.232999 0.233077 0.233174 0.233293 0.233449 0.233638 0.233704 0.231094 0.203225 
0.204094 0.231201 0.233639 0.233553 0.233362 0.233207 0.233088 0.23299 0.232912 
0.232849 0.232799 0.23276 0.232732 0.232714 0.232705 0.232705 0.232714 0.232732 
0.23276 0.232798 0.232848 0.232911 0.232988 0.233086 0.233205 0.233361 0.233552 
0.233637 0.231199 0.204092 0.20497 0.231301 0.23357 0.233466 0.233273 0.233118 
0.232999 0.232901 0.232824 0.232761 0.232711 0.232672 0.232644 0.232626 0.232617 