# vtk DataFile Version 5.1
vtk output
ASCII
DATASET UNSTRUCTURED_GRID
POINTS 4929 double
0.1016 1.5 0.0051008639857 0.1016 1.45 0.002049474977 0.1016 1.4 0.00506520411 
0.1016 1.35 0.0041106543504 0.1016 1.3 0.0081110065803 0.1016 1.25 0.012290794402 
0.1016 1.2 0.019966604188 0.1016 1.15 0.025094944984 0.1016 1.1 0.025078719482 
0.1016 1.05 0.022677920759 0.1016 1 0.032476659864 0.1016 0.95 0.032933618873 
0.1016 0.9 0.033451445401 0.1016 0.85 0.035705879331 0.1016 0.8 0.041013989598 
0.1016 0.75 0.042368419468 0.1016 0.7 0.0461948663 0.1016 0.65 0.04613398388 
0.1016 0.6 0.037831872702 0.1016 0.55 0.028481155634 0.1016 0.5 0.029335644096 
0.1016 0.45 0.038272794336 0.1016 0.4 0.042588032782 0.1016 0.35 0.038786359131 
0.1016 0.3 0.028780227527 0.1016 0.25 0.029886942357 0.1016 0.2 0.03069373779 
0.1016 0.15 0.029957069084 0.1016 0.1 0.028933888301 0.1016 0.05 0.025441842154 
0.1016 0 0.018521258608 5.08 1.5 0.28700000048 5.08 1.45 0.28700000048 
5.08 1.4 0.28700000048 5.08 1.35 0.28700000048 5.08 1.3 0.28700000048 
5.08 1.25 0.28700000048 5.08 1.2 0.28700000048 5.08 1.15 0.28700000048 
5.08 1.1 0.28700000048 5.08 1.05 0.28700000048 5.08 1 0.28700000048 
5.08 0.95 0.28700000048 5.08 0.9 0.28700000048 5.08 0.85 0.28700000048 
5.08 0.8 0.28700000048 5.08 0.75 0.28700000048 5.08 0.7 0.28700000048 
5.08 0.65 0.28700000048 5.08 0.6 0.28700000048 5.08 0.55 0.28700000048 
5.08 0.5 0.28700000048 5.08 0.45 0.28700000048 5.08 0.4 0.28700000048 
5.08 0.35 0.28700000048 5.08 0.3 0.28700000048 5.08 0.25 0.28700000048 
5.08 0.2 0.28700000048 5.08 0.15 0.28700000048 5.08 0.1 0.28700000048 
5.08 0.05 0.28700000048 5.08 0 0.28700000048 0.12737462728 1.5 0.011451257393 
0.12737462728 1.45 0.00984613318 0.12737462728 1.4 0.016588030383 0.12737462728 1.35 0.011641266756 
0.12737462728 1.3 0.017542758957 0.12737462728 1.25 0.01878144592 0.12737462728 1.2 0.027895325795 
0.12737462728 1.15 0.031796194613 0.12737462728 1.1 0.032221138477 0.12737462728 1.05 0.023695688695 
0.12737462728 1 0.041573602706 0.12737462728 0.95 0.03687749058 0.12737462728 0.9 0.038044746965 
0.12737462728 0.85 0.038931146264 0.12737462728 0.8 0.047997388989 0.12737462728 0.75 0.047483872622 
0.12737462728 0.7 0.054482486099 0.12737462728 0.65 0.055736739188 0.12737462728 0.6 0.045881677419 
0.12737462728 0.55 0.033524759114 0.12737462728 0.5 0.034645531327 0.12737462728 0.45 0.047515962273 
0.12737462728 0.4 0.05206381157 0.12737462728 0.35 0.049057785422 0.12737462728 0.3 0.033144999295 
0.12737462728 0.25 0.039312172681 0.12737462728 0.2 0.040407545865 0.12737462728 0.15 0.040404133499 
0.12737462728 0.1 0.040028110147 0.12737462728 0.05 0.037931066006 0.12737462728 0 0.02696220018 
0.15441581276 1.5 0.024581767619 0.15441581276 1.45 0.023404693231 0.15441581276 1.4 0.035583559424 
0.15441581276 1.35 0.025790696964 0.15441581276 1.3 0.034478094429 0.15441581276 1.25 0.031578402966 
0.15441581276 1.2 0.042406018823 0.15441581276 1.15 0.041982013732 0.15441581276 1.1 0.044908802956 
0.15441581276 1.05 0.029528331012 0.15441581276 1 0.055659845471 0.15441581276 0.95 0.044131867588 
0.15441581276 0.9 0.046721477062 0.15441581276 0.85 0.044853691012 0.15441581276 0.8 0.058754697442 
0.15441581276 0.75 0.05611462146 0.15441581276 0.7 0.067158289254 0.15441581276 0.65 0.069076478481 
0.15441581276 0.6 0.059271514416 0.15441581276 0.55 0.045579686761 0.15441581276 0.5 0.0452407673 
0.15441581276 0.45 0.061100706458 0.15441581276 0.4 0.064114749432 0.15441581276 0.35 0.062812045217 
0.15441581276 0.3 0.041434425861 0.15441581276 0.25 0.052921805531 0.15441581276 0.2 0.054407063872 
0.15441581276 0.15 0.055379431695 0.15441581276 0.1 0.054260164499 0.15441581276 0.05 0.054096866399 
0.15441581276 0 0.040675673634 0.18278579477 1.5 0.04745914042 0.18278579477 1.45 0.043291855603 
0.18278579477 1.4 0.058280989528 0.18278579477 1.35 0.05116384849 0.18278579477 1.3 0.055820345879 
0.18278579477 1.25 0.054032497108 0.18278579477 1.2 0.062894128263 0.18278579477 1.15 0.056048449129 
0.18278579477 1.1 0.05830706656 0.18278579477 1.05 0.051329091191 0.18278579477 1 0.065608106554 
0.18278579477 0.95 0.060743782669 0.18278579477 0.9 0.057821117342 0.18278579477 0.85 0.057748928666 
0.18278579477 0.8 0.070550128818 0.18278579477 0.75 0.072372853756 0.18278579477 0.7 0.084011338651 
0.18278579477 0.65 0.084593951702 0.18278579477 0.6 0.077550582588 0.18278579477 0.55 0.068241775036 
0.18278579477 0.5 0.063042886555 0.18278579477 0.45 0.077231936157 0.18278579477 0.4 0.080177843571 
0.18278579477 0.35 0.07473833859 0.18278579477 0.3 0.061985559762 0.18278579477 0.25 0.066438697278 
0.18278579477 0.2 0.074512161314 0.18278579477 0.15 0.075036033988 0.18278579477 0.1 0.07223932445 
0.18278579477 0.05 0.069996744394 0.18278579477 0 0.064606405795 0.21254987001 1.5 0.073715373874 
0.21254987001 1.45 0.06491599232 0.21254987001 1.4 0.081843391061 0.21254987001 1.35 0.0784175843 
0.21254987001 1.3 0.079659342766 0.21254987001 1.25 0.078597694635 0.21254987001 1.2 0.086772561073 
0.21254987001 1.15 0.074046291411 0.21254987001 1.1 0.074916370213 0.21254987001 1.05 0.075056038797 
0.21254987001 1 0.080048762262 0.21254987001 0.95 0.083277255297 0.21254987001 0.9 0.075530864298 
0.21254987001 0.85 0.078369900584 0.21254987001 0.8 0.09133811295 0.21254987001 0.75 0.093518510461 
0.21254987001 0.7 0.10418599099 0.21254987001 0.65 0.10377533734 0.21254987001 0.6 0.098720289767 
0.21254987001 0.55 0.091760829091 0.21254987001 0.5 0.083800815046 0.21254987001 0.45 0.097987323999 
0.21254987001 0.4 0.099998392165 0.21254987001 0.35 0.091131366789 0.21254987001 0.3 0.084255695343 
0.21254987001 0.25 0.085289493203 0.21254987001 0.2 0.096293322742 0.21254987001 0.15 0.096342325211 
0.21254987001 0.1 0.092459186912 0.21254987001 0.05 0.090692438185 0.21254987001 0 0.089766062796 
0.24377654385 1.5 0.10012881458 0.24377654385 1.45 0.087072230875 0.24377654385 1.4 0.1009119153 
0.24377654385 1.35 0.10549413413 0.24377654385 1.3 0.10179160535 0.24377654385 1.25 0.10261013359 
0.24377654385 1.2 0.1095129028 0.24377654385 1.15 0.09800721705 0.24377654385 1.1 0.092703267932 
0.24377654385 1.05 0.099017865956 0.24377654385 1 0.097250528634 0.24377654385 0.95 0.11153569818 
0.24377654385 0.9 0.09705363214 0.24377654385 0.85 0.10663700104 0.24377654385 0.8 0.11960224062 
0.24377654385 0.75 0.1181210503 0.24377654385 0.7 0.12507902086 0.24377654385 0.65 0.12651593983 
0.24377654385 0.6 0.12026075274 0.24377654385 0.55 0.11022412777 0.24377654385 0.5 0.10594630241 
0.24377654385 0.45 0.12194273621 0.24377654385 0.4 0.12395484 0.24377654385 0.35 0.11261679977 
0.24377654385 0.3 0.10575274378 0.24377654385 0.25 0.11046814173 0.24377654385 0.2 0.1177938804 
0.24377654385 0.15 0.11784746498 0.24377654385 0.1 0.11337774247 0.24377654385 0.05 0.11531123519 
0.24377654385 0 0.11131079495 0.27653768798 1.5 0.13091342151 0.27653768798 1.45 0.11118394136 
0.27653768798 1.4 0.12018386275 0.27653768798 1.35 0.13214677572 0.27653768798 1.3 0.12749637663 
0.27653768798 1.25 0.1251757592 0.27653768798 1.2 0.13225674629 0.27653768798 1.15 0.12300894409 
0.27653768798 1.1 0.11948722601 0.27653768798 1.05 0.12347470969 0.27653768798 1 0.1203879118 
0.27653768798 0.95 0.13370445371 0.27653768798 0.9 0.11954210699 0.27653768798 0.85 0.13193181157 
0.27653768798 0.8 0.14198091626 0.27653768798 0.75 0.14203239977 0.27653768798 0.7 0.14657789469 
0.27653768798 0.65 0.14975823462 0.27653768798 0.6 0.13891389966 0.27653768798 0.55 0.13036052883 
0.27653768798 0.5 0.13041193783 0.27653768798 0.45 0.14530676603 0.27653768798 0.4 0.14810104668 
0.27653768798 0.35 0.13711825013 0.27653768798 0.3 0.13248060644 0.27653768798 0.25 0.13735964894 
0.27653768798 0.2 0.14223642647 0.27653768798 0.15 0.14374123514 0.27653768798 0.1 0.13347238302 
0.27653768798 0.05 0.13199786842 0.27653768798 0 0.13392473757 0.31090870586 1.5 0.16003118455 
0.31090870586 1.45 0.13863104582 0.31090870586 1.4 0.14442402124 0.31090870586 1.35 0.15735737979 
0.31090870586 1.3 0.15417864919 0.31090870586 1.25 0.14703935385 0.31090870586 1.2 0.15778958797 
0.31090870586 1.15 0.15059837699 0.31090870586 1.1 0.15079344809 0.31090870586 1.05 0.14915341139 
0.31090870586 1 0.14536586404 0.31090870586 0.95 0.15846510231 0.31090870586 0.9 0.14899712801 
0.31090870586 0.85 0.1583058387 0.31090870586 0.8 0.1615229696 0.31090870586 0.75 0.16521050036 
0.31090870586 0.7 0.16787049174 0.31090870586 0.65 0.17231547832 0.31090870586 0.6 0.15851344168 
0.31090870586 0.55 0.15460930765 0.31090870586 0.5 0.15479564667 0.31090870586 0.45 0.16631856561 
0.31090870586 0.4 0.17065066099 0.31090870586 0.35 0.16236953437 0.31090870586 0.3 0.16172729433 
0.31090870586 0.25 0.16438269615 0.31090870586 0.2 0.16892538965 0.31090870586 0.15 0.17194961011 
0.31090870586 0.1 0.15607187152 0.31090870586 0.05 0.14904627204 0.31090870586 0 0.15790654719 
0.34696870625 1.5 0.17580699921 0.34696870625 1.45 0.17000454664 0.34696870625 1.4 0.17637221515 
0.34696870625 1.35 0.17722898722 0.34696870625 1.3 0.17967090011 0.34696870625 1.25 0.17115367949 
0.34696870625 1.2 0.18683505058 0.34696870625 1.15 0.18195839226 0.34696870625 1.1 0.17719975114 
0.34696870625 1.05 0.1733148545 0.34696870625 1 0.17093542218 0.34696870625 0.95 0.19175061584 
0.34696870625 0.9 0.19455139339 0.34696870625 0.85 0.18954505026 0.34696870625 0.8 0.18979814649 
0.34696870625 0.75 0.1907158792 0.34696870625 0.7 0.18993453681 0.34696870625 0.65 0.1921697855 
0.34696870625 0.6 0.18480412662 0.34696870625 0.55 0.18225993216 0.34696870625 0.5 0.17682880163 
0.34696870625 0.45 0.18617415428 0.34696870625 0.4 0.19262395799 0.34696870625 0.35 0.18794059753 
0.34696870625 0.3 0.18942664564 0.34696870625 0.25 0.18929900229 0.34696870625 0.2 0.19736672938 
0.34696870625 0.15 0.19470654428 0.34696870625 0.1 0.186554268 0.34696870625 0.05 0.18083846569 
0.34696870625 0 0.18196603656 0.3848006853 1.5 0.19157588482 0.3848006853 1.45 0.1948005259 
[...]
CELL_DATA 4740
FIELD FieldData 7
B_Stress_n_p_m2 1 4740 float
0.0896036 0.0911977 0.0904265 0.0901779 0.0895899 0.0894552 0.0895016 0.0896776 0.0886257 
0.0896489 0.0896479 0.0896654 0.0898377 0.0909237 0.091615 0.0927045 0.093527 0.0932509 
0.0921094 0.0919823 0.0936175 0.0952578 0.0963517 0.0956531 0.0962979 0.0973648 0.0983189 
0.0994099 0.100474 0.0990071 0.0715395 0.0740368 0.07352 0.0729942 0.0725206 0.0720046 
0.0716604 0.0717608 0.0708248 0.0709879 0.0712042 0.0705667 0.0706066 0.0713595 0.0722991 
0.0733806 0.0744459 0.0747334 0.0740815 0.073597 0.0747354 0.0759753 0.0768014 0.0764805 
0.0765337 0.078002 0.0787669 0.0796426 0.0805371 0.0789206 0.0712109 0.0746588 0.0749301 
0.0740469 0.0738841 0.0731114 0.0722765 0.0719682 0.0718153 0.0710522 0.0717004 0.0704566 
0.070589 0.0711285 0.0725598 0.0739039 0.0752137 0.0759209 0.0758498 0.0750925 0.0756313 
0.0765648 0.0768332 0.0770931 0.0765426 0.0782408 0.0791026 0.0798432 0.0802307 0.0782852 
0.0783911 0.0819812 0.0831326 0.0822568 0.0820917 0.0814237 0.0801089 0.0790067 0.0793454 
0.0788335 0.0793091 0.0781386 0.078385 0.0792956 0.0806787 0.0823436 0.0838074 0.0844898 
0.0846494 0.0842009 0.0844304 0.0850239 0.0847208 0.0846469 0.084615 0.0856256 0.0868354 
0.0875261 0.0878684 0.0855049 0.0861468 0.0891281 0.0912685 0.0906954 0.0903491 0.0898976 
0.0886882 0.0870968 0.0873935 0.0873035 0.0876388 0.0867833 0.0873115 0.0889204 0.0904165 
0.0918248 0.0933134 0.0935372 0.0934183 0.0934051 0.0939544 0.0947339 0.0939558 0.0931517 
0.0934844 0.0939293 0.0949421 0.0951132 0.0954229 0.0931957 0.0958042 0.0974319 0.0997949 
0.100199 0.0992323 0.0992043 0.0984322 0.0975708 0.0972402 0.0973474 0.0972153 0.0969205 
0.0971221 0.0991257 0.10116 0.102485 0.103911 0.103624 0.103124 0.103118 0.104325 
0.105667 0.104894 0.103809 0.103852 0.104335 0.104742 0.103663 0.102696 0.101344 
0.108914 0.108694 0.110095 0.111457 0.110165 0.110539 0.110655 0.110444 0.110027 
0.109888 0.110508 0.110986 0.110278 0.111469 0.113005 0.114609 0.116157 0.116012 
0.114999 0.114631 0.116123 0.117917 0.117578 0.116746 0.116704 0.117318 0.117108 
0.115521 0.112639 0.110843 0.12311 0.122853 0.12379 0.125319 0.124566 0.12485 
0.125972 0.125606 0.125342 0.125589 0.127815 0.130357 0.129493 0.129506 0.128765 
0.12948 0.130784 0.131157 0.130298 0.129387 0.130292 0.132493 0.133101 0.132615 
0.132409 0.133229 0.13247 0.131273 0.128253 0.125423 0.136995 0.138718 0.141559 
0.143504 0.144722 0.144913 0.14581 0.145062 0.144856 0.145819 0.148731 0.152383 
0.153479 0.15351 0.151678 0.149795 0.149702 0.149333 0.149439 0.149194 0.14922 
0.151646 0.15402 0.154303 0.153663 0.15399 0.153539 0.15133 0.149895 0.148306 
0.156821 0.158475 0.161491 0.16593 0.169443 0.172146 0.172236 0.170758 0.171149 
0.171086 0.173603 0.176536 0.177815 0.178976 0.179589 0.176162 0.173264 0.172163 
0.171438 0.172942 0.173407 0.175112 0.178989 0.180943 0.181 0.180228 0.180241 
0.177251 0.175773 0.17682 0.184184 0.18398 0.184977 0.188282 0.192318 0.196104 
0.197877 0.19647 0.196418 0.19624 0.195543 0.196684 0.197371 0.198124 0.20009 
0.198502 0.19584 0.194729 0.193586 0.19479 0.196041 0.196671 0.198753 0.201702 
0.203098 0.202255 0.202567 0.200989 0.198958 0.202085 0.206695 0.205005 0.205528 
0.205224 0.207064 0.20728 0.209106 0.209007 0.207576 0.208691 0.205929 0.204848 
0.204621 0.204614 0.204961 0.205409 0.20615 0.206398 0.207428 0.207127 0.207691 
0.207795 0.206798 0.208354 0.209236 0.209614 0.209486 0.21025 0.209615 0.212755 
0.214123 0.212025 0.212265 0.212245 0.211887 0.211195 0.209867 0.210122 0.209507 
0.208193 0.208011 0.206507 0.205035 0.204374 0.204724 0.205254 0.206096 0.208143 
0.209564 0.210013 0.209288 0.208767 0.20837 0.207928 0.208206 0.208674 0.208372 
0.209172 0.210407 0.211344 0.217723 0.215669 0.215909 0.215737 0.216062 0.21594 
0.215654 0.215516 0.2152 0.214234 0.213899 0.213149 0.212316 0.211723 0.211984 
0.212539 0.212844 0.214093 0.214819 0.215007 0.214379 0.214006 0.213514 0.212962 
0.213014 0.21264 0.211971 0.211743 0.212103 0.211719 0.223183 0.221892 0.223391 
0.224511 0.225531 0.226345 0.227081 0.227773 0.228312 0.228192 0.22818 0.228096 
0.227907 0.2276 0.227545 0.22794 0.227984 0.228311 0.228531 0.228649 0.228154 
0.227577 0.226938 0.225694 0.224809 0.223548 0.222068 0.219891 0.218157 0.216705 
0.221299 0.224208 0.226705 0.228889 0.230438 0.231779 0.23297 0.234042 0.234951 
0.235691 0.236022 0.236177 0.236333 0.236395 0.236273 0.236312 0.236527 0.236387 
0.236201 0.235962 0.23573 0.235139 0.234236 0.233077 0.231462 0.229701 0.227725 
0.22542 0.222584 0.219963 0.220684 0.223666 0.226126 0.228221 0.229897 0.231298 
0.232483 0.233483 0.234299 0.234934 0.235328 0.235566 0.23573 0.235816 0.235817 
0.235836 0.235879 0.235775 0.235585 0.235298 0.23491 0.234285 0.233409 0.232286 
0.230844 0.229166 0.227226 0.224976 0.222367 0.219728 0.220527 0.223416 0.225871 
0.227961 0.2297 0.231148 0.232351 0.233341 0.234135 0.234743 0.235172 0.235461 
0.235651 0.23576 0.235802 0.235811 0.235779 0.235658 0.235444 0.235119 0.234658 
0.234006 0.233137 0.23203 0.230659 0.229027 0.227115 0.224896 0.222361 0.219555 
0.220375 0.223263 0.225747 0.227864 0.229646 0.231132 0.23236 0.233361 0.234161 
0.234778 0.235233 0.235555 0.23577 0.235899 0.235956 0.235954 0.235891 0.235744 
0.235503 0.235147 0.234653 0.233985 0.233115 0.232019 0.230672 0.22906 0.227163 
0.224958 0.222427 0.219554 0.220251 0.223141 0.225639 0.227776 0.229582 0.231091 
0.232336 0.233349 0.234156 0.234784 0.235255 0.235595 0.235827 0.235968 0.236031 
0.236024 0.235944 0.235781 0.235521 0.235146 0.234634 0.233957 0.233088 0.232 
0.230669 0.229073 0.227187 0.224991 0.22246 0.219574 0.220164 0.223053 0.225558 
0.227707 0.229527 0.231049 0.232306 0.233327 0.234141 0.234777 0.235259 0.23561 
0.235851 0.235999 0.236065 0.236055 0.235967 0.235793 0.235523 0.235137 0.234617 
0.233936 0.233069 0.231989 0.230669 0.229085 0.227209 0.225019 0.222492 0.219604 
0.220108 0.222995 0.225503 0.227657 0.229485 0.231014 0.232277 0.233303 0.234123 
0.234763 0.23525 0.235608 0.235854 0.236006 0.236074 0.236062 0.23597 0.235791 
0.235515 0.235126 0.234603 0.233923 0.233061 0.231988 0.230678 0.229104 0.227237 
0.225054 0.22253 0.219644 0.220076 0.222961 0.225469 0.227625 0.229454 0.230986 
0.232251 0.233279 0.234099 0.234741 0.23523 0.23559 0.235839 0.235992 0.23606 
0.236048 0.235955 0.235775 0.235499 0.235109 0.234589 0.233913 0.233057 0.231993 
0.230693 0.229128 0.22727 0.225094 0.222575 0.219692 0.220064 0.222947 0.225454 
0.227608 0.229436 0.230966 0.232228 0.233253 0.234071 0.234711 0.235199 0.235558 
0.235807 0.23596 0.236029 0.236017 0.235924 0.235746 0.235472 0.235087 0.234571 
0.233903 0.233056 0.232002 0.230712 0.229158 0.22731 0.225141 0.222626 0.219746 
0.220071 0.222951 0.225454 0.227604 0.229427 0.230952 0.232208 0.233227 0.23404 
0.234675 0.235159 0.235514 0.235761 0.235913 0.235982 0.235971 0.23588 0.235705 
0.235436 0.235057 0.234549 0.233891 0.233055 0.232013 0.230736 0.229193 0.227355 
0.225194 0.222685 0.219807 0.220094 0.22297 0.225469 0.227613 0.229428 0.230944 
0.232191 0.233201 0.234005 0.234633 0.23511 0.23546 0.235703 0.235853 0.235921 
0.235911 0.235823 0.235653 0.23539 0.23502 0.234523 0.233876 0.233053 0.232025 
0.230761 0.229231 0.227405 0.225253 0.222751 0.219876 0.220131 0.223004 0.225497 
0.227633 0.229438 0.230942 0.232178 0.233176 0.233968 0.234585 0.235053 0.235397 
0.235634 0.235781 0.235848 0.235839 0.235755 0.235591 0.235336 0.234976 0.234491 
0.233858 0.23305 0.232038 0.23079 0.229274 0.22746 0.225319 0.222823 0.219951 
0.220182 0.223051 0.225537 0.227663 0.229456 0.230946 0.232167 0.23315 0.233929 
0.234533 0.23499 0.235324 0.235556 0.235699 0.235764 0.235757 0.235676 0.235519 
0.235273 0.234924 0.234453 0.233836 0.233045 0.23205 0.23082 0.22932 0.227521 
0.22539 0.222903 0.220034 0.220245 0.22311 0.225588 0.227702 0.229481 0.230955 
0.232159 0.233125 0.233887 0.234476 0.23492 0.235244 0.235467 0.235606 0.235669 
0.235663 0.235587 0.235437 0.235201 0.234865 0.23441 0.23381 0.233038 0.232063 
0.230851 0.22937 0.227586 0.225469 0.222989 0.220125 0.220321 0.223181 0.22565 
0.227751 0.229513 0.230969 0.232153 0.233099 0.233842 0.234414 0.234844 0.235156 
0.23537 0.235503 0.235564 0.235559 0.235487 0.235345 0.23512 0.234799 0.23436 
0.233779 0.233028 0.232075 0.230885 0.229424 0.227657 0.225554 0.223084 0.220224 
0.220409 0.223265 0.225723 0.227809 0.229553 0.230988 0.232149 0.233073 0.233795 
0.234348 0.234761 0.235059 0.235264 0.23539 0.235448 0.235444 0.235377 0.235243 
0.235031 0.234724 0.234304 0.233744 0.233016 0.232086 0.23092 0.229481 0.227734 
0.225646 0.223187 0.220332 0.220511 0.223361 0.225808 0.227877 0.2296 0.231011 
0.232147 0.233046 0.233745 0.234276 0.234671 0.234954 0.235148 0.235266 0.235322 
0.235318 0.235256 0.235131 0.234931 0.234642 0.234241 0.233704 0.233001 0.232097 
0.230957 0.229542 0.227817 0.225747 0.223299 0.22045 0.220627 0.223471 0.225904 
0.227955 0.229654 0.231038 0.232146 0.233018 0.233691 0.234198 0.234573 0.23484 
0.235021 0.235132 0.235184 0.235181 0.235124 0.235008 0.234822 0.23455 0.234171 
0.233659 0.232982 0.232107 0.230996 0.229609 0.227908 0.225856 0.223422 0.220578 
0.220758 0.223595 0.226014 0.228042 0.229715 0.23107 0.232147 0.232988 0.233632 
0.234114 0.234467 0.234716 0.234884 0.234986 0.235034 0.235032 0.23498 0.234874 
0.234702 0.234449 0.234093 0.233607 0.23296 0.232117 0.231037 0.22968 0.228006 
0.225976 0.223557 0.22072 0.220905 0.223735 0.226137 0.228141 0.229784 0.231106 
0.232149 0.232956 0.233568 0.234022 0.234351 0.234581 0.234735 0.234828 0.234871 
0.23487 0.234823 0.234727 0.234571 0.234337 0.234006 0.233549 0.232935 0.232125 
0.23108 0.229757 0.228114 0.226108 0.223706 0.220877 0.221072 0.223892 0.226276 
0.228253 0.229862 0.231146 0.232151 0.232921 0.233498 0.233922 0.234225 0.234435 
0.234573 0.234656 0.234695 0.234693 0.234653 0.234567 0.234426 0.234214 0.233909 
0.233484 0.232904 0.232133 0.231127 0.229841 0.228232 0.226254 0.223871 0.22105 
0.22126 0.22407 0.226432 0.228377 0.229948 0.231191 0.232152 0.232881 0.233421 
0.233811 0.234087 0.234275 0.234397 0.23447 0.234503 0.234502 0.234467 0.234393 
0.234268 0.234079 0.233802 0.23341 0.232869 0.232139 0.231176 0.229933 0.228362 
0.226416 0.224054 0.221244 0.221472 0.224271 0.226607 0.228517 0.230044 0.231239 
0.232153 0.232836 0.233334 0.233689 0.233935 0.2341 0.234205 0.234267 0.234295 
0.234294 0.234265 0.234202 0.234095 0.233929 0.233682 0.233326 0.232827 0.232143 
0.231229 0.230033 0.228505 0.226595 0.224259 0.221461 0.221714 0.224499 0.226805 
0.228673 0.230151 0.231292 0.232152 0.232784 0.233237 0.233553 0.233768 0.233908 
0.233996 0.234046 0.234069 0.234068 0.234045 0.233994 0.233905 0.233763 0.233548 
0.233231 0.232778 0.232145 0.231284 0.230143 0.228665 0.226797 0.22449 0.221705 
0.22199 0.224758 0.22703 0.228848 0.230268 0.231347 0.232147 0.232723 0.233127 
0.233401 0.233583 0.233698 0.233768 0.233807 0.233824 0.233823 0.233806 0.233766 
0.233696 0.23358 0.233398 0.233123 0.232718 0.232142 0.231342 0.230262 0.228842 
0.227023 0.224752 0.221983 0.222306 0.225054 0.227284 0.229045 0.230396 0.231405 
0.232136 0.23265 0.233 0.233231 0.233378 0.233467 0.233519 0.233546 0.233558 
0.233558 0.233546 0.233518 0.233466 0.233376 0.233229 0.232997 0.232647 0.232132 
0.231401 0.230392 0.22904 0.22728 0.22505 0.222302 0.222672 0.225395 0.227574 
0.229264 0.230536 0.231462 0.232116 0.232561 0.232854 0.233039 0.23315 0.233213 
0.233247 0.233264 0.23327 0.23327 0.233263 0.233246 0.233212 0.233149 0.233037 
0.232852 0.232559 0.232113 0.23146 0.230533 0.229262 0.227571 0.225392 0.222669 
0.223099 0.22579 0.227905 0.22951 0.230686 0.231517 0.232082 0.232453 0.232684 
0.232821 0.232897 0.232935 0.232951 0.232957 0.232959 0.232959 0.232957 0.232951 
0.232934 0.232896 0.23282 0.232683 0.232451 0.232081 0.231515 0.230684 0.229508 
0.227903 0.225789 0.223097 0.223604 0.226254 0.228286 0.229783 0.230843 0.231562 
0.232029 0.232317 0.232484 0.232573 0.232614 0.232629 0.23263 0.232626 0.232624 
0.232623 0.232626 0.232629 0.232628 0.232614 0.232572 0.232483 0.232316 0.232028 
0.231561 0.230842 0.229782 0.228285 0.226252 0.223603 0.224209 0.226801 0.228724 
0.230084 0.231 0.231588 0.231945 0.232146 0.232249 0.232291 0.232301 0.232294 
0.232282 0.232271 0.232265 0.232265 0.232271 0.232282 0.232294 0.2323 0.232291 
0.232248 0.232146 0.231945 0.231588 0.231 0.230083 0.228723 0.2268 0.224209 
0.224947 0.227455 0.229225 0.230404 0.231145 0.231582 0.231819 0.231932 0.231972 
0.231973 0.231956 0.231933 0.231911 0.231895 0.231887 0.231887 0.231895 0.231911 
0.231932 0.231955 0.231973 0.231972 0.231931 0.231818 0.231581 0.231144 0.230403 
0.229225 0.227455 0.224947 0.225881 0.228253 0.229795 0.230727 0.23125 0.231516 
0.23163 0.231659 0.231645 0.231614 0.231578 0.231545 0.231519 0.2315 0.231491 
0.231491 0.2315 0.231518 0.231545 0.231578 0.231614 0.231645 0.231659 0.231629 
0.231516 0.23125 0.230727 0.229794 0.228253 0.225881 0.227132 0.229235 0.230403 
0.230991 0.231252 0.231339 0.23134 0.231304 0.231257 0.23121 0.231169 0.231136 
0.231112 0.231096 0.231088 0.231088 0.231096 0.231112 0.231136 0.231169 0.231209 
0.231256 0.231304 0.23134 0.231339 0.231252 0.230991 0.230403 0.229235 0.227132 
0.22867 0.230172 0.230801 0.231025 0.231075 0.231055 0.231011 0.230965 0.230923 
0.23089 0.230864 0.230844 0.230831 0.230822 0.230818 0.230818 0.230822 0.230831 
0.230844 0.230864 0.23089 0.230923 0.230965 0.231011 0.231055 0.231075 0.231025 
0.230801 0.230172 0.22867 0.0692634 0.0695274 0.0694829 0.0693268 0.0688586 0.068201 
0.0676359 0.067373 0.0670409 0.0666256 0.0660632 0.065643 0.0653392 0.0651793 0.0649315 
0.0646868 0.0647839 0.064957 0.0649702 0.0650458 0.0650847 0.0648917 0.0648471 0.0648865 
0.0649287 0.0648657 0.0647629 0.0648917 0.0652327 0.0651587 0.0807451 0.0810112 0.0810152 
0.0809419 0.0805636 0.0799643 0.0794471 0.0792543 0.079031 0.0786346 0.0780966 0.0776998 
0.0774304 0.0772664 0.0770359 0.0768085 0.0768711 0.0770329 0.0770588 0.0771193 0.0771477 
0.0769504 0.0768687 0.076897 0.0769213 0.0768151 0.0766676 0.0767766 0.0771222 0.0770822 
0.078811 0.0788857 0.0788633 0.0788193 0.0784872 0.0779166 0.0774714 0.0774267 0.0774087 
0.0771225 0.0766804 0.0763874 0.0762555 0.0762115 0.0760962 0.0759329 0.0759666 0.0760816 
0.0761059 0.0762155 0.0763542 0.0763098 0.0763417 0.076481 0.0765705 0.0765026 0.0764254 
0.0766639 0.0771795 0.0773898 0.0741351 0.0741926 0.0741259 0.0740486 0.0737433 0.0732347 
0.0728707 0.0729042 0.0730291 0.0728586 0.0725643 0.0724051 0.0723939 0.0724312 0.0724172 
0.0723234 0.0723275 0.0724261 0.0725254 0.0726987 0.0728824 0.0729638 0.073132 0.0734214 
0.0736001 0.0736193 0.0736653 0.0739998 0.0745785 0.074874 0.0705092 0.0706087 0.070511 
0.0703785 0.0700804 0.0696254 0.069317 0.0693667 0.0695662 0.0694697 0.0693114 0.0692744 
0.0693562 0.0694438 0.0695157 0.0694863 0.069476 0.0695799 0.0697672 0.0700031 0.0702094 
0.0703875 0.0706809 0.0711216 0.0713931 0.0715199 0.0717004 0.0721008 0.0726706 0.072968 
0.067645 0.0678568 0.0677449 0.0675559 0.0672475 0.0668246 0.0665478 0.0665682 0.0667804 
0.0667225 0.0666646 0.0667139 0.0668643 0.066996 0.0671544 0.0672034 0.0672083 0.0673096 
0.0675317 0.0678127 0.0680691 0.0683563 0.068752 0.0692985 0.0696487 0.0698912 0.0702085 
0.0706744 0.0712098 0.0714023 0.0624578 0.0629114 0.0627784 0.0625469 0.0622075 0.0618041 
0.0615467 0.0615071 0.0616409 0.0616274 0.0616076 0.0616893 0.0618611 0.0620347 0.0622527 
0.0623942 0.0624512 0.0625326 0.0627051 0.0629952 0.0633302 0.0637287 0.0641842 0.0647201 
0.0651273 0.0654654 0.0658949 0.0664248 0.0669313 0.0668438 0.0534723 0.0540878 0.0538547 
0.0536162 0.0532131 0.0528163 0.0525541 0.0524755 0.0524012 0.0524814 0.0523909 0.0524584 
0.0525759 0.0527786 0.0529714 0.0531888 0.0533227 0.0534085 0.0534996 0.0537646 0.0541579 
0.0545826 0.0550645 0.0554539 0.055922 0.0562989 0.0567688 0.0573377 0.0578886 0.0576105 
0.0612302 0.0619719 0.062777 0.063642 0.0645609 0.0655269 0.0665314 0.0675647 0.0686159 
0.0696734 0.0707254 0.0717596 0.072764 0.0737266 0.0746363 0.0754824 0.076255 0.076945 
0.0775443 0.0780457 0.0784428 0.0787303 0.0789034 0.0789583 0.0788917 0.078701 0.078384 
0.0779388 0.0773632 0.0766558 0.060791 0.0615396 0.0623576 0.0632415 0.0641855 0.0651822 
0.0662223 0.0672952 0.0683891 0.0694917 0.0705901 0.0716711 0.0727219 0.07373 0.0746833 
0.0755708 0.076382 0.0771076 0.0777391 0.0782692 0.0786917 0.0790009 0.0791925 0.0792627 
0.0792084 0.0790272 0.0787172 0.0782766 0.0777041 0.0769986 0.0604854 0.0612375 0.0620644 
0.0629624 0.0639253 0.0649451 0.066012 0.0671145 0.0682403 0.0693761 0.0705084 0.0716232 
0.0727071 0.0737471 0.0747305 0.0756459 0.0764825 0.0772308 0.0778824 0.0784297 0.0788666 
0.0791877 0.0793887 0.0794661 0.0794172 0.0792396 0.0789318 0.0784923 0.0779198 0.0772135 
0.0601104 0.060866 0.0617033 0.0626181 0.0636038 0.0646518 0.0657512 0.0668901 0.0680548 
0.0692315 0.0704053 0.0715619 0.0726868 0.0737661 0.0747869 0.075737 0.0766054 0.0773823 
0.0780589 0.078628 0.0790831 0.0794193 0.0796324 0.0797191 0.079677 0.0795042 0.0791992 
0.0787609 0.0781883 0.0774807 0.0597342 0.0604934 0.0613414 0.0622736 0.0632829 0.0643598 
0.0654927 0.0666687 0.0678733 0.0690914 0.0703077 0.0715064 0.0726725 0.0737914 0.0748495 
0.075834 0.0767336 0.0775382 0.0782389 0.0788285 0.0793006 0.0796505 0.0798742 0.0799688 
0.0799322 0.0797628 0.0794597 0.0790219 0.0784487 0.0777396 0.0593397 0.0601028 0.0609621 
0.0619128 0.0629471 0.0640547 0.0652232 0.0664385 0.0676853 0.0689475 0.0702084 0.0714517 
0.0726613 0.0738218 0.0749188 0.0759392 0.0768712 0.0777044 0.0784299 0.0790402 0.0795294 
0.0798927 0.0801265 0.0802285 0.0801967 0.0800302 0.0797283 0.0792904 0.0787162 0.0780053 
0.058934 0.0597012 0.0605725 0.0615426 0.062603 0.0637427 0.0649484 0.0662048 0.0674957 
0.0688036 0.070111 0.0714004 0.0726549 0.0738582 0.0749952 0.0760522 0.077017 0.0778789 
0.0786289 0.0792596 0.0797651 0.080141 0.0803841 0.0804923 0.0804644 0.0802997 0.0799981 
0.0795594 0.0789837 0.0782707 0.058516 0.0592875 0.0601714 0.0611618 0.0622497 0.0634231 
0.0646676 0.0659671 0.0673038 0.0686594 0.0700152 0.0713525 0.0726534 0.0739008 0.0750789 
0.0761734 0.0771715 0.0780624 0.0788368 0.0794875 0.0800087 0.0803963 0.0806476 0.0807609 
0.0807356 0.0805717 0.0802694 0.0798291 0.0792513 0.0785359 0.0580866 0.0588626 0.0597597 
0.0607715 0.0618881 0.0630967 0.0643817 0.065726 0.0671105 0.0685157 0.0699216 0.0713085 
0.0726574 0.0739503 0.0751705 0.0763032 0.077335 0.0782549 0.0790535 0.0797236 0.0802597 
0.0806579 0.0809162 0.0810333 0.0810094 0.0808448 0.0805407 0.080098 0.0795174 0.0787994 
0.0576458 0.0584266 0.0593376 0.0603717 0.0615183 0.0627635 0.0640909 0.0654817 0.066916 
0.0683726 0.0698305 0.0712688 0.0726672 0.0740069 0.0752703 0.0764419 0.0775079 0.0784569 
0.0792794 0.0799682 0.0805182 0.080926 0.0811898 0.0813093 0.0812852 0.0811187 0.0808115 
0.0803653 0.0797813 0.0790603 0.0571938 0.0579798 0.0589052 0.0599626 0.0611405 0.062424 
0.0637953 0.0652346 0.0667205 0.0682305 0.0697423 0.0712337 0.0726833 0.0740711 0.0753788 
0.07659 0.0776906 0.0786687 0.0795147 0.0802217 0.0807845 0.0812004 0.0814683 0.0815885 
0.0815626 0.0813926 0.081081 0.0806301 0.0800419 0.0793174 0.0567308 0.0575221 0.0584627 
0.0595444 0.0607548 0.062078 0.0634951 0.0649848 0.0665242 0.0680896 0.0696572 0.0712034 
0.0727058 0.0741431 0.0754962 0.0767479 0.0778835 0.0788907 0.07976 0.0804842 0.0810588 
0.0814814 0.0817517 0.0818709 0.0818412 0.0816659 0.0813483 0.0808916 0.0802983 0.07957 
0.0562568 0.0570538 0.0580101 0.0591171 0.0603614 0.0617259 0.0631905 0.0647323 0.0663272 
0.06795 0.0695753 0.0711783 0.072735 0.0742234 0.0756231 0.0769161 0.0780871 0.0791235 
0.0800155 0.0807562 0.0813414 0.0817692 0.0820401 0.0821561 0.0821208 0.0819382 0.0816129 
0.0811489 0.0805495 0.079817 0.0557721 0.056575 0.0575478 0.058681 0.0599604 0.0613678 
0.0628815 0.0644774 0.0661298 0.0678119 0.0694968 0.0711584 0.0727713 0.0743122 0.0757597 