# vtk DataFile Version 5.1
vtk output
ASCII
DATASET UNSTRUCTURED_GRID
POINTS 9610 double
0.1016 1.5 0 0.1016 1.45 0 0.1016 1.4 0 
0.1016 1.35 0 0.1016 1.3 0 0.1016 1.25 0 
0.1016 1.2 0 0.1016 1.15 0 0.1016 1.1 0 
0.1016 1.05 0 0.1016 1 0 0.1016 0.95 0 
0.1016 0.9 0 0.1016 0.85 0 0.1016 0.8 0 
0.1016 0.75 0 0.1016 0.7 0 0.1016 0.65 0 
0.1016 0.6 0 0.1016 0.55 0 0.1016 0.5 0 
0.1016 0.45 0 0.1016 0.4 0 0.1016 0.35 0 
0.1016 0.3 0 0.1016 0.25 0 0.1016 0.2 0 
0.1016 0.15 0 0.1016 0.1 0 0.1016 0.05 0 
0.1016 0 0 5.08 1.5 0 5.08 1.45 0 
5.08 1.4 0 5.08 1.35 0 5.08 1.3 0 
5.08 1.25 0 5.08 1.2 0 5.08 1.15 0 
5.08 1.1 0 5.08 1.05 0 5.08 1 0 
5.08 0.95 0 5.08 0.9 0 5.08 0.85 0 
5.08 0.8 0 5.08 0.75 0 5.08 0.7 0 
5.08 0.65 0 5.08 0.6 0 5.08 0.55 0 
5.08 0.5 0 5.08 0.45 0 5.08 0.4 0 
5.08 0.35 0 5.08 0.3 0 5.08 0.25 0 
5.08 0.2 0 5.08 0.15 0 5.08 0.1 0 
5.08 0.05 0 5.08 0 0 0.151384 1.5 0 
0.151384 1.45 0 0.151384 1.4 0 0.151384 1.35 0 
0.151384 1.3 0 0.151384 1.25 0 0.151384 1.2 0 
0.151384 1.15 0 0.151384 1.1 0 0.151384 1.05 0 
0.151384 1 0 0.151384 0.95 0 0.151384 0.9 0 
0.151384 0.85 0 0.151384 0.8 0 0.151384 0.75 0 
0.151384 0.7 0 0.151384 0.65 0 0.151384 0.6 0 
0.151384 0.55 0 0.151384 0.5 0 0.151384 0.45 0 
0.151384 0.4 0 0.151384 0.35 0 0.151384 0.3 0 
0.151384 0.25 0 0.151384 0.2 0 0.151384 0.15 0 
0.151384 0.1 0 0.151384 0.05 0 0.151384 0 0 
0.201168 1.5 0 0.201168 1.45 0 0.201168 1.4 0 
0.201168 1.35 0 0.201168 1.3 0 0.201168 1.25 0 
0.201168 1.2 0 0.201168 1.15 0 0.201168 1.1 0 
0.201168 1.05 0 0.201168 1 0 0.201168 0.95 0 
0.201168 0.9 0 0.201168 0.85 0 0.201168 0.8 0 
0.201168 0.75 0 0.201168 0.7 0 0.201168 0.65 0 
0.201168 0.6 0 0.201168 0.55 0 0.201168 0.5 0 
0.201168 0.45 0 0.201168 0.4 0 0.201168 0.35 0 
0.201168 0.3 0 0.201168 0.25 0 0.201168 0.2 0 
0.201168 0.15 0 0.201168 0.1 0 0.201168 0.05 0 
0.201168 0 0 0.250952 1.5 0 0.250952 1.45 0 
0.250952 1.4 0 0.250952 1.35 0 0.250952 1.3 0 
0.250952 1.25 0 0.250952 1.2 0 0.250952 1.15 0 
0.250952 1.1 0 0.250952 1.05 0 0.250952 1 0 
0.250952 0.95 0 0.250952 0.9 0 0.250952 0.85 0 
0.250952 0.8 0 0.250952 0.75 0 0.250952 0.7 0 
0.250952 0.65 0 0.250952 0.6 0 0.250952 0.55 0 
0.250952 0.5 0 0.250952 0.45 0 0.250952 0.4 0 
0.250952 0.35 0 0.250952 0.3 0 0.250952 0.25 0 
0.250952 0.2 0 0.250952 0.15 0 0.250952 0.1 0 
0.250952 0.05 0 0.250952 0 0 0.300736 1.5 0 
0.300736 1.45 0 0.300736 1.4 0 0.300736 1.35 0 
0.300736 1.3 0 0.300736 1.25 0 0.300736 1.2 0 
0.300736 1.15 0 0.300736 1.1 0 0.300736 1.05 0 
0.300736 1 0 0.300736 0.95 0 0.300736 0.9 0 
0.300736 0.85 0 0.300736 0.8 0 0.300736 0.75 0 
0.300736 0.7 0 0.300736 0.65 0 0.300736 0.6 0 
0.300736 0.55 0 0.300736 0.5 0 0.300736 0.45 0 
0.300736 0.4 0 0.300736 0.35 0 0.300736 0.3 0 
0.300736 0.25 0 0.300736 0.2 0 0.300736 0.15 0 
0.300736 0.1 0 0.300736 0.05 0 0.300736 0 0 
0.35052 1.5 0 0.35052 1.45 0 0.35052 1.4 0 
0.35052 1.35 0 0.35052 1.3 0 0.35052 1.25 0 
0.35052 1.2 0 0.35052 1.15 0 0.35052 1.1 0 
0.35052 1.05 0 0.35052 1 0 0.35052 0.95 0 
0.35052 0.9 0 0.35052 0.85 0 0.35052 0.8 0 
0.35052 0.75 0 0.35052 0.7 0 0.35052 0.65 0 
0.35052 0.6 0 0.35052 0.55 0 0.35052 0.5 0 
0.35052 0.45 0 0.35052 0.4 0 0.35052 0.35 0 
0.35052 0.3 0 0.35052 0.25 0 0.35052 0.2 0 
0.35052 0.15 0 0.35052 0.1 0 0.35052 0.05 0 
0.35052 0 0 0.400304 1.5 0 0.400304 1.45 0 
0.400304 1.4 0 0.400304 1.35 0 0.400304 1.3 0 
0.400304 1.25 0 0.400304 1.2 0 0.400304 1.15 0 
0.400304 1.1 0 0.400304 1.05 0 0.400304 1 0 
0.400304 0.95 0 0.400304 0.9 0 0.400304 0.85 0 
0.400304 0.8 0 0.400304 0.75 0 0.400304 0.7 0 
0.400304 0.65 0 0.400304 0.6 0 0.400304 0.55 0 
0.400304 0.5 0 0.400304 0.45 0 0.400304 0.4 0 
0.400304 0.35 0 0.400304 0.3 0 0.400304 0.25 0 
0.400304 0.2 0 0.400304 0.15 0 0.400304 0.1 0 
0.400304 0.05 0 0.400304 0 0 0.450088 1.5 0 
0.450088 1.45 0 0.450088 1.4 0 0.450088 1.35 0 
0.450088 1.3 0 0.450088 1.25 0 0.450088 1.2 0 
0.450088 1.15 0 0.450088 1.1 0 0.450088 1.05 0 
0.450088 1 0 0.450088 0.95 0 0.450088 0.9 0 
0.450088 0.85 0 0.450088 0.8 0 0.450088 0.75 0 
0.450088 0.7 0 0.450088 0.65 0 0.450088 0.6 0 
0.450088 0.55 0 0.450088 0.5 0 0.450088 0.45 0 
0.450088 0.4 0 0.450088 0.35 0 0.450088 0.3 0 
0.450088 0.25 0 0.450088 0.2 0 0.450088 0.15 0 
0.450088 0.1 0 0.450088 0.05 0 0.450088 0 0 
0.499872 1.5 0 0.499872 1.45 0 0.499872 1.4 0 
0.499872 1.35 0 0.499872 1.3 0 0.499872 1.25 0 
0.499872 1.2 0 0.499872 1.15 0 0.499872 1.1 0 
0.499872 1.05 0 0.499872 1 0 0.499872 0.95 0 
0.499872 0.9 0 0.499872 0.85 0 0.499872 0.8 0 
0.499872 0.75 0 0.499872 0.7 0 0.499872 0.65 0 
0.499872 0.6 0 0.499872 0.55 0 0.499872 0.5 0 
0.499872 0.45 0 0.499872 0.4 0 0.499872 0.35 0 
0.499872 0.3 0 0.499872 0.25 0 0.499872 0.2 0 
0.499872 0.15 0 0.499872 0.1 0 0.499872 0.05 0 
0.499872 0 0 0.549656 1.5 0 0.549656 1.45 0 
0.549656 1.4 0 0.549656 1.35 0 0.549656 1.3 0 
0.549656 1.25 0 0.549656 1.2 0 0.549656 1.15 0 
0.549656 1.1 0 0.549656 1.05 0 0.549656 1 0 
0.549656 0.95 0 0.549656 0.9 0 0.549656 0.85 0 
0.549656 0.8 0 0.549656 0.75 0 0.549656 0.7 0 
0.549656 0.65 0 0.549656 0.6 0 0.549656 0.55 0 
0.549656 0.5 0 0.549656 0.45 0 0.549656 0.4 0 
0.549656 0.35 0 0.549656 0.3 0 0.549656 0.25 0 
0.549656 0.2 0 0.549656 0.15 0 0.549656 0.1 0 
0.549656 0.05 0 0.549656 0 0 0.59944 1.5 0 
0.59944 1.45 0 0.59944 1.4 0 0.59944 1.35 0 
0.59944 1.3 0 0.59944 1.25 0 0.59944 1.2 0 
0.59944 1.15 0 0.59944 1.1 0 0.59944 1.05 0 
0.59944 1 0 0.59944 0.95 0 0.59944 0.9 0 
0.59944 0.85 0 0.59944 0.8 0 0.59944 0.75 0 
0.59944 0.7 0 0.59944 0.65 0 0.59944 0.6 0 
0.59944 0.55 0 0.59944 0.5 0 0.59944 0.45 0 
0.59944 0.4 0 0.59944 0.35 0 0.59944 0.3 0 
0.59944 0.25 0 0.59944 0.2 0 0.59944 0.15 0 
0.59944 0.1 0 0.59944 0.05 0 0.59944 0 0 
0.649224 1.5 0 0.649224 1.45 0 0.649224 1.4 0 
0.649224 1.35 0 0.649224 1.3 0 0.649224 1.25 0 
0.649224 1.2 0 0.649224 1.15 0 0.649224 1.1 0 
0.649224 1.05 0 0.649224 1 0 0.649224 0.95 0 
0.649224 0.9 0 0.649224 0.85 0 0.649224 0.8 0 
0.649224 0.75 0 0.649224 0.7 0 0.649224 0.65 0 
0.649224 0.6 0 0.649224 0.55 0 0.649224 0.5 0 
0.649224 0.45 0 0.649224 0.4 0 0.649224 0.35 0 
0.649224 0.3 0 0.649224 0.25 0 0.649224 0.2 0 
0.649224 0.15 0 0.649224 0.1 0 0.649224 0.05 0 
0.649224 0 0 0.699008 1.5 0 0.699008 1.45 0 
0.699008 1.4 0 0.699008 1.35 0 0.699008 1.3 0 
0.699008 1.25 0 0.699008 1.2 0 0.699008 1.15 0 
0.699008 1.1 0 0.699008 1.05 0 0.699008 1 0 
0.699008 0.95 0 0.699008 0.9 0 0.699008 0.85 0 
0.699008 0.8 0 0.699008 0.75 0 0.699008 0.7 0 
0.699008 0.65 0 0.699008 0.6 0 0.699008 0.55 0 
0.699008 0.5 0 0.699008 0.45 0 0.699008 0.4 0 
0.699008 0.35 0 0.699008 0.3 0 0.699008 0.25 0 
0.699008 0.2 0 0.699008 0.15 0 0.699008 0.1 0 
0.699008 0.05 0 0.699008 0 0 0.748792 1.5 0 
0.748792 1.45 0 0.748792 1.4 0 0.748792 1.35 0 
0.748792 1.3 0 0.748792 1.25 0 0.748792 1.2 0 
0.748792 1.15 0 0.748792 1.1 0 0.748792 1.05 0 
0.748792 1 0 0.748792 0.95 0 0.748792 0.9 0 
0.748792 0.85 0 0.748792 0.8 0 0.748792 0.75 0 
0.748792 0.7 0 0.748792 0.65 0 0.748792 0.6 0 
0.748792 0.55 0 0.748792 0.5 0 0.748792 0.45 0 
0.748792 0.4 0 0.748792 0.35 0 0.748792 0.3 0 
0.748792 0.25 0 0.748792 0.2 0 0.748792 0.15 0 
0.748792 0.1 0 0.748792 0.05 0 0.748792 0 0 
0.798576 1.5 0 0.798576 1.45 0 0.798576 1.4 0 
0.798576 1.35 0 0.798576 1.3 0 0.798576 1.25 0 
0.798576 1.2 0 0.798576 1.15 0 0.798576 1.1 0 
0.798576 1.05 0 0.798576 1 0 0.798576 0.95 0 
0.798576 0.9 0 0.798576 0.85 0 0.798576 0.8 0 
0.798576 0.75 0 0.798576 0.7 0 0.798576 0.65 0 
0.798576 0.6 0 0.798576 0.55 0 0.798576 0.5 0 
0.798576 0.45 0 0.798576 0.4 0 0.798576 0.35 0 
0.798576 0.3 0 0.798576 0.25 0 0.798576 0.2 0 
0.798576 0.15 0 0.798576 0.1 0 0.798576 0.05 0 
0.798576 0 0 0.84836 1.5 0 0.84836 1.45 0 
0.84836 1.4 0 0.84836 1.35 0 0.84836 1.3 0 
0.84836 1.25 0 0.84836 1.2 0 0.84836 1.15 0 
0.84836 1.1 0 0.84836 1.05 0 0.84836 1 0 
0.84836 0.95 0 0.84836 0.9 0 0.84836 0.85 0 
0.84836 0.8 0 0.84836 0.75 0 0.84836 0.7 0 
0.84836 0.65 0 0.84836 0.6 0 0.84836 0.55 0 
0.84836 0.5 0 0.84836 0.45 0 0.84836 0.4 0 
0.84836 0.35 0 0.84836 0.3 0 0.84836 0.25 0 
0.84836 0.2 0 0.84836 0.15 0 0.84836 0.1 0 
0.84836 0.05 0 0.84836 0 0 0.898144 1.5 0 
0.898144 1.45 0 0.898144 1.4 0 0.898144 1.35 0 
0.898144 1.3 0 0.898144 1.25 0 0.898144 1.2 0 
0.898144 1.15 0 0.898144 1.1 0 0.898144 1.05 0 
0.898144 1 0 0.898144 0.95 0 0.898144 0.9 0 
0.898144 0.85 0 0.898144 0.8 0 0.898144 0.75 0 
0.898144 0.7 0 0.898144 0.65 0 0.898144 0.6 0 
0.898144 0.55 0 0.898144 0.5 0 0.898144 0.45 0 
0.898144 0.4 0 0.898144 0.35 0 0.898144 0.3 0 
0.898144 0.25 0 0.898144 0.2 0 0.898144 0.15 0 
0.898144 0.1 0 0.898144 0.05 0 0.898144 0 0 
0.947928 1.5 0 0.947928 1.45 0 0.947928 1.4 0 
0.947928 1.35 0 0.947928 1.3 0 0.947928 1.25 0 
0.947928 1.2 0 0.947928 1.15 0 0.947928 1.1 0 
0.947928 1.05 0 0.947928 1 0 0.947928 0.95 0 
0.947928 0.9 0 0.947928 0.85 0 0.947928 0.8 0 
0.947928 0.75 0 0.947928 0.7 0 0.947928 0.65 0 
0.947928 0.6 0 0.947928 0.55 0 0.947928 0.5 0 
0.947928 0.45 0 0.947928 0.4 0 0.947928 0.35 0 
0.947928 0.3 0 0.947928 0.25 0 0.947928 0.2 0 
0.947928 0.15 0 0.947928 0.1 0 0.947928 0.05 0 
0.947928 0 0 0.997712 1.5 0 0.997712 1.45 0 
0.997712 1.4 0 0.997712 1.35 0 0.997712 1.3 0 
0.997712 1.25 0 0.997712 1.2 0 0.997712 1.15 0 
0.997712 1.1 0 0.997712 1.05 0 0.997712 1 0 
0.997712 0.95 0 0.997712 0.9 0 0.997712 0.85 0 
0.997712 0.8 0 0.997712 0.75 0 0.997712 0.7 0 
0.997712 0.65 0 0.997712 0.6 0 0.997712 0.55 0 
0.997712 0.5 0 0.997712 0.45 0 0.997712 0.4 0 
0.997712 0.35 0 0.997712 0.3 0 0.997712 0.25 0 
0.997712 0.2 0 0.997712 0.15 0 0.997712 0.1 0 
0.997712 0.05 0 0.997712 0 0 1.047496 1.5 0 
1.047496 1.45 0 1.047496 1.4 0 1.047496 1.35 0 
1.047496 1.3 0 1.047496 1.25 0 1.047496 1.2 0 
1.047496 1.15 0 1.047496 1.1 0 1.047496 1.05 0 
1.047496 1 0 1.047496 0.95 0 1.047496 0.9 0 
1.047496 0.85 0 1.047496 0.8 0 1.047496 0.75 0 
1.047496 0.7 0 1.047496 0.65 0 1.047496 0.6 0 
1.047496 0.55 0 1.047496 0.5 0 1.047496 0.45 0 
1.047496 0.4 0 1.047496 0.35 0 1.047496 0.3 0 
1.047496 0.25 0 1.047496 0.2 0 1.047496 0.15 0 
[...]
CELL_DATA 9270
FIELD FieldData 7
B_Stress_n_p_m2 1 9270 float
0.456434 0.470414 0.472854 0.472733 0.472278 0.472044 0.471961 0.471973 0.472025 
0.472099 0.472181 0.472266 0.472353 0.472439 0.472522 0.472522 0.472439 0.472353 
0.472266 0.472181 0.472099 0.472025 0.471973 0.471961 0.472044 0.472278 0.472733 
0.472854 0.470414 0.456434 0.0877379 0.11543 0.120494 0.120091 0.118683 0.117666 
0.116972 0.116539 0.116248 0.116057 0.115926 0.115841 0.115786 0.115756 0.115744 
0.115744 0.115756 0.115786 0.115841 0.115926 0.116057 0.116248 0.116539 0.116972 
0.117666 0.118683 0.120091 0.120494 0.11543 0.0877379 0.125671 0.158171 0.165629 
0.165951 0.164611 0.163443 0.162556 0.161943 0.161502 0.161189 0.160961 0.160799 
0.160685 0.16061 0.160571 0.160571 0.16061 0.160685 0.160799 0.160961 0.161189 
0.161502 0.161943 0.162556 0.163443 0.164611 0.165951 0.165629 0.158171 0.125671 
0.113796 0.148124 0.157137 0.158164 0.157143 0.156076 0.155205 0.154568 0.154092 
0.153745 0.15349 0.153307 0.15318 0.153101 0.153063 0.153063 0.153101 0.15318 
0.153307 0.15349 0.153745 0.154092 0.154568 0.155205 0.156076 0.157143 0.158164 
0.157137 0.148124 0.113796 0.113233 0.148075 0.15791 0.159425 0.158714 0.157796 
0.156991 0.15637 0.155886 0.155521 0.155245 0.155043 0.1549 0.15481 0.154765 
0.154765 0.15481 0.1549 0.155043 0.155245 0.155521 0.155886 0.15637 0.156991 
0.157796 0.158714 0.159425 0.15791 0.148075 0.113233 0.111681 0.146773 0.157114 
0.158974 0.158525 0.157762 0.157051 0.156477 0.156015 0.155656 0.155378 0.155171 
0.155024 0.15493 0.154884 0.154884 0.15493 0.155024 0.155171 0.155378 0.155656 
0.156015 0.156477 0.157051 0.157762 0.158525 0.158974 0.157114 0.146773 0.111681 
0.110924 0.146046 0.156654 0.158741 0.158495 0.157873 0.15726 0.156745 0.156319 
0.15598 0.155712 0.155509 0.155363 0.155268 0.155222 0.155222 0.155268 0.155363 
0.155509 0.155712 0.15598 0.156319 0.156745 0.15726 0.157873 0.158495 0.158741 
0.156654 0.146046 0.110924 0.110419 0.145486 0.15623 0.158463 0.15837 0.157867 
0.157344 0.156892 0.156508 0.156196 0.155945 0.155752 0.155612 0.155521 0.155475 
0.155475 0.155521 0.155612 0.155752 0.155945 0.156196 0.156508 0.156892 0.157344 
0.157867 0.15837 0.158463 0.15623 0.145486 0.110419 0.110135 0.145094 0.155889 
0.158212 0.158232 0.157825 0.157382 0.156988 0.156648 0.156366 0.156136 0.155958 
0.155826 0.15574 0.155697 0.155697 0.15574 0.155826 0.155958 0.156136 0.156366 
0.156648 0.156988 0.157382 0.157825 0.158232 0.158212 0.155889 0.145094 0.110135 
0.11 0.144819 0.155612 0.157987 0.158088 0.157759 0.157382 0.157042 0.156743 
0.156492 0.156284 0.156121 0.156001 0.155921 0.155881 0.155881 0.155921 0.156001 
0.156121 0.156284 0.156492 0.156743 0.157042 0.157382 0.157759 0.158088 0.157987 
0.155612 0.144819 0.11 0.109974 0.144634 0.15539 0.157789 0.15795 0.157681 
0.15736 0.157066 0.156805 0.156582 0.156397 0.15625 0.156141 0.156068 0.156032 
0.156032 0.156068 0.156141 0.15625 0.156397 0.156582 0.156805 0.157066 0.15736 
0.157681 0.15795 0.157789 0.15539 0.144634 0.109974 0.110029 0.144518 0.155213 
0.157618 0.15782 0.157598 0.157323 0.157068 0.15684 0.156645 0.15648 0.156349 
0.156251 0.156186 0.156153 0.156153 0.156186 0.156251 0.156349 0.15648 0.156645 
0.15684 0.157068 0.157323 0.157598 0.15782 0.157618 0.155213 0.144518 0.110029 
0.110139 0.144462 0.155072 0.157469 0.1577 0.157515 0.157277 0.157055 0.156856 
0.156684 0.156539 0.156423 0.156335 0.156277 0.156247 0.156247 0.156277 0.156335 
0.156423 0.156539 0.156684 0.156856 0.157055 0.157277 0.157515 0.1577 0.157469 
0.155072 0.144462 0.110139 0.110292 0.144451 0.154963 0.157339 0.15759 0.157433 
0.157226 0.157032 0.156857 0.156706 0.156578 0.156475 0.156397 0.156345 0.156318 
0.156318 0.156345 0.156397 0.156475 0.156578 0.156706 0.156857 0.157032 0.157226 
0.157433 0.15759 0.157339 0.154963 0.144451 0.110292 0.110479 0.144474 0.15488 
0.157227 0.157489 0.157355 0.157172 0.157 0.156846 0.156713 0.1566 0.156508 
0.156439 0.156393 0.15637 0.15637 0.156393 0.156439 0.156508 0.1566 0.156713 
0.156846 0.157 0.157172 0.157355 0.157489 0.157227 0.15488 0.144474 0.110479 
0.110693 0.144524 0.154816 0.157128 0.157396 0.157279 0.157116 0.156963 0.156827 
0.156709 0.156608 0.156527 0.156466 0.156425 0.156404 0.156404 0.156425 0.156466 
0.156527 0.156608 0.156709 0.156827 0.156963 0.157116 0.157279 0.157396 0.157128 
0.154816 0.144524 0.110693 0.110929 0.144596 0.154769 0.157041 0.15731 0.157207 
0.157059 0.156923 0.156801 0.156695 0.156606 0.156534 0.156479 0.156442 0.156424 
0.156424 0.156442 0.156479 0.156534 0.156606 0.156695 0.156801 0.156923 0.157059 
0.157207 0.15731 0.157041 0.154769 0.144596 0.110929 0.111183 0.144684 0.154734 
0.156964 0.157231 0.157138 0.157003 0.156879 0.156769 0.156674 0.156594 0.156529 
0.156481 0.156448 0.156431 0.156431 0.156448 0.156481 0.156529 0.156594 0.156674 
0.156769 0.156879 0.157003 0.157138 0.157231 0.156964 0.154734 0.144684 0.111183 
0.111452 0.144787 0.15471 0.156894 0.157157 0.157071 0.156947 0.156833 0.156733 
0.156647 0.156575 0.156517 0.156473 0.156443 0.156429 0.156429 0.156443 0.156473 
0.156517 0.156575 0.156647 0.156733 0.156833 0.156947 0.157071 0.157157 0.156894 
0.15471 0.144787 0.111452 0.111734 0.1449 0.154694 0.156831 0.157087 0.157007 
0.156891 0.156786 0.156694 0.156615 0.15655 0.156497 0.156457 0.156431 0.156417 
0.156417 0.156431 0.156457 0.156497 0.15655 0.156615 0.156694 0.156786 0.156891 
0.157007 0.157087 0.156831 0.154694 0.1449 0.111734 0.112027 0.145022 0.154685 
0.156773 0.157021 0.156945 0.156835 0.156737 0.156652 0.15658 0.15652 0.156472 
0.156435 0.156411 0.156399 0.156399 0.156411 0.156435 0.156472 0.15652 0.15658 
0.156652 0.156737 0.156835 0.156945 0.157021 0.156773 0.154685 0.145022 0.112027 
0.112329 0.145152 0.15468 0.156719 0.156958 0.156884 0.15678 0.156688 0.156608 
0.156541 0.156486 0.156441 0.156408 0.156386 0.156375 0.156375 0.156386 0.156408 
0.156441 0.156486 0.156541 0.156608 0.156688 0.15678 0.156884 0.156958 0.156719 
0.15468 0.145152 0.112329 0.112639 0.145286 0.15468 0.156668 0.156897 0.156825 
0.156726 0.156638 0.156563 0.1565 0.156448 0.156407 0.156376 0.156355 0.156345 
0.156345 0.156355 0.156376 0.156407 0.156448 0.1565 0.156563 0.156638 0.156726 
0.156825 0.156897 0.156668 0.15468 0.145286 0.112639 0.112956 0.145426 0.154682 
0.156619 0.156838 0.156767 0.156671 0.156587 0.156516 0.156457 0.156408 0.156369 
0.15634 0.156321 0.156312 0.156312 0.156321 0.15634 0.156369 0.156408 0.156457 
0.156516 0.156587 0.156671 0.156767 0.156838 0.156619 0.154682 0.145426 0.112956 
0.113281 0.145569 0.154687 0.156573 0.156781 0.15671 0.156617 0.156536 0.156468 
0.156412 0.156365 0.156329 0.156302 0.156284 0.156275 0.156275 0.156284 0.156302 
0.156329 0.156365 0.156412 0.156468 0.156536 0.156617 0.15671 0.156781 0.156573 
0.154687 0.145569 0.113281 0.113611 0.145715 0.154694 0.156528 0.156725 0.156654 
0.156563 0.156485 0.156419 0.156365 0.156321 0.156286 0.156261 0.156243 0.156235 
0.156235 0.156243 0.156261 0.156286 0.156321 0.156365 0.156419 0.156485 0.156563 
0.156654 0.156725 0.156528 0.154694 0.145715 0.113611 0.113947 0.145863 0.154702 
0.156484 0.15667 0.156599 0.156509 0.156433 0.15637 0.156317 0.156275 0.156242 
0.156217 0.156201 0.156193 0.156193 0.156201 0.156217 0.156242 0.156275 0.156317 
0.15637 0.156433 0.156509 0.156599 0.15667 0.156484 0.154702 0.145863 0.113947 
0.114288 0.146013 0.15471 0.156441 0.156616 0.156544 0.156456 0.156381 0.156319 
0.156269 0.156228 0.156196 0.156172 0.156156 0.156149 0.156149 0.156156 0.156172 
0.156196 0.156228 0.156269 0.156319 0.156381 0.156456 0.156544 0.156616 0.156441 
0.15471 0.146013 0.114288 0.114634 0.146165 0.15472 0.156399 0.156562 0.156489 
0.156402 0.156329 0.156269 0.156219 0.156179 0.156148 0.156126 0.15611 0.156103 
0.156103 0.15611 0.156126 0.156148 0.156179 0.156219 0.156269 0.156329 0.156402 
0.156489 0.156562 0.156399 0.15472 0.146165 0.114634 0.114985 0.146317 0.154729 
0.156357 0.156509 0.156435 0.156349 0.156277 0.156217 0.156169 0.15613 0.1561 
0.156078 0.156063 0.156056 0.156056 0.156063 0.156078 0.1561 0.15613 0.156169 
0.156217 0.156277 0.156349 0.156435 0.156509 0.156357 0.154729 0.146317 0.114985 
0.115341 0.146471 0.154738 0.156316 0.156456 0.156381 0.156295 0.156224 0.156166 
0.156118 0.15608 0.156051 0.156029 0.156015 0.156008 0.156008 0.156015 0.156029 
0.156051 0.15608 0.156118 0.156166 0.156224 0.156295 0.156381 0.156456 0.156316 
0.154738 0.146471 0.115341 0.115701 0.146625 0.154747 0.156274 0.156403 0.156327 
0.156242 0.156171 0.156114 0.156067 0.15603 0.156001 0.155979 0.155965 0.155958 
0.155958 0.155965 0.155979 0.156001 0.15603 0.156067 0.156114 0.156171 0.156242 
0.156327 0.156403 0.156274 0.154747 0.146625 0.115701 0.116065 0.146779 0.154756 
0.156233 0.156351 0.156273 0.156188 0.156118 0.156061 0.156015 0.155978 0.15595 
0.155929 0.155915 0.155908 0.155908 0.155915 0.155929 0.15595 0.155978 0.156015 
0.156061 0.156118 0.156188 0.156273 0.156351 0.156233 0.154756 0.146779 0.116065 
0.116434 0.146934 0.154764 0.156191 0.156298 0.156219 0.156135 0.156065 0.156009 
0.155963 0.155927 0.155898 0.155878 0.155864 0.155858 0.155858 0.155864 0.155878 
0.155898 0.155927 0.155963 0.156009 0.156065 0.156135 0.156219 0.156298 0.156191 
0.154764 0.146934 0.116434 0.116807 0.147088 0.154772 0.156149 0.156246 0.156165 
0.156081 0.156012 0.155956 0.155911 0.155875 0.155847 0.155826 0.155813 0.155806 
0.155806 0.155813 0.155826 0.155847 0.155875 0.155911 0.155956 0.156012 0.156081 
0.156165 0.156246 0.156149 0.154772 0.147088 0.116807 0.117184 0.147243 0.154778 
0.156107 0.156193 0.156111 0.156027 0.155959 0.155903 0.155858 0.155822 0.155794 
0.155774 0.155761 0.155754 0.155754 0.155761 0.155774 0.155794 0.155822 0.155858 
0.155903 0.155959 0.156027 0.156111 0.156193 0.156107 0.154778 0.147243 0.117184 
0.117565 0.147397 0.154785 0.156065 0.156141 0.156057 0.155974 0.155905 0.15585 
0.155805 0.155769 0.155742 0.155722 0.155709 0.155702 0.155702 0.155709 0.155722 
0.155742 0.155769 0.155805 0.15585 0.155905 0.155974 0.156057 0.156141 0.156065 
0.154785 0.147397 0.117565 0.117951 0.147551 0.15479 0.156023 0.156088 0.156003 
0.15592 0.155851 0.155796 0.155752 0.155716 0.155689 0.155669 0.155656 0.155649 
0.155649 0.155656 0.155669 0.155689 0.155716 0.155752 0.155796 0.155851 0.15592 
0.156003 0.156088 0.156023 0.15479 0.147551 0.117951 0.11834 0.147705 0.154794 
0.15598 0.156035 0.155949 0.155866 0.155798 0.155743 0.155698 0.155663 0.155636 
0.155616 0.155603 0.155596 0.155596 0.155603 0.155616 0.155636 0.155663 0.155698 
0.155743 0.155798 0.155866 0.155949 0.156035 0.15598 0.154794 0.147705 0.11834 
0.118734 0.147858 0.154798 0.155936 0.155983 0.155895 0.155812 0.155744 0.155689 
0.155644 0.155609 0.155582 0.155563 0.15555 0.155543 0.155543 0.15555 0.155563 
0.155582 0.155609 0.155644 0.155689 0.155744 0.155812 0.155895 0.155983 0.155936 
0.154798 0.147858 0.118734 0.119133 0.148011 0.1548 0.155893 0.15593 0.155841 
0.155757 0.155689 0.155635 0.155591 0.155556 0.155529 0.155509 0.155496 0.15549 
0.15549 0.155496 0.155509 0.155529 0.155556 0.155591 0.155635 0.155689 0.155757 
0.155841 0.15593 0.155893 0.1548 0.148011 0.119133 0.119535 0.148163 0.154802 
0.155849 0.155877 0.155787 0.155703 0.155635 0.155581 0.155537 0.155502 0.155475 
0.155455 0.155442 0.155436 0.155436 0.155442 0.155455 0.155475 0.155502 0.155537 
0.155581 0.155635 0.155703 0.155787 0.155877 0.155849 0.154802 0.148163 0.119535 
0.119942 0.148315 0.154802 0.155804 0.155823 0.155732 0.155649 0.155581 0.155526 
0.155482 0.155448 0.155421 0.155401 0.155388 0.155382 0.155382 0.155388 0.155401 
0.155421 0.155448 0.155482 0.155526 0.155581 0.155649 0.155732 0.155823 0.155804 
0.154802 0.148315 0.119942 0.120354 0.148466 0.154802 0.155759 0.15577 0.155678 
0.155594 0.155526 0.155472 0.155428 0.155393 0.155366 0.155347 0.155334 0.155328 
0.155328 0.155334 0.155347 0.155366 0.155393 0.155428 0.155472 0.155526 0.155594 
0.155678 0.15577 0.155759 0.154802 0.148466 0.120354 0.12077 0.148616 0.1548 
0.155714 0.155716 0.155623 0.155539 0.155472 0.155417 0.155373 0.155339 0.155312 
0.155292 0.15528 0.155273 0.155273 0.15528 0.155292 0.155312 0.155339 0.155373 
0.155417 0.155472 0.155539 0.155623 0.155716 0.155714 0.1548 0.148616 0.12077 
0.12119 0.148765 0.154797 0.155668 0.155662 0.155568 0.155484 0.155417 0.155363 
0.155319 0.155284 0.155257 0.155238 0.155225 0.155219 0.155219 0.155225 0.155238 
0.155257 0.155284 0.155319 0.155363 0.155417 0.155484 0.155568 0.155662 0.155668 
0.154797 0.148765 0.12119 0.121615 0.148913 0.154794 0.155622 0.155609 0.155513 
0.15543 0.155362 0.155308 0.155264 0.155229 0.155202 0.155183 0.15517 0.155164 
0.155164 0.15517 0.155183 0.155202 0.155229 0.155264 0.155308 0.155362 0.15543 
0.155513 0.155609 0.155622 0.154794 0.148913 0.121615 0.122045 0.14906 0.154789 
0.155575 0.155554 0.155458 0.155374 0.155307 0.155253 0.155209 0.155174 0.155147 
0.155128 0.155115 0.155109 0.155109 0.155115 0.155128 0.155147 0.155174 0.155209 
0.155253 0.155307 0.155374 0.155458 0.155554 0.155575 0.154789 0.14906 0.122045 
0.12248 0.149207 0.154782 0.155528 0.1555 0.155403 0.155319 0.155252 0.155198 
0.155154 0.155119 0.155092 0.155073 0.15506 0.155054 0.155054 0.15506 0.155073 
0.155092 0.155119 0.155154 0.155198 0.155252 0.155319 0.155403 0.1555 0.155528 
0.154782 0.149207 0.12248 0.122919 0.149352 0.154775 0.15548 0.155446 0.155348 
0.155264 0.155196 0.155142 0.155098 0.155064 0.155037 0.155018 0.155005 0.154999 
0.154999 0.155005 0.155018 0.155037 0.155064 0.155098 0.155142 0.155196 0.155264 
0.155348 0.155446 0.15548 0.154775 0.149352 0.122919 0.123363 0.149496 0.154766 
0.155432 0.155391 0.155292 0.155208 0.155141 0.155087 0.155043 0.155008 0.154982 
0.154962 0.154949 0.154943 0.154943 0.154949 0.154962 0.154982 0.155008 0.155043 
0.155087 0.155141 0.155208 0.155292 0.155391 0.155432 0.154766 0.149496 0.123363 
0.123812 0.149639 0.154757 0.155384 0.155336 0.155237 0.155153 0.155085 0.155031 
0.154987 0.154953 0.154926 0.154907 0.154894 0.154888 0.154888 0.154894 0.154907 
0.154926 0.154953 0.154987 0.155031 0.155085 0.155153 0.155237 0.155336 0.155384 
0.154757 0.149639 0.123812 0.124266 0.14978 0.154746 0.155335 0.155281 0.155181 
0.155097 0.15503 0.154976 0.154932 0.154897 0.15487 0.154851 0.154838 0.154832 
0.154832 0.154838 0.154851 0.15487 0.154897 0.154932 0.154976 0.15503 0.155097 
0.155181 0.155281 0.155335 0.154746 0.14978 0.124266 0.124725 0.14992 0.154734 
0.155285 0.155226 0.155125 0.155041 0.154974 0.15492 0.154876 0.154841 0.154815 
0.154795 0.154782 0.154776 0.154776 0.154782 0.154795 0.154815 0.154841 0.154876 
0.15492 0.154974 0.155041 0.155125 0.155226 0.155285 0.154734 0.14992 0.124725 
0.125189 0.150059 0.15472 0.155235 0.155171 0.155069 0.154985 0.154918 0.154864 
0.15482 0.154785 0.154759 0.154739 0.154726 0.15472 0.15472 0.154726 0.154739 
0.154759 0.154785 0.15482 0.154864 0.154918 0.154985 0.155069 0.155171 0.155235 
0.15472 0.150059 0.125189 0.125659 0.150196 0.154705 0.155185 0.155115 0.155013 
0.154929 0.154862 0.154808 0.154764 0.154729 0.154702 0.154683 0.15467 0.154664 
0.154664 0.15467 0.154683 0.154702 0.154729 0.154764 0.154808 0.154862 0.154929 
0.155013 0.155115 0.155185 0.154705 0.150196 0.125659 0.126133 0.150332 0.15469 
0.155135 0.155059 0.154957 0.154873 0.154805 0.154751 0.154707 0.154673 0.154646 
0.154627 0.154614 0.154608 0.154608 0.154614 0.154627 0.154646 0.154673 0.154707 
0.154751 0.154805 0.154873 0.154957 0.155059 0.155135 0.15469 0.150332 0.126133 
0.126614 0.150466 0.154672 0.155084 0.155003 0.1549 0.154817 0.154749 0.154695 
0.154651 0.154617 0.15459 0.154571 0.154558 0.154552 0.154552 0.154558 0.154571 
0.15459 0.154617 0.154651 0.154695 0.154749 0.154817 0.1549 0.155003 0.155084 
0.154672 0.150466 0.126614 0.127099 0.150598 0.154654 0.155032 0.154947 0.154844 
0.15476 0.154692 0.154639 0.154595 0.15456 0.154533 0.154514 0.154501 0.154495 
0.154495 0.154501 0.154514 0.154533 0.15456 0.154595 0.154639 0.154692 0.15476 
0.154844 0.154947 0.155032 0.154654 0.150598 0.127099 0.12759 0.150729 0.154634 
0.15498 0.154891 0.154787 0.154703 0.154636 0.154582 0.154538 0.154504 0.154477 
0.154458 0.154445 0.154438 0.154438 0.154445 0.154458 0.154477 0.154504 0.154538 
0.154582 0.154636 0.154703 0.154787 0.154891 0.15498 0.154634 0.150729 0.12759 
0.128087 0.150858 0.154613 0.154928 0.154835 0.15473 0.154647 0.154579 0.154525 
0.154481 0.154447 0.15442 0.154401 0.154388 0.154382 0.154382 0.154388 0.154401 
0.15442 0.154447 0.154481 0.154525 0.154579 0.154647 0.15473 0.154835 0.154928 
0.154613 0.150858 0.128087 0.12859 0.150984 0.154591 0.154875 0.154778 0.154673 
0.15459 0.154522 0.154468 0.154424 0.15439 0.154363 0.154344 0.154331 0.154325 
0.154325 0.154331 0.154344 0.154363 0.15439 0.154424 0.154468 0.154522 0.15459 
0.154673 0.154778 0.154875 0.154591 0.150984 0.12859 0.129098 0.151109 0.154567 
0.154822 0.154721 0.154616 0.154533 0.154465 0.154411 0.154367 0.154333 0.154306 
0.154287 0.154274 0.154268 0.154268 0.154274 0.154287 0.154306 0.154333 0.154367 
0.154411 0.154465 0.154533 0.154616 0.154721 0.154822 0.154567 0.151109 0.129098 
0.129613 0.151232 0.154542 0.154769 0.154664 0.154559 0.154476 0.154408 0.154354 
0.15431 0.154276 0.154249 0.15423 0.154217 0.154211 0.154211 0.154217 0.15423 
0.154249 0.154276 0.15431 0.154354 0.154408 0.154476 0.154559 0.154664 0.154769 
0.154542 0.151232 0.129613 0.130133 0.151352 0.154516 0.154715 0.154607 0.154502 
0.154419 0.154351 0.154297 0.154253 0.154219 0.154192 0.154173 0.15416 0.154154 
0.154154 0.15416 0.154173 0.154192 0.154219 0.154253 0.154297 0.154351 0.154419 
0.154502 0.154607 0.154715 0.154516 0.151352 0.130133 0.130659 0.15147 0.154489 
0.154661 0.15455 0.154444 0.154361 0.154293 0.15424 0.154196 0.154162 0.154135 
0.154116 0.154103 0.154096 0.154096 0.154103 0.154116 0.154135 0.154162 0.154196 
0.15424 0.154293 0.154361 0.154444 0.15455 0.154661 0.154489 0.15147 0.130659 
0.131192 0.151586 0.15446 0.154606 0.154493 0.154387 0.154304 0.154236 0.154182 
0.154138 0.154104 0.154077 0.154058 0.154045 0.154039 0.154039 0.154045 0.154058 
0.154077 0.154104 0.154138 0.154182 0.154236 0.154304 0.154387 0.154493 0.154606 
0.15446 0.151586 0.131192 0.131731 0.151699 0.15443 0.154551 0.154435 0.154329 
0.154246 0.154178 0.154125 0.154081 0.154047 0.15402 0.154001 0.153988 0.153982 
0.153982 0.153988 0.154001 0.15402 0.154047 0.154081 0.154125 0.154178 0.154246 
0.154329 0.154435 0.154551 0.15443 0.151699 0.131731 0.132277 0.151809 0.154398 
0.154496 0.154378 0.154271 0.154188 0.154121 0.154067 0.154023 0.153989 0.153962 
0.153943 0.15393 0.153924 0.153924 0.15393 0.153943 0.153962 0.153989 0.154023 
0.154067 0.154121 0.154188 0.154271 0.154378 0.154496 0.154398 0.151809 0.132277 
0.132829 0.151917 0.154366 0.15444 0.15432 0.154213 0.15413 0.154063 0.154009 
0.153965 0.153931 0.153905 0.153885 0.153873 0.153866 0.153866 0.153873 0.153885 
0.153905 0.153931 0.153965 0.154009 0.154063 0.15413 0.154213 0.15432 0.15444 
0.154366 0.151917 0.132829 0.133387 0.152021 0.154332 0.154384 0.154262 0.154155 
0.154072 0.154005 0.153951 0.153908 0.153874 0.153847 0.153828 0.153815 0.153809 
0.153809 0.153815 0.153828 0.153847 0.153874 0.153908 0.153951 0.154005 0.154072 
0.154155 0.154262 0.154384 0.154332 0.152021 0.133387 0.133952 0.152123 0.154296 
0.154328 0.154204 0.154097 0.154014 0.153947 0.153894 0.15385 0.153816 0.153789 
0.15377 0.153757 0.153751 0.153751 0.153757 0.15377 0.153789 0.153816 0.15385 
0.153894 0.153947 0.154014 0.154097 0.154204 0.154328 0.154296 0.152123 0.133952 
0.134524 0.152222 0.15426 0.154271 0.154145 0.154038 0.153956 0.153888 0.153835 
0.153792 0.153758 0.153731 0.153712 0.153699 0.153693 0.153693 0.153699 0.153712 
0.153731 0.153758 0.153792 0.153835 0.153888 0.153956 0.154038 0.154145 0.154271 
0.15426 0.152222 0.134524 0.135103 0.152317 0.154222 0.154214 0.154087 0.15398 
0.153898 0.15383 0.153777 0.153734 0.1537 0.153673 0.153654 0.153641 0.153635 
0.153635 0.153641 0.153654 0.153673 0.1537 0.153734 0.153777 0.15383 0.153898 