# vtk DataFile Version 5.1
vtk output
ASCII
DATASET UNSTRUCTURED_GRID
POINTS 4929 double
0.1016 1.5 0 0.1016 1.45 0 0.1016 1.4 0 
0.1016 1.35 0 0.1016 1.3 0 0.1016 1.25 0 
0.1016 1.2 0 0.1016 1.15 0 0.1016 1.1 0 
0.1016 1.05 0 0.1016 1 0 0.1016 0.95 0 
0.1016 0.9 0 0.1016 0.85 0 0.1016 0.8 0 
0.1016 0.75 0 0.1016 0.7 0 0.1016 0.65 0 
0.1016 0.6 0 0.1016 0.55 0 0.1016 0.5 0 
0.1016 0.45 0 0.1016 0.4 0 0.1016 0.35 0 
0.1016 0.3 0 0.1016 0.25 0 0.1016 0.2 0 
0.1016 0.15 0 0.1016 0.1 0 0.1016 0.05 0 
0.1016 0 0 5.08 1.5 0 5.08 1.45 0 
5.08 1.4 0 5.08 1.35 0 5.08 1.3 0 
5.08 1.25 0 5.08 1.2 0 5.08 1.15 0 
5.08 1.1 0 5.08 1.05 0 5.08 1 0 
5.08 0.95 0 5.08 0.9 0 5.08 0.85 0 
5.08 0.8 0 5.08 0.75 0 5.08 0.7 0 
5.08 0.65 0 5.08 0.6 0 5.08 0.55 0 
5.08 0.5 0 5.08 0.45 0 5.08 0.4 0 
5.08 0.35 0 5.08 0.3 0 5.08 0.25 0 
5.08 0.2 0 5.08 0.15 0 5.08 0.1 0 
5.08 0.05 0 5.08 0 0 0.12737462728 1.5 0 
0.12737462728 1.45 0 0.12737462728 1.4 0 0.12737462728 1.35 0 
0.12737462728 1.3 0 0.12737462728 1.25 0 0.12737462728 1.2 0 
0.12737462728 1.15 0 0.12737462728 1.1 0 0.12737462728 1.05 0 
0.12737462728 1 0 0.12737462728 0.95 0 0.12737462728 0.9 0 
0.12737462728 0.85 0 0.12737462728 0.8 0 0.12737462728 0.75 0 
0.12737462728 0.7 0 0.12737462728 0.65 0 0.12737462728 0.6 0 
0.12737462728 0.55 0 0.12737462728 0.5 0 0.12737462728 0.45 0 
0.12737462728 0.4 0 0.12737462728 0.35 0 0.12737462728 0.3 0 
0.12737462728 0.25 0 0.12737462728 0.2 0 0.12737462728 0.15 0 
0.12737462728 0.1 0 0.12737462728 0.05 0 0.12737462728 0 0 
0.15441581276 1.5 0 0.15441581276 1.45 0 0.15441581276 1.4 0 
0.15441581276 1.35 0 0.15441581276 1.3 0 0.15441581276 1.25 0 
0.15441581276 1.2 0 0.15441581276 1.15 0 0.15441581276 1.1 0 
0.15441581276 1.05 0 0.15441581276 1 0 0.15441581276 0.95 0 
0.15441581276 0.9 0 0.15441581276 0.85 0 0.15441581276 0.8 0 
0.15441581276 0.75 0 0.15441581276 0.7 0 0.15441581276 0.65 0 
0.15441581276 0.6 0 0.15441581276 0.55 0 0.15441581276 0.5 0 
0.15441581276 0.45 0 0.15441581276 0.4 0 0.15441581276 0.35 0 
0.15441581276 0.3 0 0.15441581276 0.25 0 0.15441581276 0.2 0 
0.15441581276 0.15 0 0.15441581276 0.1 0 0.15441581276 0.05 0 
0.15441581276 0 0 0.18278579477 1.5 0 0.18278579477 1.45 0 
0.18278579477 1.4 0 0.18278579477 1.35 0 0.18278579477 1.3 0 
0.18278579477 1.25 0 0.18278579477 1.2 0 0.18278579477 1.15 0 
0.18278579477 1.1 0 0.18278579477 1.05 0 0.18278579477 1 0 
0.18278579477 0.95 0 0.18278579477 0.9 0 0.18278579477 0.85 0 
0.18278579477 0.8 0 0.18278579477 0.75 0 0.18278579477 0.7 0 
0.18278579477 0.65 0 0.18278579477 0.6 0 0.18278579477 0.55 0 
0.18278579477 0.5 0 0.18278579477 0.45 0 0.18278579477 0.4 0 
0.18278579477 0.35 0 0.18278579477 0.3 0 0.18278579477 0.25 0 
0.18278579477 0.2 0 0.18278579477 0.15 0 0.18278579477 0.1 0 
0.18278579477 0.05 0 0.18278579477 0 0 0.21254987001 1.5 0 
0.21254987001 1.45 0 0.21254987001 1.4 0 0.21254987001 1.35 0 
0.21254987001 1.3 0 0.21254987001 1.25 0 0.21254987001 1.2 0 
0.21254987001 1.15 0 0.21254987001 1.1 0 0.21254987001 1.05 0 
0.21254987001 1 0 0.21254987001 0.95 0 0.21254987001 0.9 0 
0.21254987001 0.85 0 0.21254987001 0.8 0 0.21254987001 0.75 0 
0.21254987001 0.7 0 0.21254987001 0.65 0 0.21254987001 0.6 0 
0.21254987001 0.55 0 0.21254987001 0.5 0 0.21254987001 0.45 0 
0.21254987001 0.4 0 0.21254987001 0.35 0 0.21254987001 0.3 0 
0.21254987001 0.25 0 0.21254987001 0.2 0 0.21254987001 0.15 0 
0.21254987001 0.1 0 0.21254987001 0.05 0 0.21254987001 0 0 
0.24377654385 1.5 0 0.24377654385 1.45 0 0.24377654385 1.4 0 
0.24377654385 1.35 0 0.24377654385 1.3 0 0.24377654385 1.25 0 
0.24377654385 1.2 0 0.24377654385 1.15 0 0.24377654385 1.1 0 
0.24377654385 1.05 0 0.24377654385 1 0 0.24377654385 0.95 0 
0.24377654385 0.9 0 0.24377654385 0.85 0 0.24377654385 0.8 0 
0.24377654385 0.75 0 0.24377654385 0.7 0 0.24377654385 0.65 0 
0.24377654385 0.6 0 0.24377654385 0.55 0 0.24377654385 0.5 0 
0.24377654385 0.45 0 0.24377654385 0.4 0 0.24377654385 0.35 0 
0.24377654385 0.3 0 0.24377654385 0.25 0 0.24377654385 0.2 0 
0.24377654385 0.15 0 0.24377654385 0.1 0 0.24377654385 0.05 0 
0.24377654385 0 0 0.27653768798 1.5 0 0.27653768798 1.45 0 
0.27653768798 1.4 0 0.27653768798 1.35 0 0.27653768798 1.3 0 
0.27653768798 1.25 0 0.27653768798 1.2 0 0.27653768798 1.15 0 
0.27653768798 1.1 0 0.27653768798 1.05 0 0.27653768798 1 0 
0.27653768798 0.95 0 0.27653768798 0.9 0 0.27653768798 0.85 0 
0.27653768798 0.8 0 0.27653768798 0.75 0 0.27653768798 0.7 0 
0.27653768798 0.65 0 0.27653768798 0.6 0 0.27653768798 0.55 0 
0.27653768798 0.5 0 0.27653768798 0.45 0 0.27653768798 0.4 0 
0.27653768798 0.35 0 0.27653768798 0.3 0 0.27653768798 0.25 0 
0.27653768798 0.2 0 0.27653768798 0.15 0 0.27653768798 0.1 0 
0.27653768798 0.05 0 0.27653768798 0 0 0.31090870586 1.5 0 
0.31090870586 1.45 0 0.31090870586 1.4 0 0.31090870586 1.35 0 
0.31090870586 1.3 0 0.31090870586 1.25 0 0.31090870586 1.2 0 
0.31090870586 1.15 0 0.31090870586 1.1 0 0.31090870586 1.05 0 
0.31090870586 1 0 0.31090870586 0.95 0 0.31090870586 0.9 0 
0.31090870586 0.85 0 0.31090870586 0.8 0 0.31090870586 0.75 0 
0.31090870586 0.7 0 0.31090870586 0.65 0 0.31090870586 0.6 0 
0.31090870586 0.55 0 0.31090870586 0.5 0 0.31090870586 0.45 0 
0.31090870586 0.4 0 0.31090870586 0.35 0 0.31090870586 0.3 0 
0.31090870586 0.25 0 0.31090870586 0.2 0 0.31090870586 0.15 0 
0.31090870586 0.1 0 0.31090870586 0.05 0 0.31090870586 0 0 
0.34696870625 1.5 0 0.34696870625 1.45 0 0.34696870625 1.4 0 
0.34696870625 1.35 0 0.34696870625 1.3 0 0.34696870625 1.25 0 
0.34696870625 1.2 0 0.34696870625 1.15 0 0.34696870625 1.1 0 
0.34696870625 1.05 0 0.34696870625 1 0 0.34696870625 0.95 0 
0.34696870625 0.9 0 0.34696870625 0.85 0 0.34696870625 0.8 0 
0.34696870625 0.75 0 0.34696870625 0.7 0 0.34696870625 0.65 0 
0.34696870625 0.6 0 0.34696870625 0.55 0 0.34696870625 0.5 0 
0.34696870625 0.45 0 0.34696870625 0.4 0 0.34696870625 0.35 0 
0.34696870625 0.3 0 0.34696870625 0.25 0 0.34696870625 0.2 0 
0.34696870625 0.15 0 0.34696870625 0.1 0 0.34696870625 0.05 0 
0.34696870625 0 0 0.3848006853 1.5 0 0.3848006853 1.45 0 
0.3848006853 1.4 0 0.3848006853 1.35 0 0.3848006853 1.3 0 
0.3848006853 1.25 0 0.3848006853 1.2 0 0.3848006853 1.15 0 
0.3848006853 1.1 0 0.3848006853 1.05 0 0.3848006853 1 0 
0.3848006853 0.95 0 0.3848006853 0.9 0 0.3848006853 0.85 0 
0.3848006853 0.8 0 0.3848006853 0.75 0 0.3848006853 0.7 0 
0.3848006853 0.65 0 0.3848006853 0.6 0 0.3848006853 0.55 0 
0.3848006853 0.5 0 0.3848006853 0.45 0 0.3848006853 0.4 0 
0.3848006853 0.35 0 0.3848006853 0.3 0 0.3848006853 0.25 0 
0.3848006853 0.2 0 0.3848006853 0.15 0 0.3848006853 0.1 0 
0.3848006853 0.05 0 0.3848006853 0 0 0.42449171754 1.5 0 
0.42449171754 1.45 0 0.42449171754 1.4 0 0.42449171754 1.35 0 
0.42449171754 1.3 0 0.42449171754 1.25 0 0.42449171754 1.2 0 
0.42449171754 1.15 0 0.42449171754 1.1 0 0.42449171754 1.05 0 
0.42449171754 1 0 0.42449171754 0.95 0 0.42449171754 0.9 0 
0.42449171754 0.85 0 0.42449171754 0.8 0 0.42449171754 0.75 0 
0.42449171754 0.7 0 0.42449171754 0.65 0 0.42449171754 0.6 0 
0.42449171754 0.55 0 0.42449171754 0.5 0 0.42449171754 0.45 0 
0.42449171754 0.4 0 0.42449171754 0.35 0 0.42449171754 0.3 0 
0.42449171754 0.25 0 0.42449171754 0.2 0 0.42449171754 0.15 0 
0.42449171754 0.1 0 0.42449171754 0.05 0 0.42449171754 0 0 
0.46613315636 1.5 0 0.46613315636 1.45 0 0.46613315636 1.4 0 
0.46613315636 1.35 0 0.46613315636 1.3 0 0.46613315636 1.25 0 
0.46613315636 1.2 0 0.46613315636 1.15 0 0.46613315636 1.1 0 
0.46613315636 1.05 0 0.46613315636 1 0 0.46613315636 0.95 0 
0.46613315636 0.9 0 0.46613315636 0.85 0 0.46613315636 0.8 0 
0.46613315636 0.75 0 0.46613315636 0.7 0 0.46613315636 0.65 0 
0.46613315636 0.6 0 0.46613315636 0.55 0 0.46613315636 0.5 0 
0.46613315636 0.45 0 0.46613315636 0.4 0 0.46613315636 0.35 0 
0.46613315636 0.3 0 0.46613315636 0.25 0 0.46613315636 0.2 0 
0.46613315636 0.15 0 0.46613315636 0.1 0 0.46613315636 0.05 0 
0.46613315636 0 0 0.5098208442 1.5 0 0.5098208442 1.45 0 
0.5098208442 1.4 0 0.5098208442 1.35 0 0.5098208442 1.3 0 
0.5098208442 1.25 0 0.5098208442 1.2 0 0.5098208442 1.15 0 
0.5098208442 1.1 0 0.5098208442 1.05 0 0.5098208442 1 0 
0.5098208442 0.95 0 0.5098208442 0.9 0 0.5098208442 0.85 0 
0.5098208442 0.8 0 0.5098208442 0.75 0 0.5098208442 0.7 0 
0.5098208442 0.65 0 0.5098208442 0.6 0 0.5098208442 0.55 0 
0.5098208442 0.5 0 0.5098208442 0.45 0 0.5098208442 0.4 0 
0.5098208442 0.35 0 0.5098208442 0.3 0 0.5098208442 0.25 0 
0.5098208442 0.2 0 0.5098208442 0.15 0 0.5098208442 0.1 0 
0.5098208442 0.05 0 0.5098208442 0 0 0.55565533319 1.5 0 
0.55565533319 1.45 0 0.55565533319 1.4 0 0.55565533319 1.35 0 
0.55565533319 1.3 0 0.55565533319 1.25 0 0.55565533319 1.2 0 
0.55565533319 1.15 0 0.55565533319 1.1 0 0.55565533319 1.05 0 
0.55565533319 1 0 0.55565533319 0.95 0 0.55565533319 0.9 0 
0.55565533319 0.85 0 0.55565533319 0.8 0 0.55565533319 0.75 0 
0.55565533319 0.7 0 0.55565533319 0.65 0 0.55565533319 0.6 0 
0.55565533319 0.55 0 0.55565533319 0.5 0 0.55565533319 0.45 0 
0.55565533319 0.4 0 0.55565533319 0.35 0 0.55565533319 0.3 0 
0.55565533319 0.25 0 0.55565533319 0.2 0 0.55565533319 0.15 0 
0.55565533319 0.1 0 0.55565533319 0.05 0 0.55565533319 0 0 
0.60374211656 1.5 0 0.60374211656 1.45 0 0.60374211656 1.4 0 
0.60374211656 1.35 0 0.60374211656 1.3 0 0.60374211656 1.25 0 
0.60374211656 1.2 0 0.60374211656 1.15 0 0.60374211656 1.1 0 
0.60374211656 1.05 0 0.60374211656 1 0 0.60374211656 0.95 0 
0.60374211656 0.9 0 0.60374211656 0.85 0 0.60374211656 0.8 0 
0.60374211656 0.75 0 0.60374211656 0.7 0 0.60374211656 0.65 0 
0.60374211656 0.6 0 0.60374211656 0.55 0 0.60374211656 0.5 0 
0.60374211656 0.45 0 0.60374211656 0.4 0 0.60374211656 0.35 0 
0.60374211656 0.3 0 0.60374211656 0.25 0 0.60374211656 0.2 0 
0.60374211656 0.15 0 0.60374211656 0.1 0 0.60374211656 0.05 0 
0.60374211656 0 0 0.65419187143 1.5 0 0.65419187143 1.45 0 
0.65419187143 1.4 0 0.65419187143 1.35 0 0.65419187143 1.3 0 
0.65419187143 1.25 0 0.65419187143 1.2 0 0.65419187143 1.15 0 
[...]
CELL_DATA 4740
FIELD FieldData 7
B_Stress_n_p_m2 1 4740 float
0.210289 0.210223 0.210076 0.210094 0.210137 0.210181 0.210219 0.210251 0.210276 
0.210297 0.210314 0.210327 0.210337 0.210345 0.21035 0.21035 0.210345 0.210337 
0.210327 0.210314 0.210297 0.210276 0.210251 0.210219 0.210181 0.210137 0.210094 
0.210076 0.210223 0.210289 0.158178 0.158587 0.158674 0.158815 0.158937 0.159034 
0.159111 0.15917 0.159215 0.15925 0.159277 0.159297 0.159311 0.159321 0.159327 
0.159327 0.159321 0.159311 0.159297 0.159277 0.15925 0.159215 0.15917 0.159111 
0.159034 0.158937 0.158815 0.158674 0.158587 0.158178 0.146804 0.148258 0.148761 
0.149089 0.149323 0.149497 0.149629 0.149729 0.149805 0.149861 0.149903 0.149933 
0.149953 0.149966 0.149972 0.149972 0.149966 0.149953 0.149933 0.149903 0.149861 
0.149805 0.149729 0.149629 0.149497 0.149323 0.149089 0.148761 0.148258 0.146804 
0.149046 0.150561 0.151301 0.151792 0.15214 0.152397 0.152591 0.152739 0.152851 
0.152935 0.152997 0.153042 0.153073 0.153092 0.153101 0.153101 0.153092 0.153073 
0.153042 0.152997 0.152935 0.152851 0.152739 0.152591 0.152397 0.15214 0.151792 
0.151301 0.150561 0.149046 0.149509 0.150909 0.151779 0.1524 0.152853 0.153193 
0.153451 0.15365 0.153801 0.153916 0.154001 0.154063 0.154106 0.154133 0.154146 
0.154146 0.154133 0.154106 0.154063 0.154001 0.153916 0.153801 0.15365 0.153451 
0.153193 0.152853 0.1524 0.151779 0.150909 0.149509 0.148941 0.150349 0.151325 
0.152054 0.152602 0.153021 0.153345 0.153594 0.153786 0.153933 0.154043 0.154123 
0.154179 0.154215 0.154232 0.154232 0.154215 0.154179 0.154123 0.154043 0.153933 
0.153786 0.153594 0.153345 0.153021 0.152602 0.152054 0.151325 0.150349 0.148941 
0.148479 0.14992 0.150982 0.151801 0.152434 0.152927 0.153312 0.153613 0.153846 
0.154025 0.15416 0.154259 0.154329 0.154373 0.154394 0.154394 0.154373 0.154329 
0.154259 0.15416 0.154025 0.153846 0.153613 0.153312 0.152927 0.152434 0.151801 
0.150982 0.14992 0.148479 0.148146 0.149604 0.15073 0.151623 0.15233 0.152889 
0.153332 0.153681 0.153955 0.154166 0.154327 0.154445 0.154528 0.154581 0.154607 
0.154607 0.154581 0.154528 0.154445 0.154327 0.154166 0.153955 0.153681 0.153332 
0.152889 0.15233 0.151623 0.15073 0.149604 0.148146 0.147862 0.149328 0.150502 
0.151455 0.152224 0.152843 0.153339 0.153734 0.154046 0.154288 0.154474 0.154612 
0.154709 0.154771 0.154801 0.154801 0.154771 0.154709 0.154612 0.154474 0.154288 
0.154046 0.153734 0.153339 0.152843 0.152224 0.151455 0.150502 0.149328 0.147862 
0.147618 0.149088 0.150298 0.151299 0.152121 0.152791 0.153335 0.153771 0.154119 
0.154392 0.154602 0.154759 0.15487 0.154941 0.154975 0.154975 0.154941 0.15487 
0.154759 0.154602 0.154392 0.154119 0.153771 0.153335 0.152791 0.152121 0.151299 
0.150298 0.149088 0.147618 0.14741 0.148883 0.150121 0.15116 0.152025 0.15274 
0.153325 0.1538 0.154181 0.154482 0.154714 0.154889 0.155013 0.155093 0.155132 
0.155132 0.155093 0.155013 0.154889 0.154714 0.154482 0.154181 0.1538 0.153325 
0.15274 0.152025 0.15116 0.150121 0.148883 0.14741 0.147234 0.14871 0.149968 
0.151037 0.151939 0.152691 0.153312 0.153821 0.154232 0.154558 0.154812 0.155004 
0.155141 0.155229 0.155272 0.155272 0.155229 0.155141 0.155004 0.154812 0.154558 
0.154232 0.153821 0.153312 0.152691 0.151939 0.151037 0.149968 0.14871 0.147234 
0.147087 0.148564 0.149838 0.150932 0.151862 0.152645 0.153298 0.153836 0.154273 
0.154623 0.154896 0.155103 0.155251 0.155347 0.155394 0.155394 0.155347 0.155251 
0.155103 0.154896 0.154623 0.154273 0.153836 0.153298 0.152645 0.151862 0.150932 
0.149838 0.148564 0.147087 0.146965 0.148442 0.149728 0.150841 0.151795 0.152605 
0.153283 0.153846 0.154306 0.154676 0.154967 0.155188 0.155346 0.155449 0.155499 
0.155499 0.155449 0.155346 0.155188 0.154967 0.154676 0.154306 0.153846 0.153283 
0.152605 0.151795 0.150841 0.149728 0.148442 0.146965 0.146865 0.148342 0.149638 
0.150766 0.151738 0.152569 0.153269 0.153853 0.154333 0.15472 0.155025 0.155258 
0.155426 0.155535 0.155588 0.155588 0.155535 0.155426 0.155258 0.155025 0.15472 
0.154333 0.153853 0.153269 0.152569 0.151738 0.150766 0.149638 0.148342 0.146865 
0.146785 0.148262 0.149564 0.150703 0.151691 0.152538 0.153256 0.153857 0.154353 
0.154755 0.155073 0.155316 0.155492 0.155606 0.155662 0.155662 0.155606 0.155492 
0.155316 0.155073 0.154755 0.154353 0.153857 0.153256 0.152538 0.151691 0.150703 
0.149564 0.148262 0.146785 0.146721 0.148198 0.149505 0.150654 0.151653 0.152512 
0.153244 0.153859 0.154368 0.154781 0.15511 0.155362 0.155544 0.155662 0.15572 
0.15572 0.155662 0.155544 0.155362 0.15511 0.154781 0.154368 0.153859 0.153244 
0.152512 0.151653 0.150654 0.149505 0.148198 0.146721 0.146673 0.148149 0.14946 
0.150615 0.151622 0.152492 0.153234 0.153859 0.154378 0.154801 0.155138 0.155396 
0.155584 0.155706 0.155765 0.155765 0.155706 0.155584 0.155396 0.155138 0.154801 
0.154378 0.153859 0.153234 0.152492 0.151622 0.150615 0.14946 0.148149 0.146673 
0.146638 0.148113 0.149427 0.150586 0.151599 0.152476 0.153226 0.153859 0.154385 
0.154815 0.155158 0.155421 0.155612 0.155737 0.155798 0.155798 0.155737 0.155612 
0.155421 0.155158 0.154815 0.154385 0.153859 0.153226 0.152476 0.151599 0.150586 
0.149427 0.148113 0.146638 0.146614 0.148089 0.149404 0.150566 0.151584 0.152465 
0.153219 0.153858 0.154389 0.154824 0.15517 0.155437 0.155631 0.155757 0.155819 
0.155819 0.155757 0.155631 0.155437 0.15517 0.154824 0.154389 0.153858 0.153219 
0.152465 0.151584 0.150566 0.149404 0.148089 0.146614 0.146601 0.148075 0.149391 
0.150554 0.151574 0.152457 0.153215 0.153856 0.15439 0.154827 0.155176 0.155445 
0.155641 0.155768 0.155831 0.155831 0.155768 0.155641 0.155445 0.155176 0.154827 
0.15439 0.153856 0.153215 0.152457 0.151574 0.150554 0.149391 0.148075 0.146601 
0.146597 0.14807 0.149385 0.150549 0.151569 0.152454 0.153212 0.153854 0.154389 
0.154827 0.155177 0.155446 0.155642 0.155769 0.155832 0.155832 0.155769 0.155642 
0.155446 0.155177 0.154827 0.154389 0.153854 0.153212 0.152454 0.151569 0.150549 
0.149385 0.14807 0.146597 0.1466 0.148073 0.149387 0.15055 0.151569 0.152453 
0.153211 0.153852 0.154386 0.154823 0.155172 0.155441 0.155636 0.155763 0.155826 
0.155826 0.155763 0.155636 0.155441 0.155172 0.154823 0.154386 0.153852 0.153211 
0.152453 0.151569 0.15055 0.149387 0.148073 0.1466 0.146611 0.148082 0.149396 
0.150557 0.151574 0.152456 0.153211 0.153849 0.154381 0.154816 0.155163 0.155429 
0.155623 0.15575 0.155812 0.155812 0.15575 0.155623 0.155429 0.155163 0.154816 
0.154381 0.153849 0.153211 0.152456 0.151574 0.150557 0.149396 0.148082 0.146611 
0.146628 0.148098 0.14941 0.150569 0.151583 0.152461 0.153212 0.153846 0.154374 
0.154805 0.155149 0.155413 0.155605 0.15573 0.155791 0.155791 0.15573 0.155605 
0.155413 0.155149 0.154805 0.154374 0.153846 0.153212 0.152461 0.151583 0.150569 
0.14941 0.148098 0.146628 0.146651 0.14812 0.149429 0.150585 0.151595 0.152468 
0.153214 0.153843 0.154366 0.154792 0.155132 0.155392 0.155581 0.155704 0.155764 
0.155764 0.155704 0.155581 0.155392 0.155132 0.154792 0.154366 0.153843 0.153214 
0.152468 0.151595 0.150585 0.149429 0.14812 0.146651 0.14668 0.148147 0.149453 
0.150605 0.15161 0.152478 0.153218 0.15384 0.154357 0.154777 0.155111 0.155367 
0.155552 0.155672 0.155731 0.155731 0.155672 0.155552 0.155367 0.155111 0.154777 
0.154357 0.15384 0.153218 0.152478 0.15161 0.150605 0.149453 0.148147 0.14668 
0.146714 0.148179 0.149482 0.15063 0.151629 0.152489 0.153222 0.153837 0.154346 
0.154759 0.155086 0.155337 0.155518 0.155635 0.155693 0.155693 0.155635 0.155518 
0.155337 0.155086 0.154759 0.154346 0.153837 0.153222 0.152489 0.151629 0.15063 
0.149482 0.148179 0.146714 0.146753 0.148217 0.149516 0.150658 0.15165 0.152503 
0.153227 0.153833 0.154334 0.154738 0.155058 0.155303 0.155479 0.155593 0.155649 
0.155649 0.155593 0.155479 0.155303 0.155058 0.154738 0.154334 0.153833 0.153227 
0.152503 0.15165 0.150658 0.149516 0.148217 0.146753 0.146797 0.148259 0.149555 
0.15069 0.151675 0.152519 0.153233 0.15383 0.15432 0.154715 0.155027 0.155264 
0.155435 0.155545 0.155599 0.155599 0.155545 0.155435 0.155264 0.155027 0.154715 
0.15432 0.15383 0.153233 0.152519 0.151675 0.15069 0.149555 0.148259 0.146797 
0.146848 0.148308 0.149598 0.150727 0.151703 0.152537 0.15324 0.153825 0.154304 
0.15469 0.154992 0.155221 0.155386 0.155492 0.155544 0.155544 0.155492 0.155386 
0.155221 0.154992 0.15469 0.154304 0.153825 0.15324 0.152537 0.151703 0.150727 
0.149598 0.148308 0.146848 0.146904 0.148362 0.149647 0.150768 0.151734 0.152557 
0.153248 0.153821 0.154287 0.154661 0.154953 0.155174 0.155331 0.155433 0.155482 
0.155482 0.155433 0.155331 0.155174 0.154953 0.154661 0.154287 0.153821 0.153248 
0.152557 0.151734 0.150768 0.149647 0.148362 0.146904 0.146968 0.148422 0.149702 
0.150814 0.15177 0.152579 0.153257 0.153815 0.154268 0.154629 0.15491 0.155121 
0.155271 0.155367 0.155414 0.155414 0.155367 0.155271 0.155121 0.15491 0.154629 
0.154268 0.153815 0.153257 0.152579 0.15177 0.150814 0.149702 0.148422 0.146968 
0.147039 0.148491 0.149763 0.150866 0.151809 0.152604 0.153266 0.153809 0.154247 
0.154594 0.154862 0.155062 0.155204 0.155295 0.155339 0.155339 0.155295 0.155204 
0.155062 0.154862 0.154594 0.154247 0.153809 0.153266 0.152604 0.151809 0.150866 
0.149763 0.148491 0.147039 0.147119 0.148567 0.149832 0.150924 0.151853 0.152632 
0.153277 0.153802 0.154223 0.154554 0.154808 0.154997 0.15513 0.155215 0.155256 
0.155256 0.155215 0.15513 0.154997 0.154808 0.154554 0.154223 0.153802 0.153277 
0.152632 0.151853 0.150924 0.149832 0.148567 0.147119 0.147209 0.148653 0.14991 
0.150988 0.151901 0.152663 0.153288 0.153794 0.154196 0.15451 0.154749 0.154925 
0.155049 0.155127 0.155164 0.155164 0.155127 0.155049 0.154925 0.154749 0.15451 
0.154196 0.153794 0.153288 0.152663 0.151901 0.150988 0.14991 0.148653 0.147209 
0.14731 0.14875 0.149997 0.151061 0.151956 0.152697 0.153301 0.153785 0.154166 
0.15446 0.154683 0.154845 0.154958 0.155029 0.155063 0.155063 0.155029 0.154958 
0.154845 0.154683 0.15446 0.154166 0.153785 0.153301 0.152697 0.151956 0.151061 
0.149997 0.14875 0.14731 0.147426 0.14886 0.150095 0.151143 0.152017 0.152735 
0.153314 0.153773 0.154131 0.154404 0.154608 0.154756 0.154857 0.15492 0.15495 
0.15495 0.15492 0.154857 0.154756 0.154608 0.154404 0.154131 0.153773 0.153314 
0.152735 0.152017 0.151143 0.150095 0.14886 0.147426 0.147557 0.148985 0.150207 
0.151235 0.152086 0.152776 0.153327 0.153759 0.154091 0.154341 0.154525 0.154656 
0.154744 0.154799 0.154825 0.154825 0.154799 0.154744 0.154656 0.154525 0.154341 
0.154091 0.153759 0.153327 0.152776 0.152086 0.151235 0.150207 0.148985 0.147557 
0.147708 0.149128 0.150334 0.15134 0.152162 0.152822 0.153341 0.153742 0.154044 
0.154268 0.15443 0.154544 0.154619 0.154665 0.154687 0.154687 0.154665 0.154619 
0.154544 0.15443 0.154268 0.154044 0.153742 0.153341 0.152822 0.152162 0.15134 
0.150334 0.149128 0.147708 0.147882 0.149293 0.15048 0.151459 0.152248 0.152871 
0.153354 0.153719 0.153989 0.154185 0.154323 0.154418 0.15448 0.154517 0.154534 
0.154534 0.154517 0.15448 0.154418 0.154323 0.154185 0.153989 0.153719 0.153354 
0.152871 0.152248 0.151459 0.15048 0.149293 0.147882 0.148085 0.149485 0.150649 
0.151594 0.152344 0.152925 0.153365 0.15369 0.153924 0.154089 0.154202 0.154277 
0.154324 0.154351 0.154364 0.154364 0.154351 0.154324 0.154277 0.154202 0.154089 
0.153924 0.15369 0.153365 0.152925 0.152344 0.151594 0.150649 0.149485 0.148085 
0.148323 0.149709 0.150844 0.151748 0.15245 0.15298 0.153371 0.153651 0.153846 
0.153977 0.154063 0.154118 0.15415 0.154168 0.154176 0.154176 0.154168 0.15415 
0.154118 0.154063 0.153977 0.153846 0.153651 0.153371 0.15298 0.15245 0.151748 
0.150844 0.149709 0.148323 0.148607 0.149974 0.151071 0.151923 0.152566 0.153036 
0.15337 0.153598 0.15375 0.153846 0.153905 0.153939 0.153957 0.153966 0.153969 
0.153969 0.153966 0.153957 0.153939 0.153905 0.153846 0.15375 0.153598 0.15337 
0.153036 0.152566 0.151923 0.151071 0.149974 0.148607 0.14895 0.150292 0.151337 
0.152122 0.152691 0.153088 0.153355 0.153527 0.153632 0.153692 0.153723 0.153738 
0.153743 0.153743 0.153743 0.153743 0.153743 0.153743 0.153738 0.153723 0.153692 
0.153632 0.153527 0.153355 0.153088 0.152691 0.152122 0.151337 0.150292 0.14895 
0.149371 0.150675 0.151649 0.152343 0.152817 0.153126 0.153317 0.153428 0.153486 
0.153511 0.153518 0.153515 0.153509 0.153504 0.1535 0.1535 0.153504 0.153509 
0.153515 0.153518 0.153511 0.153486 0.153428 0.153317 0.153126 0.152817 0.152343 
0.151649 0.150675 0.149371 0.149907 0.15115 0.152014 0.152581 0.152932 0.153136 
0.153243 0.153292 0.153305 0.1533 0.153288 0.153273 0.153259 0.153249 0.153244 
0.153244 0.153249 0.153259 0.153273 0.153288 0.1533 0.153305 0.153292 0.153243 
0.153136 0.152932 0.152581 0.152014 0.15115 0.149907 0.150634 0.151754 0.152428 
0.152803 0.152995 0.153079 0.153103 0.153096 0.153077 0.153053 0.15303 0.15301 
0.152995 0.152985 0.15298 0.15298 0.152985 0.152995 0.15301 0.15303 0.153053 
0.153077 0.153096 0.153103 0.153079 0.152995 0.152803 0.152428 0.151754 0.150634 
0.151534 0.152354 0.152733 0.152889 0.152938 0.152938 0.152918 0.152893 0.152868 
0.152847 0.15283 0.152817 0.152808 0.152802 0.152799 0.152799 0.152802 0.152808 
0.152817 0.15283 0.152847 0.152868 0.152893 0.152918 0.152938 0.152938 0.152889 
0.152733 0.152354 0.151534 0.18411 0.183885 0.184001 0.184069 0.184111 0.184143 
0.184167 0.184187 0.184203 0.184216 0.184226 0.184234 0.18424 0.184244 0.184246 
0.184246 0.184244 0.18424 0.184234 0.184226 0.184216 0.184203 0.184187 0.184167 
0.184143 0.184111 0.184069 0.184001 0.183885 0.18411 0.21632 0.216426 0.216492 
0.216548 0.216588 0.216619 0.216645 0.216666 0.216684 0.216698 0.216709 0.216718 
0.216724 0.216728 0.216731 0.216731 0.216728 0.216724 0.216718 0.216709 0.216698 
0.216684 0.216666 0.216645 0.216619 0.216588 0.216548 0.216492 0.216426 0.21632 
0.20851 0.208509 0.208495 0.208521 0.208548 0.208573 0.208594 0.208612 0.208627 
0.208639 0.208649 0.208657 0.208663 0.208667 0.208669 0.208669 0.208667 0.208663 
0.208657 0.208649 0.208639 0.208627 0.208612 0.208594 0.208573 0.208548 0.208521 
0.208495 0.208509 0.20851 0.193136 0.193222 0.193183 0.193193 0.193211 0.193229 
0.193245 0.19326 0.193272 0.193282 0.193291 0.193297 0.193302 0.193305 0.193307 
0.193307 0.193305 0.193302 0.193297 0.193291 0.193282 0.193272 0.19326 0.193245 
0.193229 0.193211 0.193193 0.193183 0.193222 0.193136 0.180181 0.180362 0.18034 
0.18035 0.180363 0.180376 0.180389 0.180401 0.180411 0.18042 0.180427 0.180433 
0.180437 0.18044 0.180441 0.180441 0.18044 0.180437 0.180433 0.180427 0.18042 
0.180411 0.180401 0.180389 0.180376 0.180363 0.18035 0.18034 0.180362 0.180181 
0.168612 0.168959 0.16897 0.168983 0.168994 0.169005 0.169016 0.169026 0.169034 
0.169042 0.169048 0.169053 0.169056 0.169059 0.16906 0.16906 0.169059 0.169056 
0.169053 0.169048 0.169042 0.169034 0.169026 0.169016 0.169005 0.168994 0.168983 
0.16897 0.168959 0.168612 0.151284 0.151938 0.151975 0.151984 0.151993 0.152002 
0.152011 0.152019 0.152027 0.152033 0.152038 0.152042 0.152045 0.152047 0.152048 
0.152048 0.152047 0.152045 0.152042 0.152038 0.152033 0.152027 0.152019 0.152011 
0.152002 0.151993 0.151984 0.151975 0.151938 0.151284 0.126416 0.126935 0.126923 
0.126922 0.126931 0.126942 0.126953 0.126962 0.12697 0.126977 0.126983 0.126987 
0.12699 0.126992 0.126993 0.126993 0.126992 0.12699 0.126987 0.126983 0.126977 
0.12697 0.126962 0.126953 0.126942 0.126931 0.126922 0.126923 0.126935 0.126416 
0.259809 0.262897 0.265719 0.268283 0.270599 0.272674 0.274517 0.276136 0.277536 
0.278724 0.279705 0.280485 0.281066 0.281452 0.281644 0.281644 0.281452 0.281066 
0.280485 0.279705 0.278724 0.277536 0.276136 0.274517 0.272674 0.270599 0.268283 
0.265719 0.262897 0.259809 0.259769 0.262856 0.265676 0.268237 0.270549 0.27262 
0.274459 0.276072 0.277468 0.278651 0.279629 0.280405 0.280983 0.281367 0.281558 
0.281558 0.281367 0.280983 0.280405 0.279629 0.278651 0.277468 0.276072 0.274459 
0.27262 0.270549 0.268237 0.265676 0.262856 0.259769 0.259767 0.262853 0.265671 
0.268229 0.270538 0.272606 0.274441 0.27605 0.277441 0.278621 0.279594 0.280367 
0.280943 0.281325 0.281516 0.281516 0.281325 0.280943 0.280367 0.279594 0.278621 
0.277441 0.27605 0.274441 0.272606 0.270538 0.268229 0.265671 0.262853 0.259767 
0.259757 0.262842 0.265657 0.268213 0.270518 0.272581 0.274411 0.276016 0.277402 
0.278577 0.279546 0.280315 0.280888 0.281268 0.281458 0.281458 0.281268 0.280888 
0.280315 0.279546 0.278577 0.277402 0.276016 0.274411 0.272581 0.270518 0.268213 
0.265657 0.262842 0.259757 0.259753 0.262837 0.26565 0.268202 0.270503 0.272562 
0.274387 0.275986 0.277367 0.278536 0.279501 0.280266 0.280836 0.281214 0.281402 
0.281402 0.281214 0.280836 0.280266 0.279501 0.278536 0.277367 0.275986 0.274387 
0.272562 0.270503 0.268202 0.26565 0.262837 0.259753 0.259751 0.262833 0.265644 
0.268193 0.27049 0.272543 0.274362 0.275955 0.277331 0.278495 0.279455 0.280215 
0.280782 0.281157 0.281345 0.281345 0.281157 0.280782 0.280215 0.279455 0.278495 
0.277331 0.275955 0.274362 0.272543 0.27049 0.268193 0.265644 0.262833 0.259751 
0.259751 0.262832 0.26564 0.268186 0.270478 0.272526 0.274339 0.275926 0.277295 
0.278454 0.279408 0.280164 0.280727 0.2811 0.281286 0.281286 0.2811 0.280727 
0.280164 0.279408 0.278454 0.277295 0.275926 0.274339 0.272526 0.270478 0.268186 
0.26564 0.262832 0.259751 0.259754 0.262833 0.265639 0.26818 0.270467 0.27251 
0.274317 0.275898 0.27726 0.278412 0.279361 0.280112 0.280671 0.281042 0.281226 
0.281226 0.281042 0.280671 0.280112 0.279361 0.278412 0.27726 0.275898 0.274317 
0.27251 0.270467 0.26818 0.265639 0.262833 0.259754 0.259759 0.262837 0.26564 
0.268177 0.270459 0.272496 0.274296 0.27587 0.277225 0.278371 0.279313 0.280059 
0.280614 0.280982 0.281165 0.281165 0.280982 0.280614 0.280059 0.279313 0.278371 
0.277225 0.27587 0.274296 0.272496 0.270459 0.268177 0.26564 0.262837 0.259759 
0.259767 0.262844 0.265643 0.268176 0.270453 0.272483 0.274276 0.275842 0.27719 
0.278329 0.279265 0.280006 0.280556 0.280921 0.281102 0.281102 0.280921 0.280556 
0.280006 0.279265 0.278329 0.27719 0.275842 0.274276 0.272483 0.270453 0.268176 
0.265643 0.262844 0.259767 0.259778 0.262852 0.265649 0.268177 0.270448 0.272471 
0.274257 0.275816 0.277156 0.278287 0.279216 0.279951 0.280497 0.280858 0.281038 
0.281038 0.280858 0.280497 0.279951 0.279216 0.278287 0.277156 0.275816 0.274257 
0.272471 0.270448 0.268177 0.265649 0.262852 0.259778 0.259791 0.262864 0.265657 
0.268181 0.270445 0.272461 0.274239 0.27579 0.277122 0.278245 0.279167 0.279895 
0.280436 0.280794 0.280973 0.280973 0.280794 0.280436 0.279895 0.279167 0.278245 
0.277122 0.27579 0.274239 0.272461 0.270445 0.268181 0.265657 0.262864 0.259791 
0.259807 0.262878 0.265668 0.268186 0.270444 0.272453 0.274223 0.275764 0.277087 
0.278202 0.279117 0.279839 0.280374 0.280729 0.280905 0.280905 0.280729 0.280374 
0.279839 0.279117 0.278202 0.277087 0.275764 0.274223 0.272453 0.270444 0.268186 
0.265668 0.262878 0.259807 0.259826 0.262895 0.265681 0.268194 0.270445 0.272446 
0.274207 0.275739 0.277053 0.278159 0.279066 0.279781 0.280311 0.280662 0.280836 
0.280836 0.280662 0.280311 0.279781 0.279066 0.278159 0.277053 0.275739 0.274207 
0.272446 0.270445 0.268194 0.265681 0.262895 0.259826 0.259847 0.262915 0.265697 
0.268204 0.270448 0.27244 0.274192 0.275715 0.277019 0.278116 0.279014 0.279722 
0.280246 0.280593 0.280765 0.280765 0.280593 0.280246 0.279722 0.279014 0.278116 
0.277019 0.275715 0.274192 0.27244 0.270448 0.268204 0.265697 0.262915 0.259847 
0.259871 0.262937 0.265715 0.268217 0.270453 0.272437 0.274179 0.275691 0.276985 
0.278072 0.278961 0.279661 0.28018 0.280523 0.280693 0.280693 0.280523 0.28018 
0.279661 0.278961 0.278072 0.276985 0.275691 0.274179 0.272437 0.270453 0.268217 
0.265715 0.262937 0.259871 0.259899 0.262962 0.265736 0.268231 0.27046 0.272434 
0.274166 0.275668 0.276951 0.278028 0.278908 0.2796 0.280112 0.28045 0.280618 