# vtk DataFile Version 5.1
vtk output
ASCII
DATASET UNSTRUCTURED_GRID
POINTS 9359 double
-10.1 1.4499999993 8.6074358308e-08 -10.049999999 1.4499999993 1.0829877084e-07 -10.049999999 1.5 -4.2207125261e-07 
-9.9999999985 1.4499999993 1.1536372568e-07 -9.9999999985 1.5 -4.417981927e-07 -9.9499999978 1.4499999993 1.1746647743e-07 
-9.9499999978 1.5 -4.49126901e-07 -9.899999997 1.4499999993 1.1845600767e-07 -9.899999997 1.5 -4.5235742618e-07 
-9.8499999963 1.4499999993 1.1882162454e-07 -9.8499999963 1.5 -4.5398209636e-07 -9.7999999955 1.4499999993 1.1905809316e-07 
-9.7999999955 1.5 -4.5500223678e-07 -9.7499999948 1.4499999993 1.1926728405e-07 -9.7499999948 1.5 -4.5569709073e-07 
-9.699999994 1.4499999993 1.1940552724e-07 -9.699999994 1.5 -4.5634646995e-07 -9.6499999933 1.4499999993 1.1957651225e-07 
-9.6499999933 1.5 -4.570576948e-07 -9.5999999925 1.4499999993 1.1986209358e-07 -9.5999999925 1.5 -4.5790716285e-07 
-9.5499999918 1.4499999993 1.2016040785e-07 -9.5499999918 1.5 -4.5881665756e-07 -9.4999999911 1.4499999993 1.2036777264e-07 
-9.4999999911 1.5 -4.6006812227e-07 -9.4499999903 1.4499999993 1.2068609578e-07 -9.4499999903 1.5 -4.6140507948e-07 
-9.3999999896 1.4499999993 1.2116267101e-07 -9.3999999896 1.5 -4.6286208999e-07 -9.3499999888 1.4499999993 1.2152101192e-07 
-9.3499999888 1.5 -4.6463924264e-07 -9.2999999881 1.4499999993 1.2201759603e-07 -9.2999999881 1.5 -4.6643822316e-07 
-9.2499999873 1.4499999993 1.2262513849e-07 -9.2499999873 1.5 -4.6853006097e-07 -9.1999999866 1.4499999993 1.2313445552e-07 
-9.1999999866 1.5 -4.7071316089e-07 -9.1499999858 1.4499999993 1.2372562708e-07 -9.1499999858 1.5 -4.7313028517e-07 
-9.0999999851 1.4499999993 1.2443685193e-07 -9.0999999851 1.5 -4.7556591198e-07 -9.0499999844 1.4499999993 1.2516626668e-07 
-9.0499999844 1.5 -4.781888947e-07 -8.9999999836 1.4499999993 1.2597207899e-07 -8.9999999836 1.5 -4.8104652706e-07 
-8.9499999829 1.4499999993 1.2671240768e-07 -8.9499999829 1.5 -4.8408060138e-07 -8.8999999821 1.4499999993 1.2747456424e-07 
-8.8999999821 1.5 -4.8717288337e-07 -8.8499999814 1.4499999993 1.2840042984e-07 -8.8499999814 1.5 -4.905489277e-07 
-8.7999999806 1.4499999993 1.2926444981e-07 -8.7999999806 1.5 -4.9403229241e-07 -8.7499999799 1.4499999993 1.3018667744e-07 
-8.7499999799 1.5 -4.976047876e-07 -8.6999999791 1.4499999993 1.3071418437e-07 -8.6999999791 1.5 -4.9949835557e-07 
-8.6499999784 1.4499999993 1.3178556912e-07 -8.6499999784 1.5 -5.034237347e-07 -8.5999999776 1.4499999993 1.3279328925e-07 
-8.5999999776 1.5 -5.0736548474e-07 -8.5499999769 1.4499999993 1.3396108045e-07 -8.5499999769 1.5 -5.1160009207e-07 
-8.4999999762 1.4499999993 1.3501791329e-07 -8.4999999762 1.5 -5.1591109695e-07 -8.4499999754 1.4499999993 1.3617479055e-07 
-8.4499999754 1.5 -5.2056770983e-07 -8.3999999747 1.4499999993 1.3742261729e-07 -8.3999999747 1.5 -5.2525160754e-07 
-8.3499999739 1.4499999993 1.3879049732e-07 -8.3499999739 1.5 -5.2989730648e-07 -8.2999999732 1.4499999993 1.4006742788e-07 
-8.2999999732 1.5 -5.3501230468e-07 -8.2499999724 1.4499999993 1.4137528126e-07 -8.2499999724 1.5 -5.4020370044e-07 
-8.1999999717 1.4499999993 1.4282865379e-07 -8.1999999717 1.5 -5.4558273632e-07 -8.1499999709 1.4499999993 1.4433295803e-07 
-8.1499999709 1.5 -5.5106124819e-07 -8.0999999702 1.4499999993 1.4576814067e-07 -8.0999999702 1.5 -5.5682380662e-07 
-8.0499999695 1.4499999993 1.4738522225e-07 -8.0499999695 1.5 -5.6277190197e-07 -7.9999999687 1.4499999993 1.4905141654e-07 
-7.9999999687 1.5 -5.6889825828e-07 -7.949999968 1.4499999993 1.5059210057e-07 -7.949999968 1.5 -5.7515558183e-07 
-7.8999999672 1.4499999993 1.523037696e-07 -7.8999999672 1.5 -5.816657449e-07 -7.8499999665 1.4499999993 1.5408728871e-07 
-7.8499999665 1.5 -5.8836599237e-07 -7.7999999657 1.4499999993 1.5581805712e-07 -7.7999999657 1.5 -5.9524904827e-07 
-7.749999965 1.4499999993 1.5775800932e-07 -7.749999965 1.5 -6.024022241e-07 -7.6999999642 1.4499999993 1.5962520195e-07 
-7.6999999642 1.5 -6.0980642047e-07 -7.6499999635 1.4499999993 1.615733396e-07 -7.6499999635 1.5 -6.1740433921e-07 
-7.5999999627 1.4499999993 1.6366426792e-07 -7.5999999627 1.5 -6.2521780819e-07 -7.549999962 1.4499999993 1.6573154937e-07 
-7.549999962 1.5 -6.3326075406e-07 -7.4999999613 1.4499999993 1.6792979807e-07 -7.4999999613 1.5 -6.4163509705e-07 
-7.4499999605 1.4499999993 1.7021626775e-07 -7.4499999605 1.5 -6.5012886807e-07 -7.3999999598 1.4499999993 1.7251910833e-07 
-7.3999999598 1.5 -6.58982799e-07 -7.349999959 1.4499999993 1.7488652304e-07 -7.349999959 1.5 -6.6811685429e-07 
-7.2999999583 1.4499999993 1.7737762903e-07 -7.2999999583 1.5 -6.7762744038e-07 -7.2499999575 1.4499999993 1.7987510148e-07 
-7.2499999575 1.5 -6.873235634e-07 -7.1999999568 1.4499999993 1.8252627854e-07 -7.1999999568 1.5 -6.9734073804e-07 
-7.149999956 1.4499999993 1.8526021961e-07 -7.149999956 1.5 -7.0768533078e-07 -7.0999999553 1.4499999993 1.8658262491e-07 
-7.0999999553 1.5 -7.1295403359e-07 -7.0499999546 1.4499999993 1.8945389968e-07 -7.0499999546 1.5 -7.2385614658e-07 
-6.9999999538 1.4499999993 1.9239975302e-07 -6.9999999538 1.5 -7.3503292697e-07 -6.9499999531 1.4499999993 1.9542018492e-07 
-6.9499999531 1.5 -7.4662807492e-07 -6.8999999523 1.4499999993 1.9858795497e-07 -6.8999999523 1.5 -7.5860521065e-07 
-6.8499999516 1.4499999993 2.0181666116e-07 -6.8499999516 1.5 -7.7095160123e-07 -6.7999999508 1.4499999993 2.0516542065e-07 
-6.7999999508 1.5 -7.837791145e-07 -6.7499999501 1.4499999993 2.0862695749e-07 -6.7499999501 1.5 -7.9700043898e-07 
-6.6999999493 1.4499999993 2.1218308177e-07 -6.6999999493 1.5 -8.1070106717e-07 -6.6499999486 1.4499999993 2.1583925047e-07 
-6.6499999486 1.5 -8.248237009e-07 -6.5999999478 1.4499999993 2.1971187891e-07 -6.5999999478 1.5 -8.3951294982e-07 
-6.5499999471 1.4499999993 2.2368728025e-07 -6.5499999471 1.5 -8.5461630306e-07 -6.4999999464 1.4499999993 2.2778546338e-07 
-6.4999999464 1.5 -8.7033299678e-07 -6.4499999456 1.4499999993 2.3204917454e-07 -6.4499999456 1.5 -8.866893495e-07 
-6.3999999449 1.4499999993 2.3647477576e-07 -6.3999999449 1.5 -9.0359958449e-07 -6.3499999441 1.4499999993 2.4112136998e-07 
-6.3499999441 1.5 -9.210891676e-07 -6.2999999434 1.4499999993 2.4580799618e-07 -6.2999999434 1.5 -9.3937637757e-07 
-6.2499999426 1.4499999993 2.507656518e-07 -6.2499999426 1.5 -9.5826294455e-07 -6.1999999419 1.4499999993 2.5593521968e-07 
-6.1999999419 1.5 -9.779780612e-07 -6.1499999411 1.4499999993 2.6132670428e-07 -6.1499999411 1.5 -9.9841759038e-07 
-6.0999999404 1.4499999993 2.6687143873e-07 -6.0999999404 1.5 -1.0197097708e-06 -6.0499999397 1.4499999993 2.7268038139e-07 
-6.0499999397 1.5 -1.0419364571e-06 -5.9999999389 1.4499999993 2.7872988539e-07 -5.9999999389 1.5 -1.0650730928e-06 
-5.9499999382 1.4499999993 2.8504905458e-07 -5.9499999382 1.5 -1.0891874354e-06 -5.8999999374 1.4499999993 2.9164243642e-07 
-5.8999999374 1.5 -1.1144335303e-06 -5.8499999367 1.4499999993 2.9856505535e-07 -5.8499999367 1.5 -1.1407671536e-06 
-5.7999999359 1.4499999993 3.0575733945e-07 -5.7999999359 1.5 -1.1683662251e-06 -5.7499999352 1.4499999993 3.1334025152e-07 
-5.7499999352 1.5 -1.1972440461e-06 -5.6999999344 1.4499999993 3.2123102756e-07 -5.6999999344 1.5 -1.2275293102e-06 
-5.6499999337 1.4499999993 3.2958428164e-07 -5.6499999337 1.5 -1.2593243355e-06 -5.5999999329 1.4499999993 3.3830542634e-07 
-5.5999999329 1.5 -1.2927246189e-06 -5.5499999322 1.4499999993 3.4286426853e-07 -5.5499999322 1.5 -1.3100749356e-06 
-5.4999999315 1.4499999993 3.5229300011e-07 -5.4999999315 1.5 -1.3462024526e-06 -5.4499999307 1.4499999993 3.6226970224e-07 
-5.4499999307 1.5 -1.3843152828e-06 -5.39999993 1.4499999993 3.7282620724e-07 -5.39999993 1.5 -1.4245258626e-06 
-5.3499999292 1.4499999993 3.8394250623e-07 -5.3499999292 1.5 -1.4671311419e-06 -5.2999999285 1.4499999993 3.9573956201e-07 
-5.2999999285 1.5 -1.5123061985e-06 -5.2499999277 1.4499999993 4.083242402e-07 -5.2499999277 1.5 -1.5602452095e-06 
-5.199999927 1.4499999993 4.2166789171e-07 -5.199999927 1.5 -1.6113237962e-06 -5.1499999262 1.4499999993 4.359619652e-07 
-5.1499999262 1.5 -1.6657975266e-06 -5.0999999255 1.4499999993 4.5123510972e-07 -5.0999999255 1.5 -1.724088861e-06 
-5.0499999247 1.4499999993 4.6759600991e-07 -5.0499999247 1.5 -1.7866220787e-06 -4.999999924 1.4499999993 4.8519063967e-07 
-4.999999924 1.5 -1.8539178654e-06 -4.9499999233 1.4499999993 5.0421772357e-07 -4.9499999233 1.5 -1.9265178253e-06 
-4.8999999225 1.4499999993 5.2477912504e-07 -4.8999999225 1.5 -2.0050929379e-06 -4.8499999218 1.4499999993 5.4715542319e-07 
-4.8499999218 1.5 -2.0905376914e-06 -4.799999921 1.4499999993 5.716024134e-07 -4.799999921 1.5 -2.1837604436e-06 
-4.7499999203 1.4499999993 5.983772553e-07 -4.7499999203 1.5 -2.2859858291e-06 -4.6999999195 1.4499999993 6.2787398747e-07 
-4.6999999195 1.5 -2.39858241e-06 -4.6499999188 1.4499999993 6.6055508796e-07 -4.6499999188 1.5 -2.523319381e-06 
-4.599999918 1.4499999993 6.9698558036e-07 -4.599999918 1.5 -2.6622569749e-06 -4.5499999173 1.4499999993 7.3782985055e-07 
-4.5499999173 1.5 -2.8180729714e-06 -4.4999999166 1.4499999993 7.8398761616e-07 -4.4999999166 1.5 -2.9940770219e-06 
-4.4499999158 1.4499999993 8.3654617811e-07 -4.4499999158 1.5 -3.1944391594e-06 -4.3999999151 1.4499999993 8.9692866823e-07 
-4.3999999151 1.5 -3.4245747429e-06 -4.3499999143 1.4499999993 9.6698613561e-07 -4.3499999143 1.5 -3.6914882457e-06 
-4.2999999136 1.4499999993 1.0492428828e-06 -4.2999999136 1.5 -4.0044587877e-06 -4.2499999128 1.4499999993 1.1469021501e-06 
-4.2499999128 1.5 -4.3760551307e-06 -4.1999999121 1.4499999993 1.264614184e-06 -4.1999999121 1.5 -4.8233941925e-06 
-4.1499999113 1.4499999993 1.4087047475e-06 -4.1499999113 1.5 -5.3704866332e-06 -4.0999999106 1.4499999993 1.5884165805e-06 
-4.0999999106 1.5 -6.0518841565e-06 -4.0499999098 1.4499999993 1.8173982426e-06 -4.0499999098 1.5 -6.9186639848e-06 
-3.9999999091 1.4499999993 2.1167159048e-06 -3.9999999091 1.5 -8.0490499386e-06 -3.9499999084 1.4499999993 2.3025834253e-06 
[...]
CELL_DATA 8990
FIELD FieldData 4
Water_Depth_m 1 8990 float
0.584001 0.584002 0.584003 0.584004 0.584006 0.584007 0.584008 0.584009 0.58401 
0.584011 0.584012 0.584013 0.584015 0.584016 0.584017 0.584018 0.584019 0.58402 
0.584021 0.584022 0.584024 0.584025 0.584026 0.584027 0.584028 0.584029 0.58403 
0.584031 0.584033 0.584034 0.584035 0.584036 0.584037 0.584038 0.584039 0.58404 
0.584042 0.584043 0.584044 0.584045 0.584046 0.584047 0.584048 0.58405 0.584051 
0.584052 0.584053 0.584054 0.584055 0.584056 0.584057 0.584059 0.58406 0.584061 
0.584062 0.584063 0.584064 0.584065 0.584066 0.584068 0.584069 0.58407 0.584071 
0.584072 0.584073 0.584074 0.584075 0.584077 0.584078 0.584079 0.58408 0.584081 
0.584082 0.584083 0.584085 0.584086 0.584087 0.584088 0.584089 0.58409 0.584091 
0.584092 0.584093 0.584095 0.584096 0.584097 0.584098 0.584099 0.5841 0.584101 
0.584102 0.584103 0.584105 0.584106 0.584107 0.584108 0.584109 0.58411 0.584111 
0.584112 0.584113 0.584114 0.584115 0.584116 0.584117 0.584118 0.584119 0.58412 
0.584121 0.584122 0.584123 0.584124 0.584125 0.584126 0.584127 0.584127 0.584128 
0.584129 0.58413 0.58413 0.584131 0.584131 0.584132 0.584132 0.584133 0.584135 
0.584138 0.584145 0.584162 0.584233 0.584466 0.584302 0.577696 0.561557 0.537945 
0.508804 0.475601 0.439574 0.401829 0.363444 0.326393 0.29082 0.258109 0.22987 
0.207633 0.192946 0.185186 0.183416 0.18714 0.192445 0.198393 0.202921 0.206429 
0.210451 0.217757 0.226718 0.233939 0.238356 0.240559 0.242471 0.243236 0.240502 
0.234934 0.234498 0.235171 0.238335 0.241844 0.245513 0.248693 0.252308 0.255761 
0.258296 0.261651 0.264288 0.266764 0.269938 0.271886 0.273387 0.274149 0.275441 
0.281054 0.288762 0.293397 0.298209 0.298807 0.307322 0.316464 0.326297 0.341398 
0.361537 0.385125 0.409233 0.445476 0.474629 0.498594 0.526999 0.545613 0.555539 
0.563715 0.588267 0.660083 0.645771 0.617495 0.586958 0.527339 0.503242 0.481637 
0.44002 0.405792 0.373148 0.370172 0.370166 0.370161 0.370163 0.370168 0.370173 
0.370178 0.370183 0.370187 0.370192 0.370196 0.370201 0.370206 0.37021 0.370215 
0.37022 0.370225 0.37023 0.370235 0.37024 0.370245 0.37025 0.370255 0.370261 
0.370266 0.370271 0.370276 0.370282 0.370287 0.370292 0.370297 0.370303 0.370308 
0.370314 0.370319 0.370324 0.37033 0.370335 0.370341 0.370346 0.370351 0.370357 
0.370362 0.370368 0.370373 0.370379 0.370384 0.37039 0.370395 0.3704 0.370406 
0.370411 0.370417 0.370422 0.370428 0.370433 0.370439 0.370444 0.37045 0.370455 
0.370461 0.370466 0.370472 0.370477 0.370483 0.370488 0.370493 0.370499 0.370504 
0.37051 0.370515 0.37052 0.370526 0.370531 0.370536 0.370541 0.370546 0.370551 
0.370556 0.37056 0.370564 0.370567 0.370569 0.370571 0.370562 0.370533 0.369425 
0.366809 0.363543 0.584001 0.584002 0.584003 0.584004 0.584005 0.584006 0.584007 
0.584008 0.58401 0.584011 0.584012 0.584013 0.584014 0.584015 0.584016 0.584017 
0.584019 0.58402 0.584021 0.584022 0.584023 0.584024 0.584025 0.584027 0.584028 
0.584029 0.58403 0.584031 0.584032 0.584033 0.584034 0.584035 0.584037 0.584038 
0.584039 0.58404 0.584041 0.584042 0.584043 0.584044 0.584046 0.584047 0.584048 
0.584049 0.58405 0.584051 0.584052 0.584053 0.584055 0.584056 0.584057 0.584058 
0.584059 0.58406 0.584061 0.584062 0.584064 0.584065 0.584066 0.584067 0.584068 
0.584069 0.58407 0.584071 0.584072 0.584074 0.584075 0.584076 0.584077 0.584078 
0.584079 0.58408 0.584081 0.584082 0.584084 0.584085 0.584086 0.584087 0.584088 
0.584089 0.58409 0.584091 0.584092 0.584094 0.584095 0.584096 0.584097 0.584098 
0.584099 0.5841 0.584101 0.584102 0.584103 0.584104 0.584105 0.584106 0.584107 
0.584108 0.584109 0.58411 0.584112 0.584112 0.584113 0.584114 0.584115 0.584116 
0.584117 0.584118 0.584119 0.58412 0.584121 0.584121 0.584122 0.584123 0.584123 
0.584124 0.584124 0.584125 0.584125 0.584125 0.584125 0.584124 0.584124 0.584123 
0.584121 0.584119 0.584117 0.584114 0.58411 0.584107 0.584136 0.584056 0.578145 
0.562881 0.539878 0.510923 0.477553 0.4411 0.402757 0.363665 0.325449 0.289103 
0.255885 0.227464 0.20563 0.190728 0.182777 0.181891 0.18649 0.193215 0.200208 
0.205339 0.209397 0.215615 0.221799 0.229222 0.232844 0.238025 0.240804 0.241287 
0.241261 0.238735 0.234201 0.233622 0.236115 0.239668 0.243123 0.245376 0.248183 
0.251398 0.254984 0.257738 0.260769 0.263466 0.266247 0.269477 0.271922 0.273954 
0.275598 0.278394 0.283951 0.291335 0.294848 0.30369 0.306053 0.312306 0.320567 
0.329856 0.341023 0.354984 0.38116 0.412187 0.44953 0.486907 0.512894 0.540576 
0.55077 0.555106 0.560817 0.587678 0.659456 0.645323 0.616945 0.586899 0.527668 
0.503241 0.481482 0.439907 0.405885 0.373718 0.370193 0.370177 0.370164 0.370164 
0.370166 0.37017 0.370174 0.370178 0.370183 0.370187 0.370192 0.370197 0.370201 
0.370206 0.370211 0.370216 0.370221 0.370226 0.370232 0.370237 0.370242 0.370247 
0.370252 0.370258 0.370263 0.370268 0.370274 0.370279 0.370284 0.37029 0.370295 
0.370301 0.370306 0.370311 0.370317 0.370322 0.370328 0.370333 0.370339 0.370344 
0.37035 0.370355 0.370361 0.370366 0.370372 0.370377 0.370383 0.370388 0.370394 
0.370399 0.370405 0.37041 0.370416 0.370421 0.370427 0.370432 0.370438 0.370443 
0.370449 0.370454 0.37046 0.370465 0.370471 0.370476 0.370481 0.370487 0.370492 
0.370498 0.370503 0.370509 0.370514 0.370519 0.370525 0.37053 0.370535 0.37054 
0.370545 0.37055 0.370555 0.370559 0.370563 0.370567 0.37057 0.370571 0.370568 
0.370543 0.369419 0.366839 0.363531 0.584001 0.584002 0.584003 0.584004 0.584005 
0.584006 0.584007 0.584009 0.58401 0.584011 0.584012 0.584013 0.584014 0.584015 
0.584016 0.584018 0.584019 0.58402 0.584021 0.584022 0.584023 0.584024 0.584025 
0.584027 0.584028 0.584029 0.58403 0.584031 0.584032 0.584033 0.584034 0.584036 
0.584037 0.584038 0.584039 0.58404 0.584041 0.584042 0.584043 0.584045 0.584046 
0.584047 0.584048 0.584049 0.58405 0.584051 0.584052 0.584054 0.584055 0.584056 
0.584057 0.584058 0.584059 0.58406 0.584061 0.584062 0.584064 0.584065 0.584066 
0.584067 0.584068 0.584069 0.58407 0.584071 0.584073 0.584074 0.584075 0.584076 
0.584077 0.584078 0.584079 0.58408 0.584081 0.584083 0.584084 0.584085 0.584086 
0.584087 0.584088 0.584089 0.58409 0.584091 0.584092 0.584094 0.584095 0.584096 
0.584097 0.584098 0.584099 0.5841 0.584101 0.584102 0.584103 0.584104 0.584105 
0.584106 0.584108 0.584109 0.58411 0.584111 0.584112 0.584113 0.584114 0.584115 
0.584116 0.584116 0.584117 0.584118 0.584119 0.58412 0.584121 0.584122 0.584122 
0.584123 0.584124 0.584124 0.584125 0.584125 0.584125 0.584125 0.584125 0.584125 
0.584125 0.584124 0.584123 0.584121 0.58412 0.584117 0.584116 0.584118 0.584205 
0.584061 0.578348 0.563557 0.541042 0.512386 0.479075 0.442465 0.403787 0.364229 
0.324999 0.28803 0.254436 0.225868 0.205378 0.189687 0.181208 0.181003 0.186347 
0.193571 0.201235 0.206863 0.211083 0.216232 0.22165 0.227473 0.22988 0.233559 
0.236773 0.236841 0.232961 0.229426 0.229882 0.231705 0.235263 0.239349 0.24324 
0.245189 0.246551 0.248938 0.251821 0.25508 0.258465 0.261034 0.263984 0.267059 
0.270057 0.272955 0.275598 0.278625 0.283741 0.290939 0.296382 0.301215 0.306087 
0.311615 0.318542 0.329096 0.338404 0.353026 0.385551 0.423863 0.451519 0.491583 
0.526663 0.548822 0.556925 0.558886 0.558439 0.588488 0.659637 0.645325 0.617051 
0.586902 0.527631 0.503235 0.481484 0.439894 0.405869 0.373553 0.370152 0.370155 
0.370158 0.370161 0.370165 0.37017 0.370174 0.370178 0.370183 0.370187 0.370192 
0.370197 0.370202 0.370206 0.370211 0.370216 0.370221 0.370226 0.370232 0.370237 
0.370242 0.370247 0.370252 0.370258 0.370263 0.370268 0.370274 0.370279 0.370284 
0.37029 0.370295 0.370301 0.370306 0.370312 0.370317 0.370322 0.370328 0.370333 
0.370339 0.370344 0.37035 0.370355 0.370361 0.370366 0.370372 0.370377 0.370383 
0.370388 0.370394 0.370399 0.370405 0.37041 0.370416 0.370421 0.370427 0.370432 
0.370438 0.370443 0.370449 0.370454 0.37046 0.370465 0.370471 0.370476 0.370482 
0.370487 0.370493 0.370498 0.370503 0.370509 0.370514 0.370519 0.370525 0.37053 
0.370535 0.37054 0.370546 0.370551 0.370555 0.37056 0.370564 0.370569 0.370573 
0.370576 0.370575 0.370556 0.369423 0.366851 0.363532 0.584001 0.584002 0.584003 
0.584004 0.584005 0.584006 0.584007 0.584008 0.58401 0.584011 0.584012 0.584013 
0.584014 0.584015 0.584016 0.584017 0.584019 0.58402 0.584021 0.584022 0.584023 
0.584024 0.584025 0.584027 0.584028 0.584029 0.58403 0.584031 0.584032 0.584033 
0.584034 0.584035 0.584037 0.584038 0.584039 0.58404 0.584041 0.584042 0.584043 
0.584044 0.584046 0.584047 0.584048 0.584049 0.58405 0.584051 0.584052 0.584053 
0.584055 0.584056 0.584057 0.584058 0.584059 0.58406 0.584061 0.584062 0.584064 
0.584065 0.584066 0.584067 0.584068 0.584069 0.58407 0.584071 0.584072 0.584074 
0.584075 0.584076 0.584077 0.584078 0.584079 0.58408 0.584081 0.584082 0.584084 
0.584085 0.584086 0.584087 0.584088 0.584089 0.58409 0.584091 0.584092 0.584094 
0.584095 0.584096 0.584097 0.584098 0.584099 0.5841 0.584101 0.584102 0.584103 
0.584104 0.584105 0.584106 0.584107 0.584108 0.584109 0.58411 0.584112 0.584113 
0.584114 0.584114 0.584115 0.584116 0.584117 0.584118 0.584119 0.58412 0.584121 
0.584122 0.584122 0.584123 0.584124 0.584124 0.584125 0.584125 0.584125 0.584126 
0.584126 0.584126 0.584125 0.584125 0.584124 0.584122 0.584121 0.584118 0.584115 
0.584112 0.584191 0.584064 0.578465 0.563977 0.54185 0.513531 0.480427 0.443869 
0.405092 0.365289 0.325661 0.287541 0.253395 0.224941 0.20433 0.188976 0.180042 
0.180382 0.186218 0.193576 0.201051 0.206772 0.211412 0.215726 0.219114 0.220075 
0.223239 0.226089 0.22759 0.227799 0.227301 0.227073 0.227863 0.22918 0.231158 
0.236147 0.240564 0.243092 0.244744 0.247538 0.250313 0.25331 0.256895 0.259535 
0.26221 0.264959 0.265897 0.268043 0.271401 0.274502 0.278561 0.284666 0.292435 
0.2923 0.296029 0.29998 0.303419 0.318207 0.329116 0.352237 0.384833 0.4228 
0.450074 0.490267 0.525394 0.549255 0.560225 0.561843 0.561094 0.587698 0.659652 
0.645326 0.617032 0.586907 0.527633 0.503241 0.481479 0.439895 0.405872 0.373589 
0.370153 0.370156 0.370157 0.370161 0.370165 0.370169 0.370173 0.370178 0.370182 
0.370187 0.370191 0.370196 0.370201 0.370206 0.370211 0.370216 0.370221 0.370226 
0.370231 0.370236 0.370242 0.370247 0.370252 0.370257 0.370263 0.370268 0.370273 
0.370279 0.370284 0.37029 0.370295 0.3703 0.370306 0.370311 0.370317 0.370322 
0.370328 0.370333 0.370339 0.370344 0.37035 0.370355 0.370361 0.370366 0.370372 
0.370377 0.370383 0.370388 0.370394 0.370399 0.370405 0.37041 0.370416 0.370421 
0.370427 0.370432 0.370438 0.370443 0.370449 0.370454 0.37046 0.370465 0.370471 
0.370476 0.370481 0.370487 0.370492 0.370498 0.370503 0.370509 0.370514 0.37052 
0.370525 0.37053 0.370536 0.370541 0.370546 0.370551 0.370556 0.370561 0.370566 
0.37057 0.370575 0.37058 0.37058 0.370563 0.369428 0.366855 0.363532 0.584001 
0.584002 0.584003 0.584004 0.584005 0.584006 0.584007 0.584008 0.58401 0.584011 
0.584012 0.584013 0.584014 0.584015 0.584016 0.584017 0.584019 0.58402 0.584021 
0.584022 0.584023 0.584024 0.584025 0.584026 0.584028 0.584029 0.58403 0.584031 
0.584032 0.584033 0.584034 0.584035 0.584037 0.584038 0.584039 0.58404 0.584041 
0.584042 0.584043 0.584044 0.584046 0.584047 0.584048 0.584049 0.58405 0.584051 
0.584052 0.584053 0.584055 0.584056 0.584057 0.584058 0.584059 0.58406 0.584061 
0.584062 0.584064 0.584065 0.584066 0.584067 0.584068 0.584069 0.58407 0.584071 
0.584072 0.584074 0.584075 0.584076 0.584077 0.584078 0.584079 0.58408 0.584081 
0.584082 0.584084 0.584085 0.584086 0.584087 0.584088 0.584089 0.58409 0.584091 
0.584092 0.584094 0.584095 0.584096 0.584097 0.584098 0.584099 0.5841 0.584101 
0.584102 0.584103 0.584104 0.584105 0.584106 0.584107 0.584109 0.58411 0.584111 
0.584112 0.584113 0.584114 0.584115 0.584116 0.584116 0.584117 0.584118 0.584119 
0.58412 0.584121 0.584122 0.584123 0.584123 0.584124 0.584125 0.584125 0.584126 
0.584126 0.584126 0.584127 0.584127 0.584127 0.584126 0.584126 0.584125 0.584124 
0.584122 0.58412 0.584119 0.584199 0.584071 0.57856 0.56432 0.542549 0.514606 
0.481829 0.445508 0.406858 0.367062 0.327289 0.288807 0.253194 0.222665 0.198951 
0.184575 0.178146 0.180332 0.186264 0.19329 0.199962 0.205289 0.209552 0.211578 
0.2136 0.216629 0.217692 0.220268 0.223225 0.224104 0.225009 0.226155 0.22715 
0.228384 0.23091 0.237316 0.243252 0.246036 0.247938 0.250966 0.253799 0.256175 
0.259374 0.261453 0.262826 0.264025 0.266134 0.268767 0.271713 0.273188 0.274972 
0.277588 0.282982 0.291392 0.293885 0.296294 0.308055 0.318723 0.330009 0.361921 
0.384978 0.419199 0.459778 0.487638 0.517039 0.545984 0.557773 0.558871 0.557924 
0.587815 0.659476 0.645332 0.61704 0.586903 0.527633 0.503233 0.481479 0.439891 
0.405867 0.373578 0.370148 0.370152 0.370156 0.37016 0.370164 0.370168 0.370173 
0.370177 0.370182 0.370186 0.370191 0.370196 0.370201 0.370206 0.370211 0.370216 
0.370221 0.370226 0.370231 0.370236 0.370242 0.370247 0.370252 0.370257 0.370263 
0.370268 0.370273 0.370279 0.370284 0.37029 0.370295 0.3703 0.370306 0.370311 
0.370317 0.370322 0.370328 0.370333 0.370339 0.370344 0.37035 0.370355 0.370361 
0.370366 0.370372 0.370377 0.370383 0.370388 0.370394 0.370399 0.370405 0.37041 
0.370416 0.370421 0.370427 0.370432 0.370438 0.370443 0.370449 0.370454 0.37046 
0.370465 0.370471 0.370476 0.370482 0.370487 0.370493 0.370498 0.370503 0.370509 
0.370514 0.37052 0.370525 0.37053 0.370536 0.370541 0.370546 0.370552 0.370557 
0.370562 0.370567 0.370572 0.370578 0.370583 0.370584 0.370568 0.369433 0.366858 
0.363532 0.584001 0.584002 0.584003 0.584004 0.584005 0.584006 0.584007 0.584008 
0.58401 0.584011 0.584012 0.584013 0.584014 0.584015 0.584016 0.584017 0.584019 
0.58402 0.584021 0.584022 0.584023 0.584024 0.584025 0.584026 0.584028 0.584029 
0.58403 0.584031 0.584032 0.584033 0.584034 0.584035 0.584037 0.584038 0.584039 
0.58404 0.584041 0.584042 0.584043 0.584044 0.584046 0.584047 0.584048 0.584049 
0.58405 0.584051 0.584052 0.584053 0.584055 0.584056 0.584057 0.584058 0.584059 
0.58406 0.584061 0.584062 0.584064 0.584065 0.584066 0.584067 0.584068 0.584069 
0.58407 0.584071 0.584072 0.584074 0.584075 0.584076 0.584077 0.584078 0.584079 
0.58408 0.584081 0.584082 0.584084 0.584085 0.584086 0.584087 0.584088 0.584089 
0.58409 0.584091 0.584092 0.584094 0.584095 0.584096 0.584097 0.584098 0.584099 
0.5841 0.584101 0.584102 0.584103 0.584104 0.584105 0.584106 0.584107 0.584109 
0.58411 0.584111 0.584112 0.584113 0.584114 0.584115 0.584116 0.584117 0.584118 
0.584118 0.584119 0.58412 0.584121 0.584122 0.584123 0.584124 0.584124 0.584125 
0.584126 0.584126 0.584127 0.584127 0.584128 0.584128 0.584128 0.584128 0.584128 
0.584128 0.584127 0.584127 0.584126 0.584125 0.584206 0.58408 0.578662 0.564673 
0.543276 0.515772 0.483442 0.44753 0.409233 0.36972 0.330159 0.291818 0.256263 
0.225133 0.2003 0.185799 0.180091 0.181991 0.187185 0.193308 0.199869 0.203723 
0.204556 0.205992 0.208036 0.211786 0.213767 0.216013 0.216905 0.218123 0.220083 
0.224612 0.227995 0.230868 0.233269 0.23881 0.243933 0.246682 0.248577 0.250967 
0.253885 0.256436 0.259359 0.264359 0.267562 0.26996 0.272726 0.275367 0.278526 
0.282125 0.286579 0.295461 0.308571 0.30938 0.322519 0.326532 0.326942 0.339126 
0.348746 0.359434 0.383662 0.41487 0.453866 0.481789 0.511131 0.535425 0.541937 
0.54318 0.544078 0.588708 0.659632 0.64532 0.617039 0.586907 0.527636 0.503238 
0.481477 0.43989 0.405867 0.37358 0.370148 0.370152 0.370155 0.370159 0.370163 
0.370168 0.370172 0.370177 0.370181 0.370186 0.370191 0.370196 0.3702 0.370205 
0.37021 0.370215 0.370221 0.370226 0.370231 0.370236 0.370241 0.370247 0.370252 
0.370257 0.370263 0.370268 0.370273 0.370279 0.370284 0.37029 0.370295 0.3703 
0.370306 0.370311 0.370317 0.370322 0.370328 0.370333 0.370339 0.370344 0.37035 
0.370355 0.370361 0.370366 0.370372 0.370377 0.370383 0.370388 0.370394 0.370399 
0.370405 0.37041 0.370416 0.370421 0.370427 0.370432 0.370438 0.370443 0.370449 
0.370454 0.37046 0.370465 0.370471 0.370476 0.370482 0.370487 0.370493 0.370498 
0.370504 0.370509 0.370514 0.37052 0.370525 0.370531 0.370536 0.370542 0.370547 
0.370552 0.370558 0.370563 0.370569 0.370574 0.37058 0.370586 0.370587 0.37057 
0.369437 0.36686 0.363532 0.584001 0.584002 0.584003 0.584004 0.584005 0.584006 
0.584007 0.584008 0.58401 0.584011 0.584012 0.584013 0.584014 0.584015 0.584016 
0.584017 0.584019 0.58402 0.584021 0.584022 0.584023 0.584024 0.584025 0.584027 
0.584028 0.584029 0.58403 0.584031 0.584032 0.584033 0.584034 0.584035 0.584037 
0.584038 0.584039 0.58404 0.584041 0.584042 0.584043 0.584044 0.584046 0.584047 
0.584048 0.584049 0.58405 0.584051 0.584052 0.584053 0.584055 0.584056 0.584057 
0.584058 0.584059 0.58406 0.584061 0.584062 0.584064 0.584065 0.584066 0.584067 
0.584068 0.584069 0.58407 0.584071 0.584072 0.584074 0.584075 0.584076 0.584077 
0.584078 0.584079 0.58408 0.584081 0.584082 0.584084 0.584085 0.584086 0.584087 
0.584088 0.584089 0.58409 0.584091 0.584092 0.584094 0.584095 0.584096 0.584097 
0.584098 0.584099 0.5841 0.584101 0.584102 0.584103 0.584104 0.584105 0.584107 
0.584108 0.584109 0.58411 0.584111 0.584112 0.584113 0.584114 0.584115 0.584116 
0.584117 0.584118 0.584119 0.58412 0.584121 0.584121 0.584122 0.584123 0.584124 
0.584125 0.584126 0.584126 0.584127 0.584128 0.584128 0.584129 0.58413 0.58413 
0.584131 0.584131 0.584131 0.584132 0.584132 0.584132 0.584134 0.584214 0.58409 
0.578781 0.565075 0.544101 0.517116 0.485354 0.450018 0.412284 0.373319 0.33432 
0.296643 0.261999 0.232184 0.208797 0.193684 0.186154 0.185231 0.189125 0.193948 
0.198885 0.202365 0.204161 0.205572 0.207641 0.211183 0.213314 0.215226 0.216092 
0.216282 0.218972 0.224065 0.227439 0.23028 0.233224 0.239121 0.244356 0.246885 
0.248703 0.250639 0.252141 0.256104 0.262168 0.264675 0.268377 0.273033 0.275076 
0.277373 0.281924 0.28878 0.293647 0.299594 0.308984 0.312533 0.323597 0.329467 
0.330757 0.342448 0.358931 0.36015 0.374768 0.397303 0.431752 0.463941 0.493096 
0.517568 0.530844 0.539146 0.543215 0.587645 0.659624 0.645336 0.617042 0.586908 
0.527631 0.503237 0.481478 0.439889 0.405865 0.373576 0.370146 0.370151 0.370154 
0.370158 0.370163 0.370167 0.370171 0.370176 0.370181 0.370185 0.37019 0.370195 
0.3702 0.370205 0.37021 0.370215 0.37022 0.370225 0.370231 0.370236 0.370241 
0.370246 0.370252 0.370257 0.370262 0.370268 0.370273 0.370279 0.370284 0.370289 
0.370295 0.3703 0.370306 0.370311 0.370317 0.370322 0.370328 0.370333 0.370339 
0.370344 0.37035 0.370355 0.370361 0.370366 0.370372 0.370377 0.370383 0.370388 
0.370393 0.370399 0.370405 0.37041 0.370416 0.370421 0.370427 0.370432 0.370438 
0.370443 0.370449 0.370454 0.37046 0.370465 0.370471 0.370476 0.370482 0.370487 
0.370493 0.370498 0.370504 0.370509 0.370515 0.37052 0.370526 0.370531 0.370536 
0.370542 0.370547 0.370553 0.370559 0.370564 0.37057 0.370576 0.370582 0.370588 
0.370589 0.370572 0.36944 0.366861 0.363532 0.584001 0.584002 0.584003 0.584004 
0.584005 0.584006 0.584007 0.584008 0.58401 0.584011 0.584012 0.584013 0.584014 
0.584015 0.584016 0.584017 0.584019 0.58402 0.584021 0.584022 0.584023 0.584024 
0.584025 0.584027 0.584028 0.584029 0.58403 0.584031 0.584032 0.584033 0.584034 
0.584035 0.584037 0.584038 0.584039 0.58404 0.584041 0.584042 0.584043 0.584044 
0.584046 0.584047 0.584048 0.584049 0.58405 0.584051 0.584052 0.584053 0.584055 
0.584056 0.584057 0.584058 0.584059 0.58406 0.584061 0.584062 0.584064 0.584065 
0.584066 0.584067 0.584068 0.584069 0.58407 0.584071 0.584072 0.584074 0.584075 
0.584076 0.584077 0.584078 0.584079 0.58408 0.584081 0.584082 0.584084 0.584085 
0.584086 0.584087 0.584088 0.584089 0.58409 0.584091 0.584092 0.584094 0.584095 
0.584096 0.584097 0.584098 0.584099 0.5841 0.584101 0.584102 0.584103 0.584104 
0.584105 0.584107 0.584108 0.584109 0.58411 0.584111 0.584112 0.584113 0.584114 
0.584115 0.584116 0.584117 0.584118 0.584119 0.58412 0.584121 0.584122 0.584123 
0.584124 0.584124 0.584125 0.584126 0.584127 0.584128 0.584129 0.58413 0.58413 