# vtk DataFile Version 5.1
vtk output
ASCII
DATASET UNSTRUCTURED_GRID
POINTS 9536 double
-10.1 1.4499999993 8.6074358308e-08 -10.049999999 1.4499999993 1.0829877084e-07 -10.049999999 1.5 -4.2207125261e-07 
-9.9999999985 1.4499999993 1.1536372568e-07 -9.9999999985 1.5 -4.417981927e-07 -9.9499999978 1.4499999993 1.1746647743e-07 
-9.9499999978 1.5 -4.49126901e-07 -9.899999997 1.4499999993 1.1845600767e-07 -9.899999997 1.5 -4.5235742618e-07 
-9.8499999963 1.4499999993 1.1882162454e-07 -9.8499999963 1.5 -4.5398209636e-07 -9.7999999955 1.4499999993 1.1905809316e-07 
-9.7999999955 1.5 -4.5500223678e-07 -9.7499999948 1.4499999993 1.1926728405e-07 -9.7499999948 1.5 -4.5569709073e-07 
-9.699999994 1.4499999993 1.1940552724e-07 -9.699999994 1.5 -4.5634646995e-07 -9.6499999933 1.4499999993 1.1957651225e-07 
-9.6499999933 1.5 -4.570576948e-07 -9.5999999925 1.4499999993 1.1986209358e-07 -9.5999999925 1.5 -4.5790716285e-07 
-9.5499999918 1.4499999993 1.2016040785e-07 -9.5499999918 1.5 -4.5881665756e-07 -9.4999999911 1.4499999993 1.2036777264e-07 
-9.4999999911 1.5 -4.6006812227e-07 -9.4499999903 1.4499999993 1.2068609578e-07 -9.4499999903 1.5 -4.6140507948e-07 
-9.3999999896 1.4499999993 1.2116267101e-07 -9.3999999896 1.5 -4.6286208999e-07 -9.3499999888 1.4499999993 1.2152101192e-07 
-9.3499999888 1.5 -4.6463924264e-07 -9.2999999881 1.4499999993 1.2201759603e-07 -9.2999999881 1.5 -4.6643822316e-07 
-9.2499999873 1.4499999993 1.2262513849e-07 -9.2499999873 1.5 -4.6853006097e-07 -9.1999999866 1.4499999993 1.2313445552e-07 
-9.1999999866 1.5 -4.7071316089e-07 -9.1499999858 1.4499999993 1.2372562708e-07 -9.1499999858 1.5 -4.7313028517e-07 
-9.0999999851 1.4499999993 1.2443685193e-07 -9.0999999851 1.5 -4.7556591198e-07 -9.0499999844 1.4499999993 1.2516626668e-07 
-9.0499999844 1.5 -4.781888947e-07 -8.9999999836 1.4499999993 1.2597207899e-07 -8.9999999836 1.5 -4.8104652706e-07 
-8.9499999829 1.4499999993 1.2671240768e-07 -8.9499999829 1.5 -4.8408060138e-07 -8.8999999821 1.4499999993 1.2747456424e-07 
-8.8999999821 1.5 -4.8717288337e-07 -8.8499999814 1.4499999993 1.2840042984e-07 -8.8499999814 1.5 -4.905489277e-07 
-8.7999999806 1.4499999993 1.2926444981e-07 -8.7999999806 1.5 -4.9403229241e-07 -8.7499999799 1.4499999993 1.3018667744e-07 
-8.7499999799 1.5 -4.976047876e-07 -8.6999999791 1.4499999993 1.3071418437e-07 -8.6999999791 1.5 -4.9949835557e-07 
-8.6499999784 1.4499999993 1.3178556912e-07 -8.6499999784 1.5 -5.034237347e-07 -8.5999999776 1.4499999993 1.3279328925e-07 
-8.5999999776 1.5 -5.0736548474e-07 -8.5499999769 1.4499999993 1.3396108045e-07 -8.5499999769 1.5 -5.1160009207e-07 
-8.4999999762 1.4499999993 1.3501791329e-07 -8.4999999762 1.5 -5.1591109695e-07 -8.4499999754 1.4499999993 1.3617479055e-07 
-8.4499999754 1.5 -5.2056770983e-07 -8.3999999747 1.4499999993 1.3742261729e-07 -8.3999999747 1.5 -5.2525160754e-07 
-8.3499999739 1.4499999993 1.3879049732e-07 -8.3499999739 1.5 -5.2989730648e-07 -8.2999999732 1.4499999993 1.4006742788e-07 
-8.2999999732 1.5 -5.3501230468e-07 -8.2499999724 1.4499999993 1.4137528126e-07 -8.2499999724 1.5 -5.4020370044e-07 
-8.1999999717 1.4499999993 1.4282865379e-07 -8.1999999717 1.5 -5.4558273632e-07 -8.1499999709 1.4499999993 1.4433295803e-07 
-8.1499999709 1.5 -5.5106124819e-07 -8.0999999702 1.4499999993 1.4576814067e-07 -8.0999999702 1.5 -5.5682380662e-07 
-8.0499999695 1.4499999993 1.4738522225e-07 -8.0499999695 1.5 -5.6277190197e-07 -7.9999999687 1.4499999993 1.4905141654e-07 
-7.9999999687 1.5 -5.6889825828e-07 -7.949999968 1.4499999993 1.5059210057e-07 -7.949999968 1.5 -5.7515558183e-07 
-7.8999999672 1.4499999993 1.523037696e-07 -7.8999999672 1.5 -5.816657449e-07 -7.8499999665 1.4499999993 1.5408728871e-07 
-7.8499999665 1.5 -5.8836599237e-07 -7.7999999657 1.4499999993 1.5581805712e-07 -7.7999999657 1.5 -5.9524904827e-07 
-7.749999965 1.4499999993 1.5775800932e-07 -7.749999965 1.5 -6.024022241e-07 -7.6999999642 1.4499999993 1.5962520195e-07 
-7.6999999642 1.5 -6.0980642047e-07 -7.6499999635 1.4499999993 1.615733396e-07 -7.6499999635 1.5 -6.1740433921e-07 
-7.5999999627 1.4499999993 1.6366426792e-07 -7.5999999627 1.5 -6.2521780819e-07 -7.549999962 1.4499999993 1.6573154937e-07 
-7.549999962 1.5 -6.3326075406e-07 -7.4999999613 1.4499999993 1.6792979807e-07 -7.4999999613 1.5 -6.4163509705e-07 
-7.4499999605 1.4499999993 1.7021626775e-07 -7.4499999605 1.5 -6.5012886807e-07 -7.3999999598 1.4499999993 1.7251910833e-07 
-7.3999999598 1.5 -6.58982799e-07 -7.349999959 1.4499999993 1.7488652304e-07 -7.349999959 1.5 -6.6811685429e-07 
-7.2999999583 1.4499999993 1.7737762903e-07 -7.2999999583 1.5 -6.7762744038e-07 -7.2499999575 1.4499999993 1.7987510148e-07 
-7.2499999575 1.5 -6.873235634e-07 -7.1999999568 1.4499999993 1.8252627854e-07 -7.1999999568 1.5 -6.9734073804e-07 
-7.149999956 1.4499999993 1.8526021961e-07 -7.149999956 1.5 -7.0768533078e-07 -7.0999999553 1.4499999993 1.8658262491e-07 
-7.0999999553 1.5 -7.1295403359e-07 -7.0499999546 1.4499999993 1.8945389968e-07 -7.0499999546 1.5 -7.2385614658e-07 
-6.9999999538 1.4499999993 1.9239975302e-07 -6.9999999538 1.5 -7.3503292697e-07 -6.9499999531 1.4499999993 1.9542018492e-07 
-6.9499999531 1.5 -7.4662807492e-07 -6.8999999523 1.4499999993 1.9858795497e-07 -6.8999999523 1.5 -7.5860521065e-07 
-6.8499999516 1.4499999993 2.0181666116e-07 -6.8499999516 1.5 -7.7095160123e-07 -6.7999999508 1.4499999993 2.0516542065e-07 
-6.7999999508 1.5 -7.837791145e-07 -6.7499999501 1.4499999993 2.0862695749e-07 -6.7499999501 1.5 -7.9700043898e-07 
-6.6999999493 1.4499999993 2.1218308177e-07 -6.6999999493 1.5 -8.1070106717e-07 -6.6499999486 1.4499999993 2.1583925047e-07 
-6.6499999486 1.5 -8.248237009e-07 -6.5999999478 1.4499999993 2.1971187891e-07 -6.5999999478 1.5 -8.3951294982e-07 
-6.5499999471 1.4499999993 2.2368728025e-07 -6.5499999471 1.5 -8.5461630306e-07 -6.4999999464 1.4499999993 2.2778546338e-07 
-6.4999999464 1.5 -8.7033299678e-07 -6.4499999456 1.4499999993 2.3204917454e-07 -6.4499999456 1.5 -8.866893495e-07 
-6.3999999449 1.4499999993 2.3647477576e-07 -6.3999999449 1.5 -9.0359958449e-07 -6.3499999441 1.4499999993 2.4112136998e-07 
-6.3499999441 1.5 -9.210891676e-07 -6.2999999434 1.4499999993 2.4580799618e-07 -6.2999999434 1.5 -9.3937637757e-07 
-6.2499999426 1.4499999993 2.507656518e-07 -6.2499999426 1.5 -9.5826294455e-07 -6.1999999419 1.4499999993 2.5593521968e-07 
-6.1999999419 1.5 -9.779780612e-07 -6.1499999411 1.4499999993 2.6132670428e-07 -6.1499999411 1.5 -9.9841759038e-07 
-6.0999999404 1.4499999993 2.6687143873e-07 -6.0999999404 1.5 -1.0197097708e-06 -6.0499999397 1.4499999993 2.7268038139e-07 
-6.0499999397 1.5 -1.0419364571e-06 -5.9999999389 1.4499999993 2.7872988539e-07 -5.9999999389 1.5 -1.0650730928e-06 
-5.9499999382 1.4499999993 2.8504905458e-07 -5.9499999382 1.5 -1.0891874354e-06 -5.8999999374 1.4499999993 2.9164243642e-07 
-5.8999999374 1.5 -1.1144335303e-06 -5.8499999367 1.4499999993 2.9856505535e-07 -5.8499999367 1.5 -1.1407671536e-06 
-5.7999999359 1.4499999993 3.0575733945e-07 -5.7999999359 1.5 -1.1683662251e-06 -5.7499999352 1.4499999993 3.1334025152e-07 
-5.7499999352 1.5 -1.1972440461e-06 -5.6999999344 1.4499999993 3.2123102756e-07 -5.6999999344 1.5 -1.2275293102e-06 
-5.6499999337 1.4499999993 3.2958428164e-07 -5.6499999337 1.5 -1.2593243355e-06 -5.5999999329 1.4499999993 3.3830542634e-07 
-5.5999999329 1.5 -1.2927246189e-06 -5.5499999322 1.4499999993 3.4286426853e-07 -5.5499999322 1.5 -1.3100749356e-06 
-5.4999999315 1.4499999993 3.5229300011e-07 -5.4999999315 1.5 -1.3462024526e-06 -5.4499999307 1.4499999993 3.6226970224e-07 
-5.4499999307 1.5 -1.3843152828e-06 -5.39999993 1.4499999993 3.7282620724e-07 -5.39999993 1.5 -1.4245258626e-06 
-5.3499999292 1.4499999993 3.8394250623e-07 -5.3499999292 1.5 -1.4671311419e-06 -5.2999999285 1.4499999993 3.9573956201e-07 
-5.2999999285 1.5 -1.5123061985e-06 -5.2499999277 1.4499999993 4.083242402e-07 -5.2499999277 1.5 -1.5602452095e-06 
-5.199999927 1.4499999993 4.2166789171e-07 -5.199999927 1.5 -1.6113237962e-06 -5.1499999262 1.4499999993 4.359619652e-07 
-5.1499999262 1.5 -1.6657975266e-06 -5.0999999255 1.4499999993 4.5123510972e-07 -5.0999999255 1.5 -1.724088861e-06 
-5.0499999247 1.4499999993 4.6759600991e-07 -5.0499999247 1.5 -1.7866220787e-06 -4.999999924 1.4499999993 4.8519063967e-07 
-4.999999924 1.5 -1.8539178654e-06 -4.9499999233 1.4499999993 5.0421772357e-07 -4.9499999233 1.5 -1.9265178253e-06 
-4.8999999225 1.4499999993 5.2477912504e-07 -4.8999999225 1.5 -2.0050929379e-06 -4.8499999218 1.4499999993 5.4715542319e-07 
-4.8499999218 1.5 -2.0905376914e-06 -4.799999921 1.4499999993 5.716024134e-07 -4.799999921 1.5 -2.1837604436e-06 
-4.7499999203 1.4499999993 5.983772553e-07 -4.7499999203 1.5 -2.2859858291e-06 -4.6999999195 1.4499999993 6.2787398747e-07 
-4.6999999195 1.5 -2.39858241e-06 -4.6499999188 1.4499999993 6.6055508796e-07 -4.6499999188 1.5 -2.523319381e-06 
-4.599999918 1.4499999993 6.9698558036e-07 -4.599999918 1.5 -2.6622569749e-06 -4.5499999173 1.4499999993 7.3782985055e-07 
-4.5499999173 1.5 -2.8180729714e-06 -4.4999999166 1.4499999993 7.8398761616e-07 -4.4999999166 1.5 -2.9940770219e-06 
-4.4499999158 1.4499999993 8.3654617811e-07 -4.4499999158 1.5 -3.1944391594e-06 -4.3999999151 1.4499999993 8.9692866823e-07 
-4.3999999151 1.5 -3.4245747429e-06 -4.3499999143 1.4499999993 9.6698613561e-07 -4.3499999143 1.5 -3.6914882457e-06 
-4.2999999136 1.4499999993 1.0492428828e-06 -4.2999999136 1.5 -4.0044587877e-06 -4.2499999128 1.4499999993 1.1469021501e-06 
-4.2499999128 1.5 -4.3760551307e-06 -4.1999999121 1.4499999993 1.264614184e-06 -4.1999999121 1.5 -4.8233941925e-06 
-4.1499999113 1.4499999993 1.4087047475e-06 -4.1499999113 1.5 -5.3704866332e-06 -4.0999999106 1.4499999993 1.5884165805e-06 
-4.0999999106 1.5 -6.0518841565e-06 -4.0499999098 1.4499999993 1.8173982426e-06 -4.0499999098 1.5 -6.9186639848e-06 
-3.9999999091 1.4499999993 2.1167159048e-06 -3.9999999091 1.5 -8.0490499386e-06 -3.9499999084 1.4499999993 2.3025834253e-06 
[...]
CELL_DATA 9090
FIELD FieldData 4
Water_Depth_m 1 9090 float
0.584001 0.584002 0.584003 0.584004 0.584006 0.584007 0.584008 0.584009 0.58401 
0.584011 0.584012 0.584013 0.584014 0.584016 0.584017 0.584018 0.584019 0.58402 
0.584021 0.584022 0.584024 0.584025 0.584026 0.584027 0.584028 0.584029 0.58403 
0.584031 0.584032 0.584034 0.584035 0.584036 0.584037 0.584038 0.584039 0.58404 
0.584041 0.584043 0.584044 0.584045 0.584046 0.584047 0.584048 0.584049 0.584051 
0.584052 0.584053 0.584054 0.584055 0.584056 0.584057 0.584058 0.58406 0.584061 
0.584062 0.584063 0.584064 0.584065 0.584066 0.584067 0.584069 0.58407 0.584071 
0.584072 0.584073 0.584074 0.584075 0.584076 0.584078 0.584079 0.58408 0.584081 
0.584082 0.584083 0.584084 0.584086 0.584087 0.584088 0.584089 0.58409 0.584091 
0.584092 0.584094 0.584095 0.584096 0.584097 0.584098 0.584099 0.5841 0.584102 
0.584103 0.584104 0.584105 0.584106 0.584108 0.584109 0.58411 0.584111 0.584112 
0.584114 0.584115 0.584116 0.584117 0.584118 0.58412 0.584121 0.584122 0.584123 
0.584125 0.584126 0.584127 0.584128 0.58413 0.584131 0.584132 0.584134 0.584135 
0.584136 0.584138 0.584139 0.58414 0.584142 0.584143 0.584145 0.584147 0.58415 
0.584154 0.584163 0.584183 0.584259 0.584494 0.584331 0.577723 0.56158 0.537963 
0.508816 0.475606 0.439567 0.401804 0.363397 0.32632 0.290722 0.257999 0.229766 
0.207541 0.192869 0.185124 0.183365 0.187097 0.192408 0.198363 0.202898 0.20641 
0.210437 0.217745 0.226708 0.233928 0.238341 0.240542 0.242454 0.243218 0.240485 
0.23492 0.234485 0.23516 0.238325 0.241834 0.245504 0.248685 0.2523 0.255753 
0.258288 0.261643 0.264279 0.266755 0.269927 0.271873 0.273374 0.274139 0.275431 
0.281044 0.288751 0.293387 0.2982 0.2988 0.307321 0.316466 0.326305 0.341412 
0.361559 0.38516 0.409277 0.445527 0.474683 0.498652 0.527058 0.545671 0.555603 
0.566491 0.626439 0.643768 0.65025 0.616522 0.585988 0.526372 0.502274 0.480665 
0.439047 0.40482 0.372178 0.369204 0.369201 0.369198 0.369201 0.369208 0.369214 
0.36922 0.369226 0.369232 0.369237 0.369243 0.369248 0.369253 0.369259 0.369264 
0.36927 0.369275 0.36928 0.369286 0.369291 0.369296 0.369302 0.369307 0.369313 
0.369318 0.369324 0.369329 0.369335 0.36934 0.369345 0.369351 0.369356 0.369362 
0.369367 0.369373 0.369378 0.369384 0.369389 0.369395 0.3694 0.369406 0.369411 
0.369417 0.369423 0.369428 0.369434 0.369439 0.369445 0.36945 0.369456 0.369461 
0.369467 0.369472 0.369478 0.369483 0.369489 0.369494 0.3695 0.369505 0.369511 
0.369517 0.369522 0.369528 0.369533 0.369539 0.369544 0.36955 0.369555 0.369561 
0.369566 0.369571 0.369577 0.369582 0.369587 0.369593 0.369598 0.369603 0.369608 
0.369612 0.369617 0.369621 0.369624 0.369626 0.369628 0.369619 0.36959 0.368473 
0.365865 0.362608 0.584001 0.584002 0.584003 0.584004 0.584005 0.584006 0.584007 
0.584008 0.58401 0.584011 0.584012 0.584013 0.584014 0.584015 0.584016 0.584017 
0.584019 0.58402 0.584021 0.584022 0.584023 0.584024 0.584025 0.584026 0.584028 
0.584029 0.58403 0.584031 0.584032 0.584033 0.584034 0.584035 0.584036 0.584038 
0.584039 0.58404 0.584041 0.584042 0.584043 0.584044 0.584045 0.584047 0.584048 
0.584049 0.58405 0.584051 0.584052 0.584053 0.584054 0.584056 0.584057 0.584058 
0.584059 0.58406 0.584061 0.584062 0.584063 0.584064 0.584066 0.584067 0.584068 
0.584069 0.58407 0.584071 0.584072 0.584073 0.584075 0.584076 0.584077 0.584078 
0.584079 0.58408 0.584081 0.584082 0.584083 0.584085 0.584086 0.584087 0.584088 
0.584089 0.58409 0.584091 0.584092 0.584094 0.584095 0.584096 0.584097 0.584098 
0.584099 0.5841 0.584102 0.584103 0.584104 0.584105 0.584106 0.584107 0.584108 
0.58411 0.584111 0.584112 0.584113 0.584114 0.584115 0.584116 0.584118 0.584119 
0.58412 0.584121 0.584122 0.584123 0.584125 0.584126 0.584127 0.584128 0.584129 
0.58413 0.584131 0.584132 0.584133 0.584133 0.584134 0.584135 0.584135 0.584135 
0.584135 0.584134 0.584133 0.584132 0.58413 0.58413 0.584161 0.584081 0.578169 
0.562902 0.539895 0.510935 0.477558 0.441096 0.402738 0.363627 0.325389 0.289021 
0.255789 0.227371 0.205546 0.190657 0.182717 0.181841 0.186448 0.19318 0.200179 
0.205314 0.209377 0.215598 0.221784 0.229208 0.232829 0.238009 0.240787 0.24127 
0.241244 0.23872 0.234188 0.233609 0.236103 0.239657 0.243113 0.245367 0.248175 
0.25139 0.254975 0.257729 0.26076 0.263457 0.266238 0.269466 0.271911 0.273943 
0.275588 0.278384 0.283943 0.291325 0.294839 0.303684 0.306048 0.312304 0.320572 
0.329867 0.341041 0.355009 0.381194 0.412229 0.449578 0.48696 0.512946 0.540635 
0.550823 0.555176 0.559345 0.626319 0.643113 0.647144 0.61598 0.585933 0.526704 
0.502275 0.480511 0.438935 0.404913 0.372749 0.369226 0.369213 0.369201 0.369202 
0.369206 0.369211 0.369217 0.369222 0.369227 0.369233 0.369238 0.369244 0.369249 
0.369255 0.36926 0.369266 0.369271 0.369277 0.369282 0.369288 0.369293 0.369299 
0.369304 0.36931 0.369315 0.369321 0.369327 0.369332 0.369338 0.369343 0.369349 
0.369354 0.36936 0.369365 0.369371 0.369377 0.369382 0.369388 0.369393 0.369399 
0.369404 0.36941 0.369415 0.369421 0.369427 0.369432 0.369438 0.369443 0.369449 
0.369454 0.36946 0.369465 0.369471 0.369477 0.369482 0.369488 0.369493 0.369499 
0.369504 0.36951 0.369515 0.369521 0.369526 0.369532 0.369538 0.369543 0.369549 
0.369554 0.36956 0.369565 0.36957 0.369576 0.369581 0.369586 0.369592 0.369597 
0.369602 0.369607 0.369612 0.369616 0.36962 0.369624 0.369627 0.369628 0.369625 
0.3696 0.368468 0.365894 0.362595 0.584001 0.584002 0.584003 0.584004 0.584005 
0.584006 0.584007 0.584008 0.58401 0.584011 0.584012 0.584013 0.584014 0.584015 
0.584016 0.584017 0.584019 0.58402 0.584021 0.584022 0.584023 0.584024 0.584025 
0.584026 0.584028 0.584029 0.58403 0.584031 0.584032 0.584033 0.584034 0.584035 
0.584036 0.584038 0.584039 0.58404 0.584041 0.584042 0.584043 0.584044 0.584045 
0.584047 0.584048 0.584049 0.58405 0.584051 0.584052 0.584053 0.584054 0.584056 
0.584057 0.584058 0.584059 0.58406 0.584061 0.584062 0.584063 0.584064 0.584066 
0.584067 0.584068 0.584069 0.58407 0.584071 0.584072 0.584073 0.584075 0.584076 
0.584077 0.584078 0.584079 0.58408 0.584081 0.584082 0.584084 0.584085 0.584086 
0.584087 0.584088 0.584089 0.58409 0.584091 0.584093 0.584094 0.584095 0.584096 
0.584097 0.584098 0.584099 0.5841 0.584102 0.584103 0.584104 0.584105 0.584106 
0.584107 0.584108 0.58411 0.584111 0.584112 0.584113 0.584114 0.584115 0.584117 
0.584118 0.584119 0.58412 0.584121 0.584122 0.584123 0.584125 0.584126 0.584127 
0.584128 0.584129 0.58413 0.584131 0.584132 0.584133 0.584134 0.584135 0.584135 
0.584136 0.584136 0.584136 0.584135 0.584135 0.584134 0.584134 0.584137 0.584224 
0.584081 0.578366 0.563574 0.541057 0.512397 0.479081 0.442463 0.403775 0.364203 
0.324955 0.287968 0.25436 0.225791 0.205306 0.189623 0.181152 0.180955 0.186307 
0.193537 0.201206 0.206838 0.211062 0.216213 0.221632 0.227457 0.229864 0.233542 
0.236757 0.236825 0.232947 0.229412 0.229869 0.231694 0.235252 0.239338 0.243231 
0.24518 0.246542 0.248929 0.251812 0.255071 0.258456 0.261025 0.263975 0.267049 
0.270048 0.272946 0.275589 0.278615 0.283733 0.290931 0.296375 0.301211 0.306086 
0.311618 0.318551 0.329111 0.338425 0.353052 0.385582 0.4239 0.451561 0.491626 
0.526712 0.548869 0.556986 0.558955 0.558481 0.62675 0.643153 0.647215 0.616095 
0.585942 0.526669 0.50227 0.480514 0.438923 0.404899 0.372585 0.369186 0.369191 
0.369195 0.3692 0.369206 0.369211 0.369217 0.369222 0.369228 0.369233 0.369238 
0.369244 0.369249 0.369255 0.36926 0.369266 0.369271 0.369277 0.369282 0.369288 
0.369293 0.369299 0.369304 0.36931 0.369316 0.369321 0.369327 0.369332 0.369338 
0.369343 0.369349 0.369354 0.36936 0.369365 0.369371 0.369377 0.369382 0.369388 
0.369393 0.369399 0.369404 0.36941 0.369415 0.369421 0.369427 0.369432 0.369438 
0.369443 0.369449 0.369454 0.36946 0.369465 0.369471 0.369477 0.369482 0.369488 
0.369493 0.369499 0.369504 0.36951 0.369515 0.369521 0.369527 0.369532 0.369538 
0.369543 0.369549 0.369554 0.36956 0.369565 0.369571 0.369576 0.369581 0.369587 
0.369592 0.369597 0.369602 0.369607 0.369612 0.369617 0.369621 0.369626 0.36963 
0.369633 0.369632 0.369613 0.368471 0.365906 0.362596 0.584001 0.584002 0.584003 
0.584004 0.584005 0.584006 0.584007 0.584008 0.58401 0.584011 0.584012 0.584013 
0.584014 0.584015 0.584016 0.584017 0.584019 0.58402 0.584021 0.584022 0.584023 
0.584024 0.584025 0.584026 0.584028 0.584029 0.58403 0.584031 0.584032 0.584033 
0.584034 0.584035 0.584036 0.584038 0.584039 0.58404 0.584041 0.584042 0.584043 
0.584044 0.584045 0.584047 0.584048 0.584049 0.58405 0.584051 0.584052 0.584053 
0.584054 0.584055 0.584057 0.584058 0.584059 0.58406 0.584061 0.584062 0.584063 
0.584064 0.584066 0.584067 0.584068 0.584069 0.58407 0.584071 0.584072 0.584073 
0.584075 0.584076 0.584077 0.584078 0.584079 0.58408 0.584081 0.584082 0.584083 
0.584085 0.584086 0.584087 0.584088 0.584089 0.58409 0.584091 0.584092 0.584094 
0.584095 0.584096 0.584097 0.584098 0.584099 0.5841 0.584101 0.584103 0.584104 
0.584105 0.584106 0.584107 0.584108 0.584109 0.584111 0.584112 0.584113 0.584114 
0.584115 0.584116 0.584118 0.584119 0.58412 0.584121 0.584122 0.584123 0.584125 
0.584126 0.584127 0.584128 0.584129 0.58413 0.584131 0.584132 0.584133 0.584134 
0.584135 0.584135 0.584136 0.584136 0.584136 0.584136 0.584135 0.584133 0.584131 
0.584128 0.584207 0.58408 0.57848 0.563991 0.541862 0.513541 0.480432 0.443869 
0.405084 0.36527 0.325626 0.287489 0.25333 0.224872 0.204264 0.188916 0.17999 
0.180337 0.18618 0.193544 0.201024 0.206749 0.211392 0.21571 0.219099 0.220061 
0.223226 0.226075 0.227577 0.227785 0.227287 0.22706 0.227851 0.229169 0.231147 
0.236138 0.240555 0.243084 0.244736 0.247531 0.250306 0.253303 0.256888 0.259527 
0.262202 0.26495 0.265888 0.268034 0.271393 0.274495 0.278554 0.284659 0.29243 
0.292296 0.296028 0.299983 0.303427 0.318221 0.329138 0.352265 0.384868 0.42284 
0.450117 0.490314 0.525444 0.549309 0.560279 0.56192 0.561138 0.626896 0.643172 
0.647145 0.616077 0.585949 0.526673 0.502278 0.480511 0.438925 0.404903 0.372621 
0.369187 0.369192 0.369195 0.3692 0.369206 0.369211 0.369216 0.369222 0.369227 
0.369233 0.369238 0.369244 0.369249 0.369255 0.36926 0.369266 0.369271 0.369277 
0.369282 0.369288 0.369293 0.369299 0.369304 0.36931 0.369315 0.369321 0.369326 
0.369332 0.369338 0.369343 0.369349 0.369354 0.36936 0.369365 0.369371 0.369376 
0.369382 0.369388 0.369393 0.369399 0.369404 0.36941 0.369415 0.369421 0.369426 
0.369432 0.369438 0.369443 0.369449 0.369454 0.36946 0.369465 0.369471 0.369476 
0.369482 0.369488 0.369493 0.369499 0.369504 0.36951 0.369515 0.369521 0.369526 
0.369532 0.369538 0.369543 0.369549 0.369554 0.36956 0.369565 0.369571 0.369576 
0.369581 0.369587 0.369592 0.369597 0.369603 0.369608 0.369613 0.369618 0.369623 
0.369627 0.369632 0.369637 0.369637 0.36962 0.368477 0.365911 0.362596 0.584001 
0.584002 0.584003 0.584004 0.584005 0.584006 0.584007 0.584008 0.58401 0.584011 
0.584012 0.584013 0.584014 0.584015 0.584016 0.584017 0.584019 0.58402 0.584021 
0.584022 0.584023 0.584024 0.584025 0.584026 0.584028 0.584029 0.58403 0.584031 
0.584032 0.584033 0.584034 0.584035 0.584036 0.584038 0.584039 0.58404 0.584041 
0.584042 0.584043 0.584044 0.584045 0.584047 0.584048 0.584049 0.58405 0.584051 
0.584052 0.584053 0.584054 0.584055 0.584057 0.584058 0.584059 0.58406 0.584061 
0.584062 0.584063 0.584064 0.584066 0.584067 0.584068 0.584069 0.58407 0.584071 
0.584072 0.584073 0.584075 0.584076 0.584077 0.584078 0.584079 0.58408 0.584081 
0.584082 0.584083 0.584085 0.584086 0.584087 0.584088 0.584089 0.58409 0.584091 
0.584092 0.584094 0.584095 0.584096 0.584097 0.584098 0.584099 0.5841 0.584101 
0.584103 0.584104 0.584105 0.584106 0.584107 0.584108 0.584109 0.584111 0.584112 
0.584113 0.584114 0.584115 0.584116 0.584118 0.584119 0.58412 0.584121 0.584122 
0.584123 0.584125 0.584126 0.584127 0.584128 0.584129 0.58413 0.584131 0.584132 
0.584133 0.584134 0.584135 0.584136 0.584137 0.584137 0.584137 0.584137 0.584137 
0.584136 0.584134 0.584133 0.584213 0.584085 0.578574 0.564332 0.542559 0.514614 
0.481834 0.445507 0.406851 0.367044 0.327257 0.288759 0.253134 0.222602 0.19889 
0.184521 0.178098 0.180291 0.186229 0.19326 0.199936 0.205266 0.209532 0.21156 
0.213584 0.216614 0.217677 0.220253 0.223211 0.22409 0.224995 0.226143 0.227139 
0.228374 0.230901 0.237307 0.243244 0.246028 0.24793 0.250958 0.253792 0.256167 
0.259367 0.261446 0.262818 0.264017 0.266126 0.268759 0.271706 0.273182 0.274966 
0.277583 0.282978 0.29139 0.293886 0.296298 0.308064 0.318738 0.33003 0.361949 
0.385012 0.419239 0.459821 0.487685 0.517087 0.546036 0.557824 0.558945 0.557968 
0.627018 0.643215 0.6471 0.616086 0.585947 0.526676 0.502272 0.480513 0.438923 
0.404899 0.372612 0.369184 0.369189 0.369194 0.3692 0.369205 0.369211 0.369216 
0.369222 0.369227 0.369233 0.369238 0.369244 0.369249 0.369255 0.36926 0.369266 
0.369271 0.369277 0.369282 0.369288 0.369293 0.369299 0.369304 0.36931 0.369315 
0.369321 0.369326 0.369332 0.369337 0.369343 0.369349 0.369354 0.36936 0.369365 
0.369371 0.369376 0.369382 0.369388 0.369393 0.369399 0.369404 0.36941 0.369415 
0.369421 0.369426 0.369432 0.369438 0.369443 0.369449 0.369454 0.36946 0.369465 
0.369471 0.369476 0.369482 0.369488 0.369493 0.369499 0.369504 0.36951 0.369515 
0.369521 0.369527 0.369532 0.369538 0.369543 0.369549 0.369554 0.36956 0.369565 
0.369571 0.369576 0.369582 0.369587 0.369592 0.369598 0.369603 0.369608 0.369614 
0.369619 0.369624 0.369629 0.369635 0.36964 0.369641 0.369624 0.368482 0.365914 
0.362597 0.584001 0.584002 0.584003 0.584004 0.584005 0.584006 0.584007 0.584008 
0.58401 0.584011 0.584012 0.584013 0.584014 0.584015 0.584016 0.584017 0.584019 
0.58402 0.584021 0.584022 0.584023 0.584024 0.584025 0.584026 0.584028 0.584029 
0.58403 0.584031 0.584032 0.584033 0.584034 0.584035 0.584036 0.584038 0.584039 
0.58404 0.584041 0.584042 0.584043 0.584044 0.584045 0.584047 0.584048 0.584049 
0.58405 0.584051 0.584052 0.584053 0.584054 0.584055 0.584057 0.584058 0.584059 
0.58406 0.584061 0.584062 0.584063 0.584064 0.584066 0.584067 0.584068 0.584069 
0.58407 0.584071 0.584072 0.584073 0.584075 0.584076 0.584077 0.584078 0.584079 
0.58408 0.584081 0.584082 0.584083 0.584085 0.584086 0.584087 0.584088 0.584089 
0.58409 0.584091 0.584092 0.584094 0.584095 0.584096 0.584097 0.584098 0.584099 
0.5841 0.584101 0.584103 0.584104 0.584105 0.584106 0.584107 0.584108 0.584109 
0.584111 0.584112 0.584113 0.584114 0.584115 0.584116 0.584118 0.584119 0.58412 
0.584121 0.584122 0.584123 0.584125 0.584126 0.584127 0.584128 0.584129 0.58413 
0.584132 0.584133 0.584134 0.584135 0.584136 0.584137 0.584138 0.584139 0.584139 
0.58414 0.58414 0.58414 0.584139 0.584138 0.584219 0.584092 0.578674 0.564684 
0.543285 0.515779 0.483446 0.44753 0.409225 0.369703 0.33013 0.291775 0.256209 
0.225077 0.200246 0.185751 0.180048 0.181954 0.187152 0.193279 0.199843 0.2037 
0.204536 0.205974 0.208019 0.21177 0.213752 0.215998 0.216891 0.218109 0.22007 
0.2246 0.227984 0.230858 0.23326 0.238801 0.243925 0.246674 0.24857 0.25096 
0.253877 0.256429 0.259352 0.264352 0.267555 0.269953 0.272719 0.27536 0.27852 
0.282119 0.286574 0.295456 0.308566 0.309378 0.322519 0.326536 0.326951 0.339141 
0.348766 0.35946 0.383694 0.414906 0.453906 0.481831 0.511177 0.535468 0.54199 
0.543232 0.544933 0.627164 0.643239 0.647043 0.616089 0.585954 0.526681 0.502279 
0.480513 0.438924 0.4049 0.372615 0.369184 0.36919 0.369194 0.3692 0.369205 
0.369211 0.369216 0.369222 0.369227 0.369233 0.369238 0.369244 0.369249 0.369254 
0.36926 0.369265 0.369271 0.369277 0.369282 0.369288 0.369293 0.369299 0.369304 
0.36931 0.369315 0.369321 0.369326 0.369332 0.369337 0.369343 0.369349 0.369354 
0.36936 0.369365 0.369371 0.369376 0.369382 0.369388 0.369393 0.369399 0.369404 
0.36941 0.369415 0.369421 0.369426 0.369432 0.369438 0.369443 0.369449 0.369454 
0.36946 0.369465 0.369471 0.369476 0.369482 0.369488 0.369493 0.369499 0.369504 
0.36951 0.369515 0.369521 0.369527 0.369532 0.369538 0.369543 0.369549 0.369554 
0.36956 0.369565 0.369571 0.369576 0.369582 0.369587 0.369593 0.369598 0.369604 
0.369609 0.369614 0.36962 0.369625 0.369631 0.369637 0.369643 0.369643 0.369627 
0.368485 0.365915 0.362597 0.584001 0.584002 0.584003 0.584004 0.584005 0.584006 
0.584007 0.584008 0.58401 0.584011 0.584012 0.584013 0.584014 0.584015 0.584016 
0.584017 0.584019 0.58402 0.584021 0.584022 0.584023 0.584024 0.584025 0.584026 
0.584028 0.584029 0.58403 0.584031 0.584032 0.584033 0.584034 0.584035 0.584036 
0.584038 0.584039 0.58404 0.584041 0.584042 0.584043 0.584044 0.584045 0.584047 
0.584048 0.584049 0.58405 0.584051 0.584052 0.584053 0.584054 0.584055 0.584057 
0.584058 0.584059 0.58406 0.584061 0.584062 0.584063 0.584064 0.584066 0.584067 
0.584068 0.584069 0.58407 0.584071 0.584072 0.584073 0.584075 0.584076 0.584077 
0.584078 0.584079 0.58408 0.584081 0.584082 0.584083 0.584085 0.584086 0.584087 
0.584088 0.584089 0.58409 0.584091 0.584092 0.584094 0.584095 0.584096 0.584097 
0.584098 0.584099 0.5841 0.584101 0.584103 0.584104 0.584105 0.584106 0.584107 
0.584108 0.584109 0.584111 0.584112 0.584113 0.584114 0.584115 0.584116 0.584118 
0.584119 0.58412 0.584121 0.584122 0.584123 0.584125 0.584126 0.584127 0.584128 
0.584129 0.584131 0.584132 0.584133 0.584134 0.584136 0.584137 0.584138 0.584139 
0.58414 0.584141 0.584142 0.584143 0.584144 0.584145 0.584146 0.584226 0.584103 
0.578793 0.565086 0.54411 0.517123 0.485358 0.450017 0.412277 0.373303 0.334291 
0.296603 0.26195 0.232134 0.208748 0.19364 0.186114 0.185196 0.189095 0.193922 
0.198862 0.202345 0.204143 0.205556 0.207626 0.21117 0.213301 0.215214 0.21608 
0.216271 0.218961 0.224056 0.22743 0.230272 0.233217 0.239114 0.244349 0.246879 
0.248697 0.250633 0.252135 0.256099 0.262162 0.26467 0.26837 0.273026 0.275069 
0.277366 0.281918 0.288775 0.293642 0.299591 0.308982 0.312531 0.323599 0.329473 
0.330765 0.342462 0.35895 0.360174 0.374799 0.39734 0.431794 0.463988 0.493143 
0.517618 0.530891 0.539215 0.544482 0.627245 0.643256 0.646983 0.616091 0.585955 
0.526677 0.502279 0.480515 0.438924 0.4049 0.372612 0.369184 0.36919 0.369194 
0.3692 0.369205 0.369211 0.369216 0.369222 0.369227 0.369232 0.369238 0.369243 
0.369249 0.369254 0.36926 0.369265 0.369271 0.369276 0.369282 0.369288 0.369293 
0.369299 0.369304 0.36931 0.369315 0.369321 0.369326 0.369332 0.369337 0.369343 
0.369349 0.369354 0.36936 0.369365 0.369371 0.369376 0.369382 0.369388 0.369393 
0.369399 0.369404 0.36941 0.369415 0.369421 0.369426 0.369432 0.369438 0.369443 
0.369449 0.369454 0.36946 0.369465 0.369471 0.369476 0.369482 0.369488 0.369493 
0.369499 0.369504 0.36951 0.369515 0.369521 0.369527 0.369532 0.369538 0.369543 
0.369549 0.369554 0.36956 0.369565 0.369571 0.369576 0.369582 0.369588 0.369593 
0.369599 0.369604 0.36961 0.369615 0.369621 0.369627 0.369632 0.369639 0.369645 
0.369645 0.369629 0.368488 0.365917 0.362597 0.584001 0.584002 0.584003 0.584004 
0.584005 0.584006 0.584007 0.584008 0.58401 0.584011 0.584012 0.584013 0.584014 
0.584015 0.584016 0.584017 0.584019 0.58402 0.584021 0.584022 0.584023 0.584024 
0.584025 0.584026 0.584028 0.584029 0.58403 0.584031 0.584032 0.584033 0.584034 
0.584035 0.584036 0.584038 0.584039 0.58404 0.584041 0.584042 0.584043 0.584044 
0.584045 0.584047 0.584048 0.584049 0.58405 0.584051 0.584052 0.584053 0.584054 
0.584056 0.584057 0.584058 0.584059 0.58406 0.584061 0.584062 0.584063 0.584064 
0.584066 0.584067 0.584068 0.584069 0.58407 0.584071 0.584072 0.584073 0.584075 
0.584076 0.584077 0.584078 0.584079 0.58408 0.584081 0.584082 0.584083 0.584085 
0.584086 0.584087 0.584088 0.584089 0.58409 0.584091 0.584092 0.584094 0.584095 
0.584096 0.584097 0.584098 0.584099 0.5841 0.584101 0.584103 0.584104 0.584105 
0.584106 0.584107 0.584108 0.584109 0.584111 0.584112 0.584113 0.584114 0.584115 
0.584116 0.584118 0.584119 0.58412 0.584121 0.584122 0.584123 0.584125 0.584126 
0.584127 0.584128 0.58413 0.584131 0.584132 0.584134 0.584135 0.584136 0.584138 