# vtk DataFile Version 5.1
vtk output
ASCII
DATASET UNSTRUCTURED_GRID
POINTS 9393 double
0.1016 1.5 0 0.1016 1.45 5.1584879698e-20 0.1016 1.4 8.2585350466e-20 
0.1016 1.35 0 0.1016 1.3 0 0.1016 1.25 7.633537409e-20 
0.1016 1.2 -1.0472138867e-19 0.1016 1.15 -1.0474616531e-19 0.1016 1.1 0 
0.1016 1.05 0 0.1016 1 7.6430874677e-20 0.1016 0.95 -1.047413444e-19 
0.1016 0.9 7.6430971612e-20 0.1016 0.85 1.9900855048e-18 0.1016 0.8 -1.0474130562e-19 
0.1016 0.75 7.6430325377e-20 0.1016 0.7 2.0948253887e-18 0.1016 0.65 0 
0.1016 0.6 1.9900857116e-18 0.1016 0.55 0 0.1016 0.5 -1.0474154473e-19 
0.1016 0.45 0 0.1016 0.4 -1.0474482114e-19 0.1016 0.35 0 
0.1016 0.3 0 0.1016 0.25 0 0.1016 0.2 7.5297934506e-20 
0.1016 0.15 -9.0429310344e-20 0.1016 0.1 -9.209014038e-20 0.1016 0.05 -7.6045124168e-20 
0.1016 0 0 5.08 1.5 0.28700000048 5.08 1.45 0.28700000048 
5.08 1.4 0.28700000048 5.08 1.35 0.28700000048 5.08 1.3 0.28700000048 
5.08 1.25 0.28700000048 5.08 1.2 0.28700000048 5.08 1.15 0.28700000048 
5.08 1.1 0.28700000048 5.08 1.05 0.28700000048 5.08 1 0.28700000048 
5.08 0.95 0.28700000048 5.08 0.9 0.28700000048 5.08 0.85 0.28700000048 
5.08 0.8 0.28700000048 5.08 0.75 0.28700000048 5.08 0.7 0.28700000048 
5.08 0.65 0.28700000048 5.08 0.6 0.28700000048 5.08 0.55 0.28700000048 
5.08 0.5 0.28700000048 5.08 0.45 0.28700000048 5.08 0.4 0.28700000048 
5.08 0.35 0.28700000048 5.08 0.3 0.28700000048 5.08 0.25 0.28700000048 
5.08 0.2 0.28700000048 5.08 0.15 0.28700000048 5.08 0.1 0.28700000048 
5.08 0.05 0.28700000048 5.08 0 0.28700000048 0.151384 1.5 0.02146493271 
0.151384 1.45 0.021448900923 0.151384 1.4 0.021452795714 0.151384 1.35 0.021451983601 
0.151384 1.3 0.021452168003 0.151384 1.25 0.021452125162 0.151384 1.2 0.021452134475 
0.151384 1.15 0.021452132612 0.151384 1.1 0.021452134475 0.151384 1.05 0.021452132612 
0.151384 1 0.021452134475 0.151384 0.95 0.021452132612 0.151384 0.9 0.021452132612 
0.151384 0.85 0.021452132612 0.151384 0.8 0.021452132612 0.151384 0.75 0.021452134475 
0.151384 0.7 0.021452134475 0.151384 0.65 0.021452134475 0.151384 0.6 0.021452134475 
0.151384 0.55 0.021452134475 0.151384 0.5 0.021452134475 0.151384 0.45 0.021452132612 
0.151384 0.4 0.021452134475 0.151384 0.35 0.021452132612 0.151384 0.3 0.021452134475 
0.151384 0.25 0.021452127025 0.151384 0.2 0.021452162415 0.151384 0.15 0.02145200409 
0.151384 0.1 0.021452706307 0.151384 0.05 0.02144934237 0.151384 0 0.021464604884 
0.201168 1.5 0.04984471947 0.201168 1.45 0.049860715866 0.201168 1.4 0.04986718297 
0.201168 1.35 0.049865700305 0.201168 1.3 0.049866013229 0.201168 1.25 0.049865946174 
0.201168 1.2 0.049865961075 0.201168 1.15 0.04986595735 0.201168 1.1 0.04986595735 
0.201168 1.05 0.04986595735 0.201168 1 0.04986595735 0.201168 0.95 0.04986595735 
0.201168 0.9 0.04986595735 0.201168 0.85 0.04986595735 0.201168 0.8 0.04986595735 
0.201168 0.75 0.04986595735 0.201168 0.7 0.04986595735 0.201168 0.65 0.04986595735 
0.201168 0.6 0.04986595735 0.201168 0.55 0.04986595735 0.201168 0.5 0.04986595735 
0.201168 0.45 0.04986595735 0.201168 0.4 0.04986595735 0.201168 0.35 0.04986595735 
0.201168 0.3 0.049865961075 0.201168 0.25 0.049865946174 0.201168 0.2 0.049866005778 
0.201168 0.15 0.049865730107 0.201168 0.1 0.049867045134 0.201168 0.05 0.049861267209 
0.201168 0 0.049844291061 0.250952 1.5 0.083479054272 0.250952 1.45 0.083398230374 
0.250952 1.4 0.083408355713 0.250952 1.35 0.083406820893 0.250952 1.3 0.083407111466 
0.250952 1.25 0.083407051861 0.250952 1.2 0.083407066762 0.250952 1.15 0.083407066762 
0.250952 1.1 0.083407066762 0.250952 1.05 0.083407066762 0.250952 1 0.083407066762 
0.250952 0.95 0.083407066762 0.250952 0.9 0.083407066762 0.250952 0.85 0.083407066762 
0.250952 0.8 0.083407066762 0.250952 0.75 0.083407066762 0.250952 0.7 0.083407066762 
0.250952 0.65 0.083407066762 0.250952 0.6 0.083407066762 0.250952 0.55 0.083407066762 
0.250952 0.5 0.083407066762 0.250952 0.45 0.083407066762 0.250952 0.4 0.083407066762 
0.250952 0.35 0.083407066762 0.250952 0.3 0.083407066762 0.250952 0.25 0.083407059312 
0.250952 0.2 0.083407104015 0.250952 0.15 0.083406858146 0.250952 0.1 0.083408199251 
0.250952 0.05 0.083398923278 0.250952 0 0.083478525281 0.300736 1.5 0.14716693759 
0.300736 1.45 0.14724357426 0.300736 1.4 0.14723330736 0.300736 1.35 0.14723455906 
0.300736 1.3 0.14723439515 0.300736 1.25 0.14723441005 0.300736 1.2 0.14723441005 
0.300736 1.15 0.14723441005 0.300736 1.1 0.14723441005 0.300736 1.05 0.14723441005 
0.300736 1 0.14723441005 0.300736 0.95 0.14723441005 0.300736 0.9 0.14723441005 
0.300736 0.85 0.14723441005 0.300736 0.8 0.14723441005 0.300736 0.75 0.14723441005 
0.300736 0.7 0.14723441005 0.300736 0.65 0.14723441005 0.300736 0.6 0.14723441005 
0.300736 0.55 0.14723441005 0.300736 0.5 0.14723441005 0.300736 0.45 0.14723441005 
0.300736 0.4 0.14723441005 0.300736 0.35 0.14723441005 0.300736 0.3 0.14723441005 
0.300736 0.25 0.14723441005 0.300736 0.2 0.14723438025 0.300736 0.15 0.14723460376 
0.300736 0.1 0.14723312855 0.300736 0.05 0.14724433422 0.300736 0 0.14716635644 
0.35052 1.5 0.15515324473 0.35052 1.45 0.15522770584 0.35052 1.4 0.15521581471 
0.35052 1.35 0.15521745384 0.35052 1.3 0.15521720052 0.35052 1.25 0.15521724522 
0.35052 1.2 0.15521723032 0.35052 1.15 0.15521723032 0.35052 1.1 0.15521723032 
0.35052 1.05 0.15521723032 0.35052 1 0.15521723032 0.35052 0.95 0.15521723032 
0.35052 0.9 0.15521723032 0.35052 0.85 0.15521723032 0.35052 0.8 0.15521723032 
0.35052 0.75 0.15521723032 0.35052 0.7 0.15521723032 0.35052 0.65 0.15521723032 
0.35052 0.6 0.15521723032 0.35052 0.55 0.15521723032 0.35052 0.5 0.15521723032 
0.35052 0.45 0.15521723032 0.35052 0.4 0.15521723032 0.35052 0.35 0.15521723032 
0.35052 0.3 0.15521723032 0.35052 0.25 0.15521724522 0.35052 0.2 0.15521720052 
0.35052 0.15 0.15521749854 0.35052 0.1 0.1552156359 0.35052 0.05 0.1552284956 
0.35052 0 0.15515261889 0.400304 1.5 0.18852005899 0.400304 1.45 0.18836417794 
0.400304 1.4 0.18838000298 0.400304 1.35 0.18837818503 0.400304 1.3 0.18837840855 
0.400304 1.25 0.18837839365 0.400304 1.2 0.18837839365 0.400304 1.15 0.18837839365 
0.400304 1.1 0.18837839365 0.400304 1.05 0.18837839365 0.400304 1 0.18837839365 
0.400304 0.95 0.18837839365 0.400304 0.9 0.18837839365 0.400304 0.85 0.18837839365 
0.400304 0.8 0.18837839365 0.400304 0.75 0.18837839365 0.400304 0.7 0.18837839365 
0.400304 0.65 0.18837839365 0.400304 0.6 0.18837839365 0.400304 0.55 0.18837839365 
0.400304 0.5 0.18837839365 0.400304 0.45 0.18837839365 0.400304 0.4 0.18837839365 
0.400304 0.35 0.18837839365 0.400304 0.3 0.18837839365 0.400304 0.25 0.18837839365 
0.400304 0.2 0.18837839365 0.400304 0.15 0.18837822974 0.400304 0.1 0.18837982416 
0.400304 0.05 0.18836499751 0.400304 0 0.18851940334 0.450088 1.5 0.22610981762 
0.450088 1.45 0.22619141638 0.450088 1.4 0.22619566321 0.450088 1.35 0.22619527578 
0.450088 1.3 0.22619529068 0.450088 1.25 0.22619530559 0.450088 1.2 0.22619529068 
0.450088 1.15 0.22619529068 0.450088 1.1 0.22619529068 0.450088 1.05 0.22619529068 
0.450088 1 0.22619529068 0.450088 0.95 0.22619529068 0.450088 0.9 0.22619529068 
0.450088 0.85 0.22619529068 0.450088 0.8 0.22619529068 0.450088 0.75 0.22619529068 
0.450088 0.7 0.22619529068 0.450088 0.65 0.22619529068 0.450088 0.6 0.22619529068 
0.450088 0.55 0.22619529068 0.450088 0.5 0.22619529068 0.450088 0.45 0.22619529068 
0.450088 0.4 0.22619529068 0.450088 0.35 0.22619530559 0.450088 0.3 0.22619529068 
0.450088 0.25 0.22619530559 0.450088 0.2 0.22619527578 0.450088 0.15 0.22619532049 
0.450088 0.1 0.2261954695 0.450088 0.05 0.22619225085 0.450088 0 0.22610916197 
0.499872 1.5 0.260286659 0.499872 1.45 0.26024150848 0.499872 1.4 0.26022011042 
0.499872 1.35 0.26022422314 0.499872 1.3 0.26022326946 0.499872 1.25 0.26022350788 
0.499872 1.2 0.26022344828 0.499872 1.15 0.26022347808 0.499872 1.1 0.26022344828 
0.499872 1.05 0.26022344828 0.499872 1 0.26022344828 0.499872 0.95 0.26022344828 
0.499872 0.9 0.26022344828 0.499872 0.85 0.26022344828 0.499872 0.8 0.26022344828 
0.499872 0.75 0.26022344828 0.499872 0.7 0.26022344828 0.499872 0.65 0.26022344828 
0.499872 0.6 0.26022344828 0.499872 0.55 0.26022344828 0.499872 0.5 0.26022344828 
0.499872 0.45 0.26022344828 0.499872 0.4 0.26022344828 0.499872 0.35 0.26022347808 
0.499872 0.3 0.26022344828 0.499872 0.25 0.26022350788 0.499872 0.2 0.26022326946 
0.499872 0.15 0.26022425294 0.499872 0.1 0.2602199018 0.499872 0.05 0.26024246216 
0.499872 0 0.26028591394 0.549656 1.5 0.28591999412 0.549656 1.45 0.28591999412 
0.549656 1.4 0.28591999412 0.549656 1.35 0.28591999412 0.549656 1.3 0.28591999412 
0.549656 1.25 0.28591999412 0.549656 1.2 0.28591999412 0.549656 1.15 0.28591999412 
0.549656 1.1 0.28591999412 0.549656 1.05 0.28591999412 0.549656 1 0.28591999412 
0.549656 0.95 0.28591999412 0.549656 0.9 0.28591999412 0.549656 0.85 0.28591999412 
0.549656 0.8 0.28591999412 0.549656 0.75 0.28591999412 0.549656 0.7 0.28591999412 
0.549656 0.65 0.28591999412 0.549656 0.6 0.28591999412 0.549656 0.55 0.28591999412 
0.549656 0.5 0.28591999412 0.549656 0.45 0.28591999412 0.549656 0.4 0.28591999412 
0.549656 0.35 0.28591999412 0.549656 0.3 0.28591999412 0.549656 0.25 0.28591999412 
0.549656 0.2 0.28591999412 0.549656 0.15 0.28591999412 0.549656 0.1 0.28591999412 
0.549656 0.05 0.28591999412 0.549656 0 0.28591999412 0.59944 1.5 0.28700000048 
0.59944 1.45 0.28700000048 0.59944 1.4 0.28700000048 0.59944 1.35 0.28700000048 
0.59944 1.3 0.28700000048 0.59944 1.25 0.28700000048 0.59944 1.2 0.28700000048 
0.59944 1.15 0.28700000048 0.59944 1.1 0.28700000048 0.59944 1.05 0.28700000048 
0.59944 1 0.28700000048 0.59944 0.95 0.28700000048 0.59944 0.9 0.28700000048 
0.59944 0.85 0.28700000048 0.59944 0.8 0.28700000048 0.59944 0.75 0.28700000048 
0.59944 0.7 0.28700000048 0.59944 0.65 0.28700000048 0.59944 0.6 0.28700000048 
0.59944 0.55 0.28700000048 0.59944 0.5 0.28700000048 0.59944 0.45 0.28700000048 
0.59944 0.4 0.28700000048 0.59944 0.35 0.28700000048 0.59944 0.3 0.28700000048 
[...]
CELL_DATA 9060
FIELD FieldData 7
B_Stress_n_p_m2 1 9060 float
0.404138 0.539006 0.145823 0.377327 0.914204 0.584053 0.147883 0.437581 0.923259 
0.52584 0.139415 0.463129 0.926763 0.509919 0.136372 0.464417 0.919255 0.502844 
0.1351 0.460434 0.917329 0.513348 0.133426 0.425821 0.913077 0.579483 0.146324 
0.287111 0.631688 0.377331 0.227411 0.209271 0.20795 0.176241 0.136635 0.167697 
0.211903 0.185324 0.140098 0.176341 0.220292 0.185036 0.139905 0.179371 0.22445 
0.184259 0.136899 0.177203 0.226732 0.186274 0.134751 0.172124 0.228624 0.189403 
0.127766 0.151522 0.21995 0.223446 0.18724 0.244125 0.17192 0.158212 0.145274 
0.130468 0.116607 0.125725 0.141525 0.133996 0.120121 0.130949 0.145772 0.135122 
0.120967 0.132913 0.147787 0.135636 0.120526 0.132555 0.148786 0.136665 0.119645 
0.130655 0.149735 0.138106 0.115709 0.122402 0.151577 0.160229 0.157848 0.182267 
0.190901 0.184224 0.170067 0.163409 0.164704 0.162206 0.162286 0.16358 0.166593 
0.16462 0.165255 0.16578 0.168101 0.166121 0.166787 0.166643 0.168332 0.166364 
0.167466 0.167179 0.168159 0.166151 0.167996 0.167368 0.167034 0.166235 0.174033 
0.182816 0.191703 0.198505 0.205056 0.203921 0.197212 0.191599 0.189525 0.188787 
0.19008 0.189899 0.190223 0.190679 0.192401 0.19178 0.191766 0.19219 0.193778 
0.192703 0.19232 0.192717 0.194441 0.193245 0.192509 0.192877 0.194975 0.193799 
0.192825 0.194607 0.201226 0.206717 0.211034 0.211901 0.225637 0.22678 0.223306 
0.21977 0.217791 0.217592 0.218545 0.218423 0.218343 0.21918 0.220464 0.220147 
0.219885 0.220643 0.221762 0.221154 0.220665 0.221354 0.222476 0.221781 0.221116 
0.221777 0.223092 0.222534 0.222035 0.22382 0.227985 0.231411 0.233865 0.232511 
0.271738 0.271247 0.269441 0.267927 0.267136 0.267231 0.267859 0.268126 0.268402 
0.269065 0.269854 0.269994 0.270103 0.270628 0.271245 0.271169 0.271101 0.27153 
0.272091 0.271928 0.271742 0.272121 0.272737 0.272639 0.272601 0.273622 0.275652 
0.277366 0.278833 0.279163 0.329967 0.325997 0.325776 0.326118 0.326492 0.327114 
0.327873 0.328451 0.328988 0.329636 0.330284 0.330647 0.33096 0.331407 0.331858 
0.332021 0.332164 0.332488 0.332839 0.332888 0.332897 0.333104 0.333362 0.333299 
0.333198 0.333433 0.333888 0.333843 0.334031 0.33808 0.37432 0.369036 0.370263 
0.371957 0.373222 0.374354 0.375378 0.376211 0.376937 0.377638 0.378277 0.378753 
0.379166 0.3796 0.380004 0.380268 0.380498 0.380779 0.38104 0.381145 0.381189 
0.381258 0.381271 0.381057 0.380687 0.380255 0.379605 0.37822 0.377065 0.382471 
0.385509 0.382667 0.384759 0.387009 0.388739 0.39018 0.391396 0.392395 0.393239 
0.393982 0.394626 0.395149 0.395598 0.396015 0.396385 0.396675 0.396922 0.397157 
0.397347 0.397433 0.397436 0.397372 0.397186 0.396786 0.396156 0.395281 0.394026 
0.392062 0.390095 0.393033 0.380095 0.381076 0.3836 0.385979 0.387915 0.389527 
0.390867 0.391972 0.39289 0.393665 0.394318 0.394858 0.395314 0.395714 0.396057 
0.396338 0.396569 0.396758 0.396885 0.39692 0.396852 0.396668 0.396323 0.395753 
0.394915 0.393764 0.392206 0.390077 0.387677 0.386724 0.376775 0.380171 0.38312 
0.38566 0.387777 0.389539 0.390998 0.392198 0.393186 0.394003 0.394679 0.395235 
0.395699 0.396089 0.396416 0.396681 0.396888 0.397035 0.397108 0.397081 0.396934 
0.39664 0.396156 0.395427 0.394402 0.393025 0.391221 0.388896 0.386055 0.382643 
0.375281 0.379522 0.38285 0.385618 0.387921 0.389831 0.391406 0.392697 0.393753 
0.394616 0.39532 0.395895 0.396365 0.396751 0.397065 0.397311 0.39749 0.397597 
0.397618 0.397527 0.397301 0.396904 0.396294 0.395417 0.394219 0.392638 0.390598 
0.388015 0.384776 0.380507 0.374435 0.378919 0.382511 0.385484 0.387954 0.389997 
0.391679 0.393054 0.394172 0.395079 0.395813 0.396405 0.396882 0.397266 0.397568 
0.397794 0.397946 0.398014 0.397984 0.397833 0.39753 0.397039 0.396315 0.395306 
0.393954 0.392193 0.389949 0.387133 0.383616 0.379102 0.37392 0.37847 0.38222 
0.385345 0.387948 0.390104 0.391877 0.393325 0.394499 0.395447 0.396208 0.396817 
0.397301 0.397681 0.397972 0.39818 0.398304 0.398336 0.39826 0.398051 0.397678 
0.397103 0.396279 0.395155 0.39367 0.39176 0.389352 0.386361 0.382674 0.378096 
0.373597 0.378164 0.382006 0.385237 0.387941 0.390185 0.392033 0.393542 0.394764 
0.395747 0.396533 0.397155 0.397645 0.398022 0.398303 0.398493 0.398591 0.398589 
0.39847 0.398209 0.397773 0.397124 0.396215 0.394992 0.393399 0.39137 0.388835 
0.38572 0.381932 0.377339 0.373392 0.377964 0.381861 0.385164 0.38794 0.390252 
0.392159 0.393716 0.394978 0.39599 0.396795 0.397429 0.397923 0.398297 0.398567 
0.39874 0.398815 0.398783 0.398625 0.398318 0.397828 0.397115 0.396133 0.394829 
0.393147 0.391025 0.388396 0.385195 0.381344 0.376748 0.373266 0.37784 0.381771 
0.385122 0.38795 0.390311 0.392262 0.393858 0.39515 0.396185 0.397006 0.397649 
0.398144 0.398514 0.398775 0.398932 0.398985 0.398925 0.398734 0.398386 0.397849 
0.397083 0.396041 0.394672 0.39292 0.390725 0.388027 0.384765 0.380874 0.376279 
0.373197 0.377772 0.381724 0.385106 0.38797 0.390367 0.392351 0.393975 0.395289 
0.396341 0.397173 0.397822 0.398317 0.398683 0.398933 0.399076 0.39911 0.399026 
0.398805 0.398423 0.397847 0.397036 0.395946 0.394524 0.392717 0.390468 0.387719 
0.384414 0.380497 0.375903 0.373169 0.377743 0.381709 0.385112 0.388 0.390422 
0.392428 0.394072 0.395402 0.396465 0.397304 0.397955 0.398449 0.398809 0.39905 
0.39918 0.399197 0.399091 0.398846 0.398435 0.397827 0.39698 0.39585 0.394387 
0.392538 0.390248 0.387462 0.384127 0.380192 0.3756 0.373171 0.377744 0.381719 
0.385135 0.388038 0.390476 0.392497 0.394153 0.395493 0.396562 0.397405 0.398056 
0.398547 0.398901 0.399132 0.39925 0.399251 0.399128 0.398862 0.398427 0.397793 
0.396917 0.395757 0.394263 0.392383 0.390062 0.387249 0.383893 0.379946 0.375357 
0.373196 0.377768 0.381747 0.385171 0.388083 0.390529 0.392559 0.394221 0.395566 
0.396638 0.39748 0.398129 0.398615 0.398962 0.399185 0.399291 0.399279 0.39914 
0.398857 0.398404 0.397749 0.396852 0.395668 0.394151 0.392247 0.389905 0.387073 
0.383703 0.379748 0.375161 0.373238 0.377808 0.381789 0.385216 0.388132 0.390582 
0.392615 0.394279 0.395624 0.396695 0.397534 0.398179 0.398659 0.398999 0.399213 
0.399308 0.399285 0.399134 0.398837 0.398369 0.397697 0.396784 0.395584 0.394049 
0.39213 0.389773 0.386928 0.383549 0.379589 0.375006 0.373292 0.377861 0.381841 
0.385268 0.388185 0.390635 0.392666 0.394328 0.39567 0.396737 0.397571 0.39821 
0.398683 0.399014 0.399219 0.399306 0.399273 0.399111 0.398803 0.398324 0.397641 
0.396716 0.395504 0.393959 0.392028 0.389662 0.38681 0.383425 0.379463 0.374883 
0.373356 0.377923 0.381901 0.385326 0.38824 0.390686 0.392713 0.39437 0.395705 
0.396766 0.397593 0.398223 0.398689 0.399012 0.399209 0.399287 0.399245 0.399075 
0.398759 0.398272 0.397581 0.396648 0.39543 0.393877 0.391941 0.38957 0.386714 
0.383326 0.379364 0.374787 0.373427 0.377991 0.381966 0.385388 0.388296 0.390736 
0.392756 0.394405 0.395732 0.396783 0.397601 0.398223 0.39868 0.398995 0.399184 
0.399254 0.399205 0.399029 0.398706 0.398214 0.397518 0.396582 0.39536 0.393805 
0.391866 0.389494 0.386637 0.383249 0.379289 0.374715 0.373503 0.378065 0.382036 
0.385452 0.388353 0.390784 0.392795 0.394434 0.395751 0.396792 0.397599 0.398212 
0.398659 0.398965 0.399146 0.39921 0.399155 0.398973 0.398647 0.398152 0.397454 
0.396517 0.395294 0.39374 0.391803 0.389431 0.386576 0.383191 0.379233 0.374662 
0.373582 0.378142 0.382108 0.385517 0.38841 0.390831 0.392831 0.394458 0.395763 
0.396792 0.397588 0.39819 0.398627 0.398925 0.399098 0.399156 0.399096 0.398911 
0.398582 0.398086 0.397389 0.396453 0.395233 0.393682 0.391748 0.389381 0.38653 
0.383148 0.379193 0.374626 0.373665 0.378221 0.382183 0.385584 0.388467 0.390876 
0.392863 0.394477 0.395769 0.396785 0.397569 0.398159 0.398587 0.398876 0.399042 
0.399094 0.39903 0.398842 0.398513 0.398017 0.397323 0.396391 0.395176 0.39363 
0.391702 0.389341 0.386496 0.383119 0.379168 0.374604 0.373749 0.378303 0.382258 
0.385651 0.388523 0.39092 0.392893 0.394493 0.39577 0.396772 0.397543 0.398121 
0.398539 0.398819 0.398978 0.399025 0.398958 0.398769 0.39844 0.397947 0.397257 
0.39633 0.395122 0.393584 0.391664 0.38931 0.386472 0.383101 0.379155 0.374595 
0.373835 0.378386 0.382335 0.385719 0.388578 0.390962 0.39292 0.394504 0.395766 
0.396753 0.397511 0.398077 0.398484 0.398755 0.398908 0.39895 0.398881 0.398691 
0.398364 0.397875 0.39719 0.39627 0.395071 0.393542 0.391632 0.389288 0.386458 
0.383094 0.379153 0.374596 0.373922 0.37847 0.382412 0.385786 0.388633 0.391002 
0.392945 0.394513 0.395758 0.39673 0.397474 0.398027 0.398423 0.398686 0.398832 
0.39887 0.398799 0.39861 0.398286 0.397802 0.397124 0.396213 0.395023 0.393505 
0.391606 0.389272 0.386451 0.383096 0.379161 0.374608 0.37401 0.378554 0.38249 
0.385853 0.388687 0.391041 0.392967 0.394518 0.395747 0.396703 0.397432 0.397973 
0.398358 0.398612 0.398752 0.398786 0.398714 0.398526 0.398206 0.397727 0.397057 
0.396156 0.394977 0.393471 0.391584 0.389262 0.386453 0.383105 0.379176 0.374627 
0.374099 0.37864 0.382568 0.38592 0.388741 0.391079 0.392987 0.394521 0.395732 
0.396672 0.397386 0.397914 0.398288 0.398534 0.398668 0.398699 0.398625 0.39844 
0.398123 0.397652 0.396991 0.3961 0.394934 0.393441 0.391568 0.389258 0.38646 
0.383122 0.3792 0.374655 0.374188 0.378726 0.382646 0.385987 0.388793 0.391115 
0.393005 0.394521 0.395714 0.396637 0.397336 0.397851 0.398214 0.398452 0.39858 
0.398608 0.398534 0.398351 0.39804 0.397575 0.396924 0.396046 0.394893 0.393414 
0.391555 0.389259 0.386473 0.383145 0.37923 0.374688 0.374278 0.378812 0.382725 
0.386054 0.388845 0.39115 0.393022 0.394518 0.395694 0.3966 0.397283 0.397784 
0.398137 0.398366 0.398489 0.398514 0.39844 0.39826 0.397954 0.397499 0.396858 
0.395992 0.394854 0.39339 0.391546 0.389265 0.386491 0.383174 0.379266 0.374729 
0.374369 0.378899 0.382804 0.386121 0.388896 0.391183 0.393037 0.394514 0.395671 
0.396559 0.397227 0.397715 0.398056 0.398278 0.398395 0.398417 0.398344 0.398167 
0.397868 0.397421 0.396792 0.39594 0.394816 0.393368 0.39154 0.389274 0.386515 
0.383208 0.379308 0.374774 0.37446 0.378987 0.382883 0.386187 0.388947 0.391216 
0.39305 0.394508 0.395645 0.396516 0.397168 0.397642 0.397973 0.398186 0.398298 
0.398319 0.398246 0.398073 0.39778 0.397343 0.396726 0.395887 0.39478 0.393349 
0.391537 0.389288 0.386542 0.383247 0.379355 0.374825 0.374552 0.379075 0.382962 
0.386254 0.388998 0.391248 0.393062 0.3945 0.395618 0.396471 0.397106 0.397567 
0.397887 0.398092 0.398199 0.398218 0.398146 0.397977 0.397691 0.397264 0.396659 
0.395836 0.394744 0.393331 0.391537 0.389304 0.386573 0.38329 0.379406 0.374881 
0.374645 0.379164 0.383042 0.38632 0.389048 0.391279 0.393073 0.39449 0.395588 
0.396423 0.397043 0.39749 0.397799 0.397996 0.398098 0.398115 0.398045 0.39788 
0.397602 0.397184 0.396593 0.395785 0.39471 0.393315 0.391539 0.389323 0.386608 
0.383337 0.379462 0.374941 0.374739 0.379254 0.383123 0.386387 0.389097 0.391309 
0.393082 0.394479 0.395557 0.396373 0.396976 0.39741 0.397708 0.397897 0.397995 
0.39801 0.397941 0.397781 0.39751 0.397104 0.396526 0.395734 0.394677 0.3933 
0.391543 0.389346 0.386646 0.383388 0.379522 0.375006 0.374834 0.379344 0.383204 
0.386454 0.389147 0.391339 0.393091 0.394466 0.395524 0.396321 0.396908 0.397328 
0.397615 0.397797 0.39789 0.397903 0.397836 0.397681 0.397418 0.397023 0.396459 
0.395683 0.394644 0.393287 0.39155 0.38937 0.386687 0.383443 0.379586 0.375074 
0.374931 0.379436 0.383286 0.386522 0.389196 0.391368 0.393098 0.394451 0.395489 
0.396267 0.396838 0.397244 0.39752 0.397694 0.397782 0.397794 0.39773 0.397579 
0.397325 0.396941 0.396391 0.395632 0.394612 0.393275 0.391558 0.389398 0.386732 
0.383501 0.379654 0.375147 0.375029 0.379529 0.383369 0.38659 0.389246 0.391396 
0.393105 0.394436 0.395452 0.396211 0.396765 0.397157 0.397423 0.397589 0.397673 
0.397684 0.397621 0.397476 0.397231 0.396858 0.396323 0.395581 0.394581 0.393264 
0.391567 0.389427 0.386779 0.383563 0.379725 0.375223 0.375128 0.379624 0.383453 
0.386659 0.389296 0.391425 0.39311 0.394419 0.395414 0.396154 0.396691 0.397069 
0.397324 0.397483 0.397563 0.397572 0.397512 0.397372 0.397135 0.396775 0.396254 
0.39553 0.394549 0.393253 0.391578 0.389459 0.386829 0.383627 0.3798 0.375303 
0.375229 0.37972 0.383538 0.386728 0.389345 0.391452 0.393115 0.394401 0.395374 
0.396095 0.396615 0.396979 0.397224 0.397375 0.39745 0.397459 0.397401 0.397266 
0.397039 0.39669 0.396185 0.395479 0.394518 0.393244 0.391591 0.389492 0.386881 
0.383695 0.379879 0.375386 0.375331 0.379817 0.383624 0.386798 0.389396 0.39148 
0.393119 0.394382 0.395333 0.396034 0.396537 0.396887 0.397121 0.397265 0.397336 
0.397344 0.397288 0.39716 0.396941 0.396605 0.396115 0.395427 0.394487 0.393235 
0.391605 0.389528 0.386936 0.383766 0.37996 0.375473 0.375436 0.379916 0.383712 
0.386869 0.389446 0.391507 0.393123 0.394361 0.395291 0.395971 0.396457 0.396794 
0.397017 0.397153 0.39722 0.397227 0.397174 0.397051 0.396842 0.396518 0.396044 
0.395375 0.394456 0.393227 0.39162 0.389565 0.386993 0.383839 0.380045 0.375563 
0.375542 0.380017 0.383801 0.386941 0.389497 0.391535 0.393125 0.39434 0.395246 
0.395907 0.396376 0.396698 0.396911 0.39704 0.397103 0.397109 0.397059 0.396942 
0.396741 0.39643 0.395973 0.395322 0.394425 0.393219 0.391636 0.389604 0.387053 
0.383916 0.380133 0.375657 0.375651 0.38012 0.383892 0.387014 0.389548 0.391562 
0.393127 0.394317 0.395201 0.395841 0.396292 0.396601 0.396803 0.396925 0.396984 
0.39699 0.396942 0.396831 0.39664 0.396342 0.3959 0.395269 0.394394 0.393212 
0.391653 0.389644 0.387115 0.383995 0.380225 0.375754 0.375762 0.380225 0.383984 
0.387089 0.3896 0.391589 0.393129 0.394294 0.395154 0.395773 0.396207 0.396502 
0.396693 0.396808 0.396864 0.396869 0.396823 0.396718 0.396537 0.396252 0.395827 
0.395215 0.394363 0.393204 0.39167 0.389687 0.387179 0.384077 0.380319 0.375855 
0.375875 0.380333 0.384079 0.387164 0.389652 0.391616 0.393129 0.394269 0.395105 
0.395704 0.396121 0.396401 0.396582 0.39669 0.396742 0.396746 0.396703 0.396605 
0.396433 0.39616 0.395752 0.395161 0.394331 0.393197 0.391689 0.38973 0.387245 
0.384162 0.380417 0.375959 0.375991 0.380442 0.384175 0.387241 0.389705 0.391642 
0.393129 0.394243 0.395055 0.395633 0.396032 0.396299 0.396469 0.39657 0.396618 
0.396622 0.396582 0.39649 0.396327 0.396068 0.395676 0.395105 0.394298 0.39319 
0.391708 0.389775 0.387314 0.38425 0.380518 0.376066 0.376109 0.380554 0.384273 
0.387319 0.389759 0.391669 0.393128 0.394215 0.395004 0.395561 0.395942 0.396195 
0.396355 0.396448 0.396493 0.396497 0.39646 0.396373 0.39622 0.395974 0.395599 
0.395049 0.394265 0.393183 0.391728 0.389822 0.387384 0.38434 0.380622 0.376177 
0.376231 0.380669 0.384373 0.387398 0.389813 0.391696 0.393127 0.394187 0.394951 
0.395486 0.39585 0.396089 0.396238 0.396325 0.396367 0.39637 0.396335 0.396255 
0.396111 0.395879 0.395521 0.394991 0.394232 0.393176 0.391749 0.38987 0.387457 
0.384434 0.38073 0.376292 0.376355 0.380786 0.384475 0.387479 0.389868 0.391722 
0.393125 0.394157 0.394896 0.39541 0.395756 0.395981 0.396121 0.396201 0.396239 
0.396242 0.39621 0.396135 0.396001 0.395782 0.395441 0.394932 0.394198 0.393169 
0.39177 0.389919 0.387532 0.38453 0.380841 0.37641 0.376483 0.380906 0.38458 
0.387561 0.389924 0.391749 0.393122 0.394126 0.39484 0.395332 0.395661 0.395872 
0.396001 0.396075 0.396109 0.396112 0.396083 0.396015 0.39589 0.395684 0.39536 
0.394873 0.394163 0.393162 0.391792 0.38997 0.387609 0.384629 0.380956 0.376532 
0.376613 0.381029 0.384687 0.387646 0.38998 0.391775 0.393118 0.394094 0.394782 
0.395253 0.395563 0.395761 0.39588 0.395947 0.395978 0.395981 0.395955 0.395892 
0.395777 0.395584 0.395278 0.394812 0.394127 0.393154 0.391814 0.390021 0.387688 
0.384731 0.381074 0.376658 0.376748 0.381156 0.384796 0.387731 0.390037 0.391801 
0.393113 0.39406 0.394723 0.395171 0.395464 0.395648 0.395757 0.395818 0.395846 
0.395848 0.395825 0.395768 0.395663 0.395483 0.395194 0.394749 0.39409 0.393146 
0.391836 0.390074 0.38777 0.384836 0.381196 0.376787 0.376885 0.381285 0.384908 
0.387819 0.390095 0.391828 0.393108 0.394025 0.394662 0.395088 0.395363 0.395533 
0.395633 0.395688 0.395712 0.395714 0.395694 0.395643 0.395546 0.39538 0.395108 
0.394685 0.394052 0.393137 0.391859 0.390128 0.387853 0.384944 0.381321 0.376921 
0.377027 0.381418 0.385023 0.387908 0.390154 0.391854 0.393101 0.393989 0.394599 
0.395003 0.39526 0.395417 0.395507 0.395556 0.395577 0.395579 0.395561 0.395516 
0.395429 0.395275 0.395021 0.39462 0.394012 0.393127 0.391882 0.390184 0.387939 
0.385055 0.38145 0.377059 0.377172 0.381555 0.385141 0.387999 0.390213 0.391879 
0.393094 0.39395 0.394534 0.394916 0.395155 0.395299 0.39538 0.395423 0.395441 
0.395443 0.395427 0.395388 0.39531 0.395169 0.394932 0.394553 0.393972 0.393117 
0.391904 0.39024 0.388027 0.385169 0.381584 0.377201 0.377322 0.381695 0.385261 
0.388092 0.390273 0.391905 0.393085 0.393911 0.394467 0.394826 0.395048 0.395179 
0.395251 0.395288 0.395303 0.395305 0.395292 0.395258 0.395189 0.395061 0.394841 
0.394484 0.39393 0.393106 0.391927 0.390297 0.388117 0.385287 0.381721 0.377348 
0.377476 0.381839 0.385385 0.388186 0.390334 0.39193 0.393075 0.393869 0.394398 
0.394735 0.39494 0.395057 0.395121 0.395152 0.395165 0.395166 0.395155 0.395127 
0.395066 0.394951 0.394748 0.394413 0.393886 0.393094 0.39195 0.390356 0.388209 
0.385408 0.381862 0.377499 0.377635 0.381987 0.385511 0.388283 0.390396 0.391954 
0.393064 0.393826 0.394327 0.394642 0.394829 0.394934 0.394988 0.395014 0.395024 
0.395026 0.395018 0.394994 0.394942 0.394839 0.394653 0.39434 0.393841 0.393081 
0.391972 0.390415 0.388303 0.385532 0.382008 0.377655 0.377798 0.38214 0.385641 
0.388382 0.390458 0.391978 0.393052 0.39378 0.394253 0.394546 0.394717 0.394809 
0.394855 0.394875 0.394883 0.394884 0.394878 0.39486 0.394816 0.394725 0.394557 
0.394266 0.393794 0.393067 0.391995 0.390475 0.3884 0.38566 0.382158 0.377817 
0.377966 0.382296 0.385775 0.388482 0.390521 0.392002 0.393038 0.393733 0.394178 
0.394448 0.394602 0.394682 0.39472 0.394735 0.394741 0.394742 0.394738 0.394724 
0.394688 0.39461 0.394458 0.394189 0.393745 0.393051 0.392016 0.390536 0.388498 
0.385791 0.382313 0.377983 0.37814 0.382458 0.385911 0.388585 0.390584 0.392024 
0.393022 0.393683 0.3941 0.394348 0.394485 0.394554 0.394583 0.394594 0.394597 
0.394598 0.394597 0.394588 0.394559 0.394492 0.394357 0.39411 0.393694 0.393034 
0.392037 0.390598 0.388599 0.385926 0.382473 0.378155 0.378319 0.382624 0.386052 
0.388689 0.390647 0.392046 0.393004 0.393631 0.39402 0.394246 0.394366 0.394423 
0.394446 0.394452 0.394452 0.394453 0.394454 0.394449 0.394428 0.394373 0.394253 
0.394028 0.393641 0.393015 0.392058 0.39066 0.388702 0.386065 0.382638 0.378332 
0.378504 0.382796 0.386196 0.388796 0.390711 0.392067 0.392985 0.393576 0.393937 
0.394141 0.394246 0.394292 0.394306 0.394308 0.394307 0.394308 0.39431 0.39431 
0.394296 0.394251 0.394148 0.393945 0.393585 0.392994 0.392077 0.390722 0.388808 
0.386207 0.382808 0.378516 0.378695 0.382972 0.386343 0.388905 0.390776 0.392086 
0.392963 0.393519 0.393851 0.394034 0.394123 0.394158 0.394166 0.394163 0.39416 
0.394161 0.394165 0.394169 0.394162 0.394128 0.39404 0.393858 0.393527 0.392971 
0.392095 0.390786 0.388915 0.386354 0.382983 0.378705 0.378892 0.383155 0.386495 
0.389015 0.39084 0.392104 0.392939 0.393459 0.393763 0.393924 0.393998 0.394023 
0.394024 0.394018 0.394013 0.394013 0.394019 0.394027 0.394026 0.394002 0.393929 
0.393769 0.393466 0.392946 0.392113 0.390849 0.389024 0.386505 0.383164 0.378902 
0.379096 0.383343 0.386651 0.389128 0.390904 0.392121 0.392912 0.393397 0.393672 
0.393812 0.393871 0.393886 0.393881 0.393871 0.393865 0.393865 0.393873 0.393883 
0.393889 0.393875 0.393817 0.393677 0.393403 0.392919 0.392128 0.390912 0.389136 
0.38666 0.383351 0.379105 0.379307 0.383537 0.386811 0.389242 0.390968 0.392135 
0.392882 0.393331 0.393577 0.393697 0.393742 0.393747 0.393737 0.393724 0.393716 