# vtk DataFile Version 5.1
vtk output
ASCII
DATASET UNSTRUCTURED_GRID
POINTS 9610 double
0.1016 1.5 0 0.1016 1.45 5.1584879698e-20 0.1016 1.4 8.2585350466e-20 
0.1016 1.35 0 0.1016 1.3 0 0.1016 1.25 7.633537409e-20 
0.1016 1.2 -1.0472138867e-19 0.1016 1.15 -1.0474616531e-19 0.1016 1.1 0 
0.1016 1.05 0 0.1016 1 7.6430874677e-20 0.1016 0.95 -1.047413444e-19 
0.1016 0.9 7.6430971612e-20 0.1016 0.85 1.9900855048e-18 0.1016 0.8 -1.0474130562e-19 
0.1016 0.75 7.6430325377e-20 0.1016 0.7 2.0948253887e-18 0.1016 0.65 0 
0.1016 0.6 1.9900857116e-18 0.1016 0.55 0 0.1016 0.5 -1.0474154473e-19 
0.1016 0.45 0 0.1016 0.4 -1.0474482114e-19 0.1016 0.35 0 
0.1016 0.3 0 0.1016 0.25 0 0.1016 0.2 7.5297934506e-20 
0.1016 0.15 -9.0429310344e-20 0.1016 0.1 -9.209014038e-20 0.1016 0.05 -7.6045124168e-20 
0.1016 0 0 5.08 1.5 0.28700000048 5.08 1.45 0.28700000048 
5.08 1.4 0.28700000048 5.08 1.35 0.28700000048 5.08 1.3 0.28700000048 
5.08 1.25 0.28700000048 5.08 1.2 0.28700000048 5.08 1.15 0.28700000048 
5.08 1.1 0.28700000048 5.08 1.05 0.28700000048 5.08 1 0.28700000048 
5.08 0.95 0.28700000048 5.08 0.9 0.28700000048 5.08 0.85 0.28700000048 
5.08 0.8 0.28700000048 5.08 0.75 0.28700000048 5.08 0.7 0.28700000048 
5.08 0.65 0.28700000048 5.08 0.6 0.28700000048 5.08 0.55 0.28700000048 
5.08 0.5 0.28700000048 5.08 0.45 0.28700000048 5.08 0.4 0.28700000048 
5.08 0.35 0.28700000048 5.08 0.3 0.28700000048 5.08 0.25 0.28700000048 
5.08 0.2 0.28700000048 5.08 0.15 0.28700000048 5.08 0.1 0.28700000048 
5.08 0.05 0.28700000048 5.08 0 0.28700000048 0.151384 1.5 0.02146493271 
0.151384 1.45 0.021448900923 0.151384 1.4 0.021452795714 0.151384 1.35 0.021451983601 
0.151384 1.3 0.021452168003 0.151384 1.25 0.021452125162 0.151384 1.2 0.021452134475 
0.151384 1.15 0.021452132612 0.151384 1.1 0.021452134475 0.151384 1.05 0.021452132612 
0.151384 1 0.021452134475 0.151384 0.95 0.021452132612 0.151384 0.9 0.021452132612 
0.151384 0.85 0.021452132612 0.151384 0.8 0.021452132612 0.151384 0.75 0.021452134475 
0.151384 0.7 0.021452134475 0.151384 0.65 0.021452134475 0.151384 0.6 0.021452134475 
0.151384 0.55 0.021452134475 0.151384 0.5 0.021452134475 0.151384 0.45 0.021452132612 
0.151384 0.4 0.021452134475 0.151384 0.35 0.021452132612 0.151384 0.3 0.021452134475 
0.151384 0.25 0.021452127025 0.151384 0.2 0.021452162415 0.151384 0.15 0.02145200409 
0.151384 0.1 0.021452706307 0.151384 0.05 0.02144934237 0.151384 0 0.021464604884 
0.201168 1.5 0.04984471947 0.201168 1.45 0.049860715866 0.201168 1.4 0.04986718297 
0.201168 1.35 0.049865700305 0.201168 1.3 0.049866013229 0.201168 1.25 0.049865946174 
0.201168 1.2 0.049865961075 0.201168 1.15 0.04986595735 0.201168 1.1 0.04986595735 
0.201168 1.05 0.04986595735 0.201168 1 0.04986595735 0.201168 0.95 0.04986595735 
0.201168 0.9 0.04986595735 0.201168 0.85 0.04986595735 0.201168 0.8 0.04986595735 
0.201168 0.75 0.04986595735 0.201168 0.7 0.04986595735 0.201168 0.65 0.04986595735 
0.201168 0.6 0.04986595735 0.201168 0.55 0.04986595735 0.201168 0.5 0.04986595735 
0.201168 0.45 0.04986595735 0.201168 0.4 0.04986595735 0.201168 0.35 0.04986595735 
0.201168 0.3 0.049865961075 0.201168 0.25 0.049865946174 0.201168 0.2 0.049866005778 
0.201168 0.15 0.049865730107 0.201168 0.1 0.049867045134 0.201168 0.05 0.049861267209 
0.201168 0 0.049844291061 0.250952 1.5 0.083479054272 0.250952 1.45 0.083398230374 
0.250952 1.4 0.083408355713 0.250952 1.35 0.083406820893 0.250952 1.3 0.083407111466 
0.250952 1.25 0.083407051861 0.250952 1.2 0.083407066762 0.250952 1.15 0.083407066762 
0.250952 1.1 0.083407066762 0.250952 1.05 0.083407066762 0.250952 1 0.083407066762 
0.250952 0.95 0.083407066762 0.250952 0.9 0.083407066762 0.250952 0.85 0.083407066762 
0.250952 0.8 0.083407066762 0.250952 0.75 0.083407066762 0.250952 0.7 0.083407066762 
0.250952 0.65 0.083407066762 0.250952 0.6 0.083407066762 0.250952 0.55 0.083407066762 
0.250952 0.5 0.083407066762 0.250952 0.45 0.083407066762 0.250952 0.4 0.083407066762 
0.250952 0.35 0.083407066762 0.250952 0.3 0.083407066762 0.250952 0.25 0.083407059312 
0.250952 0.2 0.083407104015 0.250952 0.15 0.083406858146 0.250952 0.1 0.083408199251 
0.250952 0.05 0.083398923278 0.250952 0 0.083478525281 0.300736 1.5 0.14716693759 
0.300736 1.45 0.14724357426 0.300736 1.4 0.14723330736 0.300736 1.35 0.14723455906 
0.300736 1.3 0.14723439515 0.300736 1.25 0.14723441005 0.300736 1.2 0.14723441005 
0.300736 1.15 0.14723441005 0.300736 1.1 0.14723441005 0.300736 1.05 0.14723441005 
0.300736 1 0.14723441005 0.300736 0.95 0.14723441005 0.300736 0.9 0.14723441005 
0.300736 0.85 0.14723441005 0.300736 0.8 0.14723441005 0.300736 0.75 0.14723441005 
0.300736 0.7 0.14723441005 0.300736 0.65 0.14723441005 0.300736 0.6 0.14723441005 
0.300736 0.55 0.14723441005 0.300736 0.5 0.14723441005 0.300736 0.45 0.14723441005 
0.300736 0.4 0.14723441005 0.300736 0.35 0.14723441005 0.300736 0.3 0.14723441005 
0.300736 0.25 0.14723441005 0.300736 0.2 0.14723438025 0.300736 0.15 0.14723460376 
0.300736 0.1 0.14723312855 0.300736 0.05 0.14724433422 0.300736 0 0.14716635644 
0.35052 1.5 0.15515324473 0.35052 1.45 0.15522770584 0.35052 1.4 0.15521581471 
0.35052 1.35 0.15521745384 0.35052 1.3 0.15521720052 0.35052 1.25 0.15521724522 
0.35052 1.2 0.15521723032 0.35052 1.15 0.15521723032 0.35052 1.1 0.15521723032 
0.35052 1.05 0.15521723032 0.35052 1 0.15521723032 0.35052 0.95 0.15521723032 
0.35052 0.9 0.15521723032 0.35052 0.85 0.15521723032 0.35052 0.8 0.15521723032 
0.35052 0.75 0.15521723032 0.35052 0.7 0.15521723032 0.35052 0.65 0.15521723032 
0.35052 0.6 0.15521723032 0.35052 0.55 0.15521723032 0.35052 0.5 0.15521723032 
0.35052 0.45 0.15521723032 0.35052 0.4 0.15521723032 0.35052 0.35 0.15521723032 
0.35052 0.3 0.15521723032 0.35052 0.25 0.15521724522 0.35052 0.2 0.15521720052 
0.35052 0.15 0.15521749854 0.35052 0.1 0.1552156359 0.35052 0.05 0.1552284956 
0.35052 0 0.15515261889 0.400304 1.5 0.18852005899 0.400304 1.45 0.18836417794 
0.400304 1.4 0.18838000298 0.400304 1.35 0.18837818503 0.400304 1.3 0.18837840855 
0.400304 1.25 0.18837839365 0.400304 1.2 0.18837839365 0.400304 1.15 0.18837839365 
0.400304 1.1 0.18837839365 0.400304 1.05 0.18837839365 0.400304 1 0.18837839365 
0.400304 0.95 0.18837839365 0.400304 0.9 0.18837839365 0.400304 0.85 0.18837839365 
0.400304 0.8 0.18837839365 0.400304 0.75 0.18837839365 0.400304 0.7 0.18837839365 
0.400304 0.65 0.18837839365 0.400304 0.6 0.18837839365 0.400304 0.55 0.18837839365 
0.400304 0.5 0.18837839365 0.400304 0.45 0.18837839365 0.400304 0.4 0.18837839365 
0.400304 0.35 0.18837839365 0.400304 0.3 0.18837839365 0.400304 0.25 0.18837839365 
0.400304 0.2 0.18837839365 0.400304 0.15 0.18837822974 0.400304 0.1 0.18837982416 
0.400304 0.05 0.18836499751 0.400304 0 0.18851940334 0.450088 1.5 0.22610981762 
0.450088 1.45 0.22619141638 0.450088 1.4 0.22619566321 0.450088 1.35 0.22619527578 
0.450088 1.3 0.22619529068 0.450088 1.25 0.22619530559 0.450088 1.2 0.22619529068 
0.450088 1.15 0.22619529068 0.450088 1.1 0.22619529068 0.450088 1.05 0.22619529068 
0.450088 1 0.22619529068 0.450088 0.95 0.22619529068 0.450088 0.9 0.22619529068 
0.450088 0.85 0.22619529068 0.450088 0.8 0.22619529068 0.450088 0.75 0.22619529068 
0.450088 0.7 0.22619529068 0.450088 0.65 0.22619529068 0.450088 0.6 0.22619529068 
0.450088 0.55 0.22619529068 0.450088 0.5 0.22619529068 0.450088 0.45 0.22619529068 
0.450088 0.4 0.22619529068 0.450088 0.35 0.22619530559 0.450088 0.3 0.22619529068 
0.450088 0.25 0.22619530559 0.450088 0.2 0.22619527578 0.450088 0.15 0.22619532049 
0.450088 0.1 0.2261954695 0.450088 0.05 0.22619225085 0.450088 0 0.22610916197 
0.499872 1.5 0.260286659 0.499872 1.45 0.26024150848 0.499872 1.4 0.26022011042 
0.499872 1.35 0.26022422314 0.499872 1.3 0.26022326946 0.499872 1.25 0.26022350788 
0.499872 1.2 0.26022344828 0.499872 1.15 0.26022347808 0.499872 1.1 0.26022344828 
0.499872 1.05 0.26022344828 0.499872 1 0.26022344828 0.499872 0.95 0.26022344828 
0.499872 0.9 0.26022344828 0.499872 0.85 0.26022344828 0.499872 0.8 0.26022344828 
0.499872 0.75 0.26022344828 0.499872 0.7 0.26022344828 0.499872 0.65 0.26022344828 
0.499872 0.6 0.26022344828 0.499872 0.55 0.26022344828 0.499872 0.5 0.26022344828 
0.499872 0.45 0.26022344828 0.499872 0.4 0.26022344828 0.499872 0.35 0.26022347808 
0.499872 0.3 0.26022344828 0.499872 0.25 0.26022350788 0.499872 0.2 0.26022326946 
0.499872 0.15 0.26022425294 0.499872 0.1 0.2602199018 0.499872 0.05 0.26024246216 
0.499872 0 0.26028591394 0.549656 1.5 0.28591999412 0.549656 1.45 0.28591999412 
0.549656 1.4 0.28591999412 0.549656 1.35 0.28591999412 0.549656 1.3 0.28591999412 
0.549656 1.25 0.28591999412 0.549656 1.2 0.28591999412 0.549656 1.15 0.28591999412 
0.549656 1.1 0.28591999412 0.549656 1.05 0.28591999412 0.549656 1 0.28591999412 
0.549656 0.95 0.28591999412 0.549656 0.9 0.28591999412 0.549656 0.85 0.28591999412 
0.549656 0.8 0.28591999412 0.549656 0.75 0.28591999412 0.549656 0.7 0.28591999412 
0.549656 0.65 0.28591999412 0.549656 0.6 0.28591999412 0.549656 0.55 0.28591999412 
0.549656 0.5 0.28591999412 0.549656 0.45 0.28591999412 0.549656 0.4 0.28591999412 
0.549656 0.35 0.28591999412 0.549656 0.3 0.28591999412 0.549656 0.25 0.28591999412 
0.549656 0.2 0.28591999412 0.549656 0.15 0.28591999412 0.549656 0.1 0.28591999412 
0.549656 0.05 0.28591999412 0.549656 0 0.28591999412 0.59944 1.5 0.28700000048 
0.59944 1.45 0.28700000048 0.59944 1.4 0.28700000048 0.59944 1.35 0.28700000048 
0.59944 1.3 0.28700000048 0.59944 1.25 0.28700000048 0.59944 1.2 0.28700000048 
0.59944 1.15 0.28700000048 0.59944 1.1 0.28700000048 0.59944 1.05 0.28700000048 
0.59944 1 0.28700000048 0.59944 0.95 0.28700000048 0.59944 0.9 0.28700000048 
0.59944 0.85 0.28700000048 0.59944 0.8 0.28700000048 0.59944 0.75 0.28700000048 
0.59944 0.7 0.28700000048 0.59944 0.65 0.28700000048 0.59944 0.6 0.28700000048 
0.59944 0.55 0.28700000048 0.59944 0.5 0.28700000048 0.59944 0.45 0.28700000048 
0.59944 0.4 0.28700000048 0.59944 0.35 0.28700000048 0.59944 0.3 0.28700000048 
[...]
CELL_DATA 9270
FIELD FieldData 7
B_Stress_n_p_m2 1 9270 float
0.225234 0.218654 0.218721 0.222691 0.22157 0.221343 0.221047 0.220878 0.22078 
0.220742 0.220729 0.220753 0.220811 0.220913 0.221029 0.221147 0.221255 0.221349 
0.221432 0.221514 0.221603 0.2217 0.221821 0.22198 0.222234 0.222404 0.223474 
0.219452 0.219346 0.225967 0.0957417 0.0967192 0.120125 0.118585 0.116839 0.115263 
0.114252 0.113607 0.113199 0.112934 0.112771 0.112675 0.112629 0.112619 0.112634 
0.112669 0.112724 0.112803 0.11291 0.113056 0.113257 0.113548 0.11397 0.114619 
0.115626 0.117191 0.118926 0.120473 0.0970414 0.0961175 0.0933067 0.143264 0.158184 
0.157309 0.15417 0.1517 0.150073 0.148976 0.148251 0.147754 0.147422 0.147203 
0.14707 0.147004 0.146997 0.147042 0.147134 0.147273 0.147467 0.147736 0.148106 
0.14863 0.14937 0.150473 0.152096 0.154556 0.15769 0.158584 0.143682 0.0936472 
0.102992 0.167115 0.186386 0.186629 0.183504 0.180695 0.178739 0.177352 0.176401 
0.175731 0.175271 0.174958 0.174761 0.174654 0.174625 0.174665 0.174771 0.174948 
0.175207 0.175571 0.176073 0.176774 0.177744 0.179142 0.181099 0.183907 0.187035 
0.186824 0.167583 0.103346 0.115795 0.186306 0.20757 0.208822 0.206126 0.203441 
0.201491 0.200046 0.199017 0.19827 0.19774 0.197371 0.19713 0.196993 0.196947 
0.196983 0.197101 0.197303 0.197602 0.198021 0.198592 0.199371 0.200422 0.201881 
0.203838 0.206525 0.209232 0.20802 0.186791 0.116192 0.137134 0.211153 0.234183 
0.236552 0.234634 0.232366 0.230615 0.229247 0.228227 0.227458 0.226893 0.226489 
0.226218 0.22606 0.226001 0.226034 0.226159 0.22638 0.226707 0.227161 0.227767 
0.22857 0.229616 0.231001 0.232763 0.23504 0.236973 0.234641 0.21164 0.137521 
0.17721 0.257346 0.282747 0.286542 0.285624 0.283917 0.282444 0.281199 0.28021 
0.279427 0.27883 0.278389 0.278085 0.277903 0.277832 0.277866 0.278004 0.27825 
0.278613 0.279106 0.279749 0.280568 0.281588 0.282856 0.284345 0.286066 0.287005 
0.283249 0.2579 0.17762 0.226465 0.31318 0.340631 0.345891 0.346004 0.344956 
0.343846 0.342801 0.341903 0.341155 0.340559 0.340105 0.339785 0.339588 0.33951 
0.339545 0.339693 0.339955 0.340338 0.340847 0.341493 0.342283 0.343214 0.344287 
0.345419 0.346487 0.346397 0.341178 0.313773 0.226988 0.265734 0.357014 0.385055 
0.391126 0.391937 0.391438 0.390694 0.389897 0.389155 0.388503 0.387962 0.387538 
0.387232 0.387041 0.386964 0.386999 0.387144 0.387401 0.387768 0.388249 0.38884 
0.389535 0.390314 0.391141 0.391911 0.392431 0.391646 0.385616 0.357606 0.266223 
0.279933 0.371784 0.398597 0.404538 0.405558 0.405384 0.404927 0.404371 0.403814 
0.4033 0.402858 0.402503 0.402242 0.402078 0.402011 0.402043 0.402171 0.402395 
0.402713 0.403121 0.40361 0.404165 0.404758 0.405345 0.405827 0.406023 0.40503 
0.399126 0.372357 0.280424 0.281748 0.372444 0.397673 0.403119 0.404073 0.404035 
0.403754 0.403376 0.402974 0.402588 0.402246 0.401965 0.401755 0.401622 0.401569 
0.401597 0.401704 0.40189 0.40215 0.402478 0.402862 0.403286 0.403722 0.404129 
0.404435 0.404494 0.403565 0.398153 0.372962 0.282192 0.283451 0.373509 0.397708 
0.402735 0.403562 0.403557 0.403365 0.403097 0.402802 0.402512 0.402248 0.402028 
0.401862 0.401757 0.401715 0.401739 0.401829 0.401982 0.402193 0.402455 0.402756 
0.403082 0.403407 0.403702 0.403917 0.403943 0.403139 0.398143 0.373978 0.283855 
0.284702 0.374257 0.397746 0.402447 0.403147 0.403132 0.402979 0.402776 0.402552 
0.40233 0.402126 0.401954 0.401823 0.40174 0.401708 0.40173 0.401804 0.401929 
0.4021 0.40231 0.402548 0.402802 0.403054 0.403283 0.403457 0.403492 0.402812 
0.39814 0.374682 0.285068 0.285779 0.37487 0.397823 0.402271 0.402866 0.402824 
0.402685 0.402517 0.40234 0.402164 0.402003 0.401867 0.401764 0.401699 0.401675 
0.401694 0.401756 0.401858 0.401998 0.402168 0.40236 0.402564 0.402768 0.402958 
0.403118 0.403177 0.402601 0.39818 0.375256 0.286111 0.286751 0.375385 0.397896 
0.402143 0.402653 0.402584 0.402445 0.402297 0.402147 0.402004 0.401873 0.401764 
0.401681 0.401629 0.401611 0.401628 0.40168 0.401765 0.40188 0.40202 0.402179 
0.402349 0.402522 0.402692 0.402849 0.402934 0.402442 0.398219 0.375734 0.287052 
0.287664 0.375837 0.397959 0.402039 0.402483 0.402389 0.402245 0.402106 0.401973 
0.40185 0.401741 0.40165 0.401583 0.401541 0.401527 0.401542 0.401586 0.401658 
0.401755 0.401873 0.402007 0.402154 0.402308 0.402467 0.402628 0.402736 0.402309 
0.39825 0.376152 0.287935 0.288541 0.376247 0.398009 0.401945 0.402336 0.402221 
0.402071 0.401935 0.401812 0.401703 0.401608 0.401531 0.401473 0.401439 0.401428 
0.401441 0.40148 0.401541 0.401624 0.401726 0.401844 0.401975 0.402118 0.402271 
0.402437 0.402565 0.402189 0.398272 0.376532 0.288787 0.2894 0.37663 0.398048 
0.401855 0.402202 0.402071 0.401915 0.40178 0.401662 0.401561 0.401475 0.401407 
0.401357 0.401327 0.401318 0.40133 0.401364 0.401418 0.401491 0.401581 0.401688 
0.401809 0.401944 0.402095 0.402265 0.402409 0.402075 0.398285 0.376888 0.289622 
0.290249 0.376995 0.398078 0.401765 0.402076 0.401932 0.40177 0.401634 0.401519 
0.401423 0.401343 0.401281 0.401236 0.401209 0.401201 0.401212 0.401242 0.40129 
0.401356 0.401439 0.401537 0.401651 0.401782 0.401933 0.402107 0.402263 0.401964 
0.398292 0.377227 0.29045 0.291093 0.377346 0.3981 0.401674 0.401953 0.401799 
0.401633 0.401495 0.401381 0.401287 0.401212 0.401153 0.401111 0.401086 0.401079 
0.401089 0.401116 0.40116 0.401221 0.401298 0.40139 0.4015 0.401628 0.401779 
0.401957 0.402122 0.401853 0.398293 0.377556 0.291274 0.291936 0.377688 0.398115 
0.401581 0.401833 0.40167 0.401499 0.40136 0.401246 0.401154 0.401081 0.401024 
0.400984 0.40096 0.400953 0.400962 0.400987 0.401028 0.401085 0.401158 0.401247 
0.401353 0.40148 0.401632 0.401812 0.401985 0.401743 0.39829 0.377877 0.2921 
0.292782 0.378023 0.398126 0.401487 0.401713 0.401542 0.401369 0.401228 0.401114 
0.401022 0.40095 0.400894 0.400856 0.400832 0.400825 0.400833 0.400856 0.400895 
0.400949 0.401019 0.401106 0.401211 0.401336 0.401488 0.401671 0.40185 0.401633 
0.398283 0.378194 0.29293 0.293631 0.378353 0.398132 0.40139 0.401592 0.401416 
0.40124 0.401098 0.400983 0.400891 0.400819 0.400764 0.400726 0.400703 0.400695 
0.400702 0.400725 0.400762 0.400814 0.400882 0.400967 0.40107 0.401195 0.401348 
0.401532 0.401716 0.401522 0.398274 0.378507 0.293765 0.294485 0.378679 0.398134 
0.401291 0.401471 0.40129 0.401112 0.400968 0.400853 0.400761 0.400689 0.400634 
0.400596 0.400572 0.400564 0.400571 0.400592 0.400628 0.400678 0.400745 0.400829 
0.400931 0.401056 0.401209 0.401395 0.401583 0.40141 0.398262 0.378818 0.294606 
0.295345 0.379002 0.398132 0.401191 0.401349 0.401163 0.400984 0.400839 0.400723 
0.40063 0.400558 0.400503 0.400465 0.400441 0.400433 0.400439 0.400459 0.400494 
0.400543 0.400609 0.400691 0.400793 0.400918 0.401071 0.401258 0.40145 0.401298 
0.398247 0.379127 0.295454 0.296211 0.379321 0.398127 0.401088 0.401227 0.401037 
0.400856 0.40071 0.400593 0.4005 0.400427 0.400372 0.400333 0.40031 0.400301 
0.400306 0.400325 0.400359 0.400408 0.400473 0.400555 0.400657 0.400781 0.400934 
0.401122 0.401318 0.401185 0.398231 0.379434 0.29631 0.297084 0.379639 0.398119 
0.400984 0.401103 0.400909 0.400727 0.40058 0.400463 0.400369 0.400296 0.40024 
0.400201 0.400177 0.400168 0.400173 0.400192 0.400225 0.400273 0.400337 0.400419 
0.40052 0.400645 0.400798 0.400986 0.401185 0.401071 0.398213 0.37974 0.297173 
0.297964 0.379954 0.398108 0.400878 0.400979 0.400782 0.400598 0.40045 0.400332 
0.400238 0.400164 0.400109 0.400069 0.400045 0.400035 0.400039 0.400057 0.40009 
0.400138 0.400202 0.400283 0.400384 0.400509 0.400662 0.400851 0.401053 0.400957 
0.398193 0.380045 0.298045 0.298852 0.380267 0.398095 0.400771 0.400853 0.400653 
0.400469 0.40032 0.400202 0.400107 0.400033 0.399976 0.399937 0.399912 0.399901 
0.399905 0.399923 0.399956 0.400003 0.400066 0.400147 0.400248 0.400373 0.400527 
0.400716 0.40092 0.400842 0.398171 0.380349 0.298925 0.299748 0.380578 0.398079 
0.400662 0.400727 0.400524 0.400339 0.40019 0.40007 0.399975 0.399901 0.399844 
0.399804 0.399778 0.399768 0.399771 0.399789 0.399821 0.399868 0.399931 0.400012 
0.400113 0.400237 0.400391 0.40058 0.400787 0.400726 0.398147 0.380652 0.299813 
0.300652 0.380887 0.39806 0.400552 0.4006 0.400394 0.400208 0.400058 0.399939 
0.399843 0.399768 0.399711 0.39967 0.399645 0.399634 0.399637 0.399654 0.399686 
0.399733 0.399796 0.399876 0.399977 0.400101 0.400255 0.400445 0.400654 0.40061 
0.398122 0.380954 0.30071 0.301564 0.381194 0.398039 0.400441 0.400472 0.400263 
0.400077 0.399927 0.399807 0.39971 0.399635 0.399578 0.399537 0.399511 0.399499 
0.399502 0.399519 0.399551 0.399597 0.39966 0.39974 0.399841 0.399965 0.400119 
0.400309 0.400521 0.400493 0.398095 0.381255 0.301617 0.302484 0.3815 0.398016 
0.400328 0.400343 0.400132 0.399945 0.399795 0.399674 0.399578 0.399502 0.399444 
0.399403 0.399376 0.399365 0.399367 0.399384 0.399415 0.399462 0.399524 0.399604 
0.399705 0.399829 0.399983 0.400174 0.400387 0.400375 0.398066 0.381554 0.302532 
0.303413 0.381804 0.39799 0.400214 0.400214 0.400001 0.399813 0.399662 0.399541 
0.399444 0.399368 0.39931 0.399268 0.399242 0.39923 0.399232 0.399249 0.39928 
0.399326 0.399388 0.399468 0.399569 0.399693 0.399847 0.400038 0.400254 0.400257 
0.398035 0.381853 0.303456 0.304351 0.382105 0.397962 0.400099 0.400084 0.399868 
0.39968 0.399529 0.399408 0.39931 0.399234 0.399175 0.399134 0.399107 0.399095 
0.399097 0.399113 0.399144 0.39919 0.399252 0.399332 0.399433 0.399557 0.399711 
0.399902 0.400119 0.400138 0.398003 0.38215 0.30439 0.305297 0.382405 0.397931 
0.399983 0.399953 0.399735 0.399547 0.399395 0.399274 0.399176 0.399099 0.399041 
0.398998 0.398971 0.398959 0.398961 0.398977 0.399008 0.399053 0.399116 0.399196 
0.399296 0.399421 0.399575 0.399766 0.399985 0.400018 0.397968 0.382445 0.305332 
0.306253 0.382704 0.397899 0.399866 0.399821 0.399602 0.399413 0.399261 0.399139 
0.399041 0.398965 0.398905 0.398863 0.398836 0.398823 0.398825 0.398841 0.398871 
0.398917 0.398979 0.399059 0.39916 0.399284 0.399438 0.399629 0.39985 0.399897 
0.397932 0.382739 0.306285 0.307218 0.383 0.397864 0.399748 0.399689 0.399468 
0.399279 0.399126 0.399004 0.398906 0.398829 0.39877 0.398727 0.3987 0.398687 
0.398688 0.398704 0.398735 0.39878 0.398842 0.398922 0.399023 0.399147 0.399301 
0.399493 0.399715 0.399776 0.397894 0.383032 0.307247 0.308192 0.383294 0.397827 
0.399629 0.399556 0.399333 0.399144 0.398991 0.398869 0.398771 0.398693 0.398634 
0.398591 0.398563 0.39855 0.398552 0.398567 0.398598 0.398643 0.398705 0.398785 
0.398886 0.39901 0.399164 0.399356 0.39958 0.399654 0.397854 0.383323 0.308218 
0.309176 0.383586 0.397787 0.399508 0.399423 0.399198 0.399008 0.398856 0.398733 
0.398635 0.398557 0.398497 0.398454 0.398426 0.398413 0.398415 0.39843 0.398461 
0.398506 0.398568 0.398648 0.398748 0.398873 0.399027 0.399218 0.399444 0.399531 
0.397812 0.383612 0.3092 0.31017 0.383876 0.397746 0.399387 0.399289 0.399063 
0.398873 0.39872 0.398597 0.398498 0.398421 0.398361 0.398317 0.398289 0.398276 
0.398277 0.398293 0.398323 0.398368 0.39843 0.39851 0.398611 0.398735 0.398889 
0.399081 0.399309 0.399407 0.397768 0.3839 0.310191 0.311173 0.384164 0.397702 
0.399265 0.399155 0.398927 0.398736 0.398583 0.398461 0.398361 0.398284 0.398223 
0.39818 0.398152 0.398139 0.39814 0.398155 0.398185 0.39823 0.398292 0.398372 
0.398473 0.398597 0.398752 0.398943 0.399172 0.399283 0.397722 0.384185 0.311192 
0.312187 0.384449 0.397656 0.399141 0.39902 0.39879 0.3986 0.398446 0.398323 
0.398224 0.398146 0.398086 0.398042 0.398014 0.398001 0.398002 0.398017 0.398047 
0.398092 0.398154 0.398234 0.398335 0.398459 0.398613 0.398805 0.399035 0.399158 
0.397674 0.384468 0.312204 0.31321 0.384732 0.397608 0.399017 0.398884 0.398653 
0.398463 0.398309 0.398186 0.398086 0.398008 0.397948 0.397904 0.397876 0.397862 
0.397863 0.397878 0.397908 0.397953 0.398016 0.398095 0.398196 0.39832 0.398475 
0.398667 0.398898 0.399032 0.397624 0.384749 0.313225 0.314244 0.385013 0.397557 
0.398892 0.398748 0.398516 0.398325 0.398171 0.398048 0.397948 0.39787 0.39781 
0.397766 0.397737 0.397724 0.397724 0.39774 0.39777 0.397815 0.397877 0.397956 
0.398057 0.398181 0.398336 0.398528 0.398761 0.398906 0.397571 0.385028 0.314258 
0.315288 0.385291 0.397504 0.398766 0.398612 0.398378 0.398187 0.398033 0.39791 
0.39781 0.397732 0.397671 0.397627 0.397598 0.397585 0.397585 0.3976 0.39763 
0.397675 0.397738 0.397817 0.397918 0.398042 0.398197 0.398389 0.398623 0.398778 
0.397517 0.385305 0.3153 0.316342 0.385566 0.397449 0.398639 0.398475 0.39824 
0.398049 0.397895 0.397771 0.397671 0.397593 0.397532 0.397488 0.397459 0.397445 
0.397446 0.397461 0.397491 0.397536 0.397598 0.397677 0.397778 0.397903 0.398058 
0.39825 0.398485 0.39865 0.397461 0.385579 0.316354 0.317408 0.385839 0.397392 
0.398512 0.398337 0.398101 0.39791 0.397756 0.397632 0.397532 0.397453 0.397392 
0.397348 0.39732 0.397306 0.397306 0.397321 0.397351 0.397396 0.397458 0.397538 
0.397639 0.397763 0.397918 0.39811 0.398347 0.398521 0.397402 0.38585 0.317418 
0.318484 0.386109 0.397332 0.398383 0.398199 0.397962 0.397771 0.397616 0.397493 
0.397392 0.397314 0.397252 0.397209 0.39718 0.397166 0.397166 0.397181 0.397211 
0.397256 0.397318 0.397397 0.397499 0.397623 0.397778 0.39797 0.398208 0.398392 
0.397342 0.386119 0.318493 0.319571 0.386376 0.39727 0.398254 0.398061 0.397823 
0.397631 0.397476 0.397353 0.397252 0.397174 0.397112 0.397068 0.397039 0.397025 
0.397026 0.39704 0.39707 0.397115 0.397177 0.397257 0.397358 0.397482 0.397638 
0.39783 0.398068 0.398261 0.397279 0.386385 0.319579 0.320669 0.38664 0.397206 
0.398123 0.397922 0.397683 0.397491 0.397336 0.397213 0.397112 0.397033 0.396972 
0.396928 0.396898 0.396884 0.396885 0.3969 0.39693 0.396974 0.397037 0.397116 
0.397217 0.397342 0.397497 0.39769 0.397929 0.39813 0.397214 0.386648 0.320676 
0.321778 0.3869 0.39714 0.397992 0.397783 0.397543 0.397351 0.397196 0.397072 
0.396971 0.396892 0.396831 0.396787 0.396757 0.396743 0.396744 0.396758 0.396788 
0.396833 0.396895 0.396975 0.397076 0.397201 0.397356 0.397549 0.397789 0.397999 
0.397147 0.386908 0.321785 0.322899 0.387158 0.397071 0.39786 0.397643 0.397402 
0.39721 0.397055 0.396931 0.39683 0.396751 0.39669 0.396645 0.396616 0.396602 
0.396602 0.396617 0.396647 0.396692 0.396754 0.396833 0.396935 0.397059 0.397215 
0.397407 0.397648 0.397866 0.397077 0.387164 0.322905 0.324032 0.387412 0.397 
0.397728 0.397503 0.397261 0.397069 0.396914 0.39679 0.396689 0.39661 0.396548 
0.396504 0.396474 0.39646 0.39646 0.396475 0.396505 0.39655 0.396612 0.396692 
0.396793 0.396918 0.397074 0.397266 0.397508 0.397733 0.397006 0.387417 0.324037 
0.325176 0.387662 0.396927 0.397594 0.397362 0.39712 0.396928 0.396772 0.396648 
0.396547 0.396468 0.396406 0.396362 0.396332 0.396318 0.396318 0.396333 0.396363 
0.396408 0.39647 0.39655 0.396651 0.396776 0.396932 0.397124 0.397366 0.397599 
0.396932 0.387667 0.325181 0.326332 0.387908 0.396852 0.39746 0.397221 0.396978 
0.396786 0.39663 0.396506 0.396405 0.396325 0.396264 0.396219 0.39619 0.396175 
0.396176 0.39619 0.39622 0.396265 0.396327 0.396407 0.396509 0.396633 0.396789 
0.396982 0.397225 0.397464 0.396856 0.387913 0.326336 0.3275 0.388151 0.396774 
0.397325 0.397079 0.396836 0.396644 0.396488 0.396364 0.396262 0.396183 0.396121 
0.396076 0.396047 0.396033 0.396033 0.396048 0.396077 0.396122 0.396185 0.396264 
0.396366 0.39649 0.396647 0.396839 0.397083 0.397329 0.396778 0.388156 0.327504 
0.328681 0.38839 0.396694 0.397189 0.396937 0.396693 0.396501 0.396345 0.396221 
0.396119 0.39604 0.395978 0.395933 0.395904 0.395889 0.39589 0.395904 0.395934 
0.395979 0.396042 0.396121 0.396223 0.396347 0.396504 0.396696 0.396941 0.397192 
0.396697 0.388394 0.328684 0.329873 0.388625 0.396611 0.397053 0.396795 0.39655 
0.396358 0.396202 0.396078 0.395976 0.395897 0.395835 0.39579 0.39576 0.395746 
0.395746 0.395761 0.395791 0.395836 0.395898 0.395978 0.39608 0.396204 0.396361 
0.396553 0.396798 0.397056 0.396614 0.388628 0.329876 0.331079 0.388855 0.396526 
0.396915 0.396652 0.396407 0.396215 0.396058 0.395934 0.395832 0.395753 0.395691 
0.395646 0.395617 0.395602 0.395602 0.395617 0.395647 0.395692 0.395754 0.395834 
0.395936 0.39606 0.396217 0.396409 0.396655 0.396918 0.396529 0.388858 0.331082 
0.332297 0.389081 0.396439 0.396777 0.396509 0.396263 0.396071 0.395915 0.39579 
0.395688 0.395609 0.395547 0.395502 0.395472 0.395458 0.395458 0.395473 0.395503 
0.395548 0.39561 0.39569 0.395792 0.395916 0.396073 0.396266 0.396512 0.39678 
0.396442 0.389084 0.332299 0.333528 0.389302 0.39635 0.396639 0.396366 0.396119 
0.395927 0.39577 0.395646 0.395544 0.395465 0.395402 0.395358 0.395328 0.395314 
0.395314 0.395328 0.395358 0.395403 0.395466 0.395545 0.395648 0.395772 0.395929 
0.396121 0.396368 0.396641 0.396352 0.389305 0.33353 0.334772 0.389519 0.396259 
0.396499 0.396222 0.395975 0.395783 0.395626 0.395501 0.3954 0.39532 0.395258 
0.395213 0.395183 0.395169 0.395169 0.395184 0.395213 0.395258 0.395321 0.395401 
0.395503 0.395627 0.395784 0.395977 0.396224 0.396501 0.396261 0.389521 0.334774 
0.336029 0.389731 0.396165 0.396359 0.396078 0.39583 0.395638 0.395481 0.395357 
0.395255 0.395175 0.395113 0.395068 0.395038 0.395024 0.395024 0.395038 0.395068 
0.395113 0.395176 0.395256 0.395358 0.395482 0.395639 0.395832 0.396079 0.396361 
0.396166 0.389733 0.336031 0.3373 0.389937 0.396068 0.396219 0.395933 0.395685 
0.395493 0.395336 0.395211 0.395109 0.39503 0.394967 0.394922 0.394893 0.394878 
0.394878 0.394893 0.394923 0.394968 0.39503 0.39511 0.395213 0.395337 0.395494 
0.395687 0.395934 0.39622 0.39607 0.389939 0.337302 0.338584 0.390139 0.39597 
0.396077 0.395788 0.39554 0.395348 0.39519 0.395066 0.394964 0.394884 0.394822 
0.394777 0.394747 0.394733 0.394733 0.394747 0.394777 0.394822 0.394885 0.394965 
0.395067 0.395191 0.395349 0.395541 0.395789 0.396079 0.395971 0.39014 0.338586 
0.339883 0.390335 0.395869 0.395935 0.395642 0.395394 0.395202 0.395045 0.39492 
0.394818 0.394738 0.394676 0.394631 0.394601 0.394587 0.394587 0.394601 0.394631 
0.394676 0.394739 0.394819 0.394921 0.395046 0.395203 0.395395 0.395644 0.395936 
0.39587 0.390336 0.339884 0.341195 0.390525 0.395766 0.395792 0.395496 0.395248 
0.395056 0.394898 0.394774 0.394672 0.394592 0.39453 0.394485 0.394455 0.39444 
0.39444 0.394455 0.394485 0.39453 0.394592 0.394672 0.394775 0.394899 0.395057 
0.395249 0.395498 0.395794 0.395767 0.390526 0.341196 0.342521 0.390709 0.395661 
0.395649 0.39535 0.395101 0.394909 0.394752 0.394627 0.394525 0.394445 0.394383 
0.394338 0.394308 0.394294 0.394294 0.394309 0.394338 0.394383 0.394446 0.394526 
0.394628 0.394753 0.39491 0.395102 0.395351 0.39565 0.395662 0.39071 0.342522 
0.343862 0.390887 0.395553 0.395505 0.395204 0.394954 0.394762 0.394605 0.394481 
0.394378 0.394299 0.394236 0.394191 0.394162 0.394147 0.394147 0.394162 0.394192 
0.394237 0.394299 0.394379 0.394481 0.394606 0.394763 0.394955 0.395204 0.395506 
0.395554 0.390888 0.343863 0.345217 0.391059 0.395443 0.39536 0.395056 0.394807 
0.394615 0.394458 0.394334 0.394231 0.394152 0.394089 0.394044 0.394015 0.394 
0.394 0.394015 0.394045 0.39409 0.394152 0.394232 0.394334 0.394459 0.394616 
0.394808 0.395057 0.395361 0.395444 0.39106 0.345218 0.346587 0.391224 0.395331 
0.395215 0.394909 0.39466 0.394468 0.394311 0.394186 0.394084 0.394004 0.393942 
0.393897 0.393868 0.393853 0.393853 0.393868 0.393897 0.393942 0.394005 0.394085 
0.394187 0.394311 0.394468 0.39466 0.39491 0.395216 0.395331 0.391225 0.346588 
0.347972 0.391383 0.395216 0.395069 0.394761 0.394512 0.39432 0.394163 0.394038 
0.393937 0.393857 0.393795 0.39375 0.39372 0.393706 0.393706 0.39372 0.39375 
0.393795 0.393857 0.393937 0.394039 0.394163 0.394321 0.394512 0.394762 0.39507 
0.395217 0.391383 0.347973 0.349372 0.391534 0.395099 0.394922 0.394613 0.394363 
0.394172 0.394015 0.393891 0.393789 0.393709 0.393647 0.393602 0.393573 0.393558 
0.393558 0.393573 0.393602 0.393647 0.393709 0.393789 0.393891 0.394015 0.394172 