# vtk DataFile Version 5.1
vtk output
ASCII
DATASET UNSTRUCTURED_GRID
POINTS 9424 double
0.1016 1.5 0 0.1016 1.45 5.1584879698e-20 0.1016 1.4 8.2585350466e-20 
0.1016 1.35 0 0.1016 1.3 0 0.1016 1.25 7.633537409e-20 
0.1016 1.2 -1.0472138867e-19 0.1016 1.15 -1.0474616531e-19 0.1016 1.1 0 
0.1016 1.05 0 0.1016 1 7.6430874677e-20 0.1016 0.95 -1.047413444e-19 
0.1016 0.9 7.6430971612e-20 0.1016 0.85 1.9900855048e-18 0.1016 0.8 -1.0474130562e-19 
0.1016 0.75 7.6430325377e-20 0.1016 0.7 2.0948253887e-18 0.1016 0.65 0 
0.1016 0.6 1.9900857116e-18 0.1016 0.55 0 0.1016 0.5 -1.0474154473e-19 
0.1016 0.45 0 0.1016 0.4 -1.0474482114e-19 0.1016 0.35 0 
0.1016 0.3 0 0.1016 0.25 0 0.1016 0.2 7.5297934506e-20 
0.1016 0.15 -9.0429310344e-20 0.1016 0.1 -9.209014038e-20 0.1016 0.05 -7.6045124168e-20 
0.1016 0 0 5.08 1.5 0.28700000048 5.08 1.45 0.28700000048 
5.08 1.4 0.28700000048 5.08 1.35 0.28700000048 5.08 1.3 0.28700000048 
5.08 1.25 0.28700000048 5.08 1.2 0.28700000048 5.08 1.15 0.28700000048 
5.08 1.1 0.28700000048 5.08 1.05 0.28700000048 5.08 1 0.28700000048 
5.08 0.95 0.28700000048 5.08 0.9 0.28700000048 5.08 0.85 0.28700000048 
5.08 0.8 0.28700000048 5.08 0.75 0.28700000048 5.08 0.7 0.28700000048 
5.08 0.65 0.28700000048 5.08 0.6 0.28700000048 5.08 0.55 0.28700000048 
5.08 0.5 0.28700000048 5.08 0.45 0.28700000048 5.08 0.4 0.28700000048 
5.08 0.35 0.28700000048 5.08 0.3 0.28700000048 5.08 0.25 0.28700000048 
5.08 0.2 0.28700000048 5.08 0.15 0.28700000048 5.08 0.1 0.28700000048 
5.08 0.05 0.28700000048 5.08 0 0.28700000048 0.151384 1.5 0.02146493271 
0.151384 1.45 0.021448900923 0.151384 1.4 0.021452795714 0.151384 1.35 0.021451983601 
0.151384 1.3 0.021452168003 0.151384 1.25 0.021452125162 0.151384 1.2 0.021452134475 
0.151384 1.15 0.021452132612 0.151384 1.1 0.021452134475 0.151384 1.05 0.021452132612 
0.151384 1 0.021452134475 0.151384 0.95 0.021452132612 0.151384 0.9 0.021452132612 
0.151384 0.85 0.021452132612 0.151384 0.8 0.021452132612 0.151384 0.75 0.021452134475 
0.151384 0.7 0.021452134475 0.151384 0.65 0.021452134475 0.151384 0.6 0.021452134475 
0.151384 0.55 0.021452134475 0.151384 0.5 0.021452134475 0.151384 0.45 0.021452132612 
0.151384 0.4 0.021452134475 0.151384 0.35 0.021452132612 0.151384 0.3 0.021452134475 
0.151384 0.25 0.021452127025 0.151384 0.2 0.021452162415 0.151384 0.15 0.02145200409 
0.151384 0.1 0.021452706307 0.151384 0.05 0.02144934237 0.151384 0 0.021464604884 
0.201168 1.5 0.04984471947 0.201168 1.45 0.049860715866 0.201168 1.4 0.04986718297 
0.201168 1.35 0.049865700305 0.201168 1.3 0.049866013229 0.201168 1.25 0.049865946174 
0.201168 1.2 0.049865961075 0.201168 1.15 0.04986595735 0.201168 1.1 0.04986595735 
0.201168 1.05 0.04986595735 0.201168 1 0.04986595735 0.201168 0.95 0.04986595735 
0.201168 0.9 0.04986595735 0.201168 0.85 0.04986595735 0.201168 0.8 0.04986595735 
0.201168 0.75 0.04986595735 0.201168 0.7 0.04986595735 0.201168 0.65 0.04986595735 
0.201168 0.6 0.04986595735 0.201168 0.55 0.04986595735 0.201168 0.5 0.04986595735 
0.201168 0.45 0.04986595735 0.201168 0.4 0.04986595735 0.201168 0.35 0.04986595735 
0.201168 0.3 0.049865961075 0.201168 0.25 0.049865946174 0.201168 0.2 0.049866005778 
0.201168 0.15 0.049865730107 0.201168 0.1 0.049867045134 0.201168 0.05 0.049861267209 
0.201168 0 0.049844291061 0.250952 1.5 0.083479054272 0.250952 1.45 0.083398230374 
0.250952 1.4 0.083408355713 0.250952 1.35 0.083406820893 0.250952 1.3 0.083407111466 
0.250952 1.25 0.083407051861 0.250952 1.2 0.083407066762 0.250952 1.15 0.083407066762 
0.250952 1.1 0.083407066762 0.250952 1.05 0.083407066762 0.250952 1 0.083407066762 
0.250952 0.95 0.083407066762 0.250952 0.9 0.083407066762 0.250952 0.85 0.083407066762 
0.250952 0.8 0.083407066762 0.250952 0.75 0.083407066762 0.250952 0.7 0.083407066762 
0.250952 0.65 0.083407066762 0.250952 0.6 0.083407066762 0.250952 0.55 0.083407066762 
0.250952 0.5 0.083407066762 0.250952 0.45 0.083407066762 0.250952 0.4 0.083407066762 
0.250952 0.35 0.083407066762 0.250952 0.3 0.083407066762 0.250952 0.25 0.083407059312 
0.250952 0.2 0.083407104015 0.250952 0.15 0.083406858146 0.250952 0.1 0.083408199251 
0.250952 0.05 0.083398923278 0.250952 0 0.083478525281 0.300736 1.5 0.14716693759 
0.300736 1.45 0.14724357426 0.300736 1.4 0.14723330736 0.300736 1.35 0.14723455906 
0.300736 1.3 0.14723439515 0.300736 1.25 0.14723441005 0.300736 1.2 0.14723441005 
0.300736 1.15 0.14723441005 0.300736 1.1 0.14723441005 0.300736 1.05 0.14723441005 
0.300736 1 0.14723441005 0.300736 0.95 0.14723441005 0.300736 0.9 0.14723441005 
0.300736 0.85 0.14723441005 0.300736 0.8 0.14723441005 0.300736 0.75 0.14723441005 
0.300736 0.7 0.14723441005 0.300736 0.65 0.14723441005 0.300736 0.6 0.14723441005 
0.300736 0.55 0.14723441005 0.300736 0.5 0.14723441005 0.300736 0.45 0.14723441005 
0.300736 0.4 0.14723441005 0.300736 0.35 0.14723441005 0.300736 0.3 0.14723441005 
0.300736 0.25 0.14723441005 0.300736 0.2 0.14723438025 0.300736 0.15 0.14723460376 
0.300736 0.1 0.14723312855 0.300736 0.05 0.14724433422 0.300736 0 0.14716635644 
0.35052 1.5 0.15515324473 0.35052 1.45 0.15522770584 0.35052 1.4 0.15521581471 
0.35052 1.35 0.15521745384 0.35052 1.3 0.15521720052 0.35052 1.25 0.15521724522 
0.35052 1.2 0.15521723032 0.35052 1.15 0.15521723032 0.35052 1.1 0.15521723032 
0.35052 1.05 0.15521723032 0.35052 1 0.15521723032 0.35052 0.95 0.15521723032 
0.35052 0.9 0.15521723032 0.35052 0.85 0.15521723032 0.35052 0.8 0.15521723032 
0.35052 0.75 0.15521723032 0.35052 0.7 0.15521723032 0.35052 0.65 0.15521723032 
0.35052 0.6 0.15521723032 0.35052 0.55 0.15521723032 0.35052 0.5 0.15521723032 
0.35052 0.45 0.15521723032 0.35052 0.4 0.15521723032 0.35052 0.35 0.15521723032 
0.35052 0.3 0.15521723032 0.35052 0.25 0.15521724522 0.35052 0.2 0.15521720052 
0.35052 0.15 0.15521749854 0.35052 0.1 0.1552156359 0.35052 0.05 0.1552284956 
0.35052 0 0.15515261889 0.400304 1.5 0.18852005899 0.400304 1.45 0.18836417794 
0.400304 1.4 0.18838000298 0.400304 1.35 0.18837818503 0.400304 1.3 0.18837840855 
0.400304 1.25 0.18837839365 0.400304 1.2 0.18837839365 0.400304 1.15 0.18837839365 
0.400304 1.1 0.18837839365 0.400304 1.05 0.18837839365 0.400304 1 0.18837839365 
0.400304 0.95 0.18837839365 0.400304 0.9 0.18837839365 0.400304 0.85 0.18837839365 
0.400304 0.8 0.18837839365 0.400304 0.75 0.18837839365 0.400304 0.7 0.18837839365 
0.400304 0.65 0.18837839365 0.400304 0.6 0.18837839365 0.400304 0.55 0.18837839365 
0.400304 0.5 0.18837839365 0.400304 0.45 0.18837839365 0.400304 0.4 0.18837839365 
0.400304 0.35 0.18837839365 0.400304 0.3 0.18837839365 0.400304 0.25 0.18837839365 
0.400304 0.2 0.18837839365 0.400304 0.15 0.18837822974 0.400304 0.1 0.18837982416 
0.400304 0.05 0.18836499751 0.400304 0 0.18851940334 0.450088 1.5 0.22610981762 
0.450088 1.45 0.22619141638 0.450088 1.4 0.22619566321 0.450088 1.35 0.22619527578 
0.450088 1.3 0.22619529068 0.450088 1.25 0.22619530559 0.450088 1.2 0.22619529068 
0.450088 1.15 0.22619529068 0.450088 1.1 0.22619529068 0.450088 1.05 0.22619529068 
0.450088 1 0.22619529068 0.450088 0.95 0.22619529068 0.450088 0.9 0.22619529068 
0.450088 0.85 0.22619529068 0.450088 0.8 0.22619529068 0.450088 0.75 0.22619529068 
0.450088 0.7 0.22619529068 0.450088 0.65 0.22619529068 0.450088 0.6 0.22619529068 
0.450088 0.55 0.22619529068 0.450088 0.5 0.22619529068 0.450088 0.45 0.22619529068 
0.450088 0.4 0.22619529068 0.450088 0.35 0.22619530559 0.450088 0.3 0.22619529068 
0.450088 0.25 0.22619530559 0.450088 0.2 0.22619527578 0.450088 0.15 0.22619532049 
0.450088 0.1 0.2261954695 0.450088 0.05 0.22619225085 0.450088 0 0.22610916197 
0.499872 1.5 0.260286659 0.499872 1.45 0.26024150848 0.499872 1.4 0.26022011042 
0.499872 1.35 0.26022422314 0.499872 1.3 0.26022326946 0.499872 1.25 0.26022350788 
0.499872 1.2 0.26022344828 0.499872 1.15 0.26022347808 0.499872 1.1 0.26022344828 
0.499872 1.05 0.26022344828 0.499872 1 0.26022344828 0.499872 0.95 0.26022344828 
0.499872 0.9 0.26022344828 0.499872 0.85 0.26022344828 0.499872 0.8 0.26022344828 
0.499872 0.75 0.26022344828 0.499872 0.7 0.26022344828 0.499872 0.65 0.26022344828 
0.499872 0.6 0.26022344828 0.499872 0.55 0.26022344828 0.499872 0.5 0.26022344828 
0.499872 0.45 0.26022344828 0.499872 0.4 0.26022344828 0.499872 0.35 0.26022347808 
0.499872 0.3 0.26022344828 0.499872 0.25 0.26022350788 0.499872 0.2 0.26022326946 
0.499872 0.15 0.26022425294 0.499872 0.1 0.2602199018 0.499872 0.05 0.26024246216 
0.499872 0 0.26028591394 0.549656 1.5 0.28591999412 0.549656 1.45 0.28591999412 
0.549656 1.4 0.28591999412 0.549656 1.35 0.28591999412 0.549656 1.3 0.28591999412 
0.549656 1.25 0.28591999412 0.549656 1.2 0.28591999412 0.549656 1.15 0.28591999412 
0.549656 1.1 0.28591999412 0.549656 1.05 0.28591999412 0.549656 1 0.28591999412 
0.549656 0.95 0.28591999412 0.549656 0.9 0.28591999412 0.549656 0.85 0.28591999412 
0.549656 0.8 0.28591999412 0.549656 0.75 0.28591999412 0.549656 0.7 0.28591999412 
0.549656 0.65 0.28591999412 0.549656 0.6 0.28591999412 0.549656 0.55 0.28591999412 
0.549656 0.5 0.28591999412 0.549656 0.45 0.28591999412 0.549656 0.4 0.28591999412 
0.549656 0.35 0.28591999412 0.549656 0.3 0.28591999412 0.549656 0.25 0.28591999412 
0.549656 0.2 0.28591999412 0.549656 0.15 0.28591999412 0.549656 0.1 0.28591999412 
0.549656 0.05 0.28591999412 0.549656 0 0.28591999412 0.59944 1.5 0.28700000048 
0.59944 1.45 0.28700000048 0.59944 1.4 0.28700000048 0.59944 1.35 0.28700000048 
0.59944 1.3 0.28700000048 0.59944 1.25 0.28700000048 0.59944 1.2 0.28700000048 
0.59944 1.15 0.28700000048 0.59944 1.1 0.28700000048 0.59944 1.05 0.28700000048 
0.59944 1 0.28700000048 0.59944 0.95 0.28700000048 0.59944 0.9 0.28700000048 
0.59944 0.85 0.28700000048 0.59944 0.8 0.28700000048 0.59944 0.75 0.28700000048 
0.59944 0.7 0.28700000048 0.59944 0.65 0.28700000048 0.59944 0.6 0.28700000048 
0.59944 0.55 0.28700000048 0.59944 0.5 0.28700000048 0.59944 0.45 0.28700000048 
0.59944 0.4 0.28700000048 0.59944 0.35 0.28700000048 0.59944 0.3 0.28700000048 
[...]
CELL_DATA 9090
FIELD FieldData 7
B_Stress_n_p_m2 1 9090 float
0.0683481 0.15535 0.11443 0.0913935 0.126371 0.138372 0.125036 0.125527 0.132854 
0.13158 0.12892 0.130131 0.130899 0.130303 0.130248 0.130337 0.130554 0.131369 
0.130881 0.129791 0.132341 0.133642 0.12641 0.125779 0.139055 0.12716 0.0919834 
0.114774 0.15567 0.0684527 0.22431 0.0650739 0.0697665 0.124671 0.12608 0.119975 
0.136608 0.147087 0.145256 0.146719 0.150866 0.151589 0.151064 0.151643 0.152267 
0.152364 0.151898 0.151358 0.15184 0.151212 0.147266 0.145862 0.147681 0.137263 
0.12057 0.126522 0.125073 0.0701483 0.065459 0.224859 0.148831 0.105327 0.105433 
0.125649 0.134471 0.138097 0.145616 0.151544 0.153442 0.154998 0.156912 0.157824 
0.158084 0.158433 0.158757 0.158837 0.158654 0.1584 0.158203 0.157378 0.155562 
0.154056 0.152171 0.146247 0.138685 0.134983 0.1261 0.105832 0.105701 0.149256 
0.155802 0.144873 0.144 0.153433 0.161618 0.167378 0.173404 0.178604 0.181857 
0.184134 0.186028 0.187294 0.188013 0.1885 0.188815 0.188882 0.188692 0.188307 
0.187672 0.186491 0.184675 0.182451 0.179223 0.174026 0.167975 0.162172 0.153942 
0.144475 0.145336 0.156258 0.174996 0.172691 0.172616 0.178237 0.184311 0.189689 
0.195169 0.199977 0.203484 0.206133 0.208238 0.20973 0.2107 0.211336 0.211695 
0.211754 0.211506 0.210965 0.210079 0.208666 0.206633 0.204035 0.200558 0.19576 
0.190271 0.184868 0.178768 0.173129 0.173202 0.175535 0.201337 0.202579 0.203438 
0.207379 0.212296 0.217237 0.222164 0.226572 0.230108 0.232916 0.23514 0.236789 
0.237934 0.238684 0.239086 0.239139 0.23884 0.238183 0.237121 0.235548 0.23339 
0.230632 0.22713 0.222739 0.217814 0.212862 0.207932 0.203979 0.203112 0.201889 
0.250594 0.250671 0.252359 0.256272 0.261067 0.266031 0.270882 0.275281 0.279001 
0.282057 0.284509 0.286382 0.28773 0.288617 0.289082 0.289135 0.288772 0.28798 
0.286721 0.284926 0.282542 0.279541 0.27586 0.271486 0.266646 0.261683 0.256884 
0.252966 0.251282 0.251167 0.311339 0.308091 0.310689 0.315271 0.320327 0.325458 
0.330393 0.334892 0.3388 0.342084 0.344759 0.346843 0.348371 0.349386 0.349914 
0.349968 0.349544 0.348629 0.347193 0.345191 0.342589 0.339365 0.335503 0.331036 
0.326121 0.320999 0.315946 0.311364 0.308773 0.312057 0.358667 0.354036 0.357467 
0.362493 0.367619 0.372694 0.377521 0.381931 0.385812 0.389119 0.391845 0.393995 
0.395589 0.396654 0.397207 0.397259 0.396808 0.395841 0.394338 0.392272 0.38962 
0.386374 0.382543 0.378171 0.373369 0.36831 0.363192 0.358168 0.354728 0.359366 
0.373379 0.370978 0.37471 0.379472 0.384205 0.388832 0.393209 0.397213 0.400762 
0.403811 0.406344 0.408358 0.409864 0.410873 0.411399 0.411446 0.411013 0.410093 
0.408672 0.406734 0.40427 0.401279 0.397779 0.393813 0.389464 0.384857 0.380136 
0.37538 0.371652 0.37406 0.371099 0.372317 0.376041 0.380288 0.384506 0.388599 
0.392454 0.39598 0.399113 0.401816 0.404072 0.405874 0.407226 0.408136 0.408611 
0.408652 0.408259 0.407427 0.406149 0.404415 0.402221 0.399571 0.396483 0.392994 
0.389167 0.385095 0.380891 0.376652 0.372932 0.371716 0.370121 0.37364 0.377482 
0.381438 0.385312 0.389019 0.392482 0.395634 0.398432 0.400847 0.402864 0.404478 
0.405692 0.40651 0.406936 0.406972 0.406618 0.405869 0.404721 0.403167 0.401205 
0.398839 0.396083 0.392965 0.389531 0.385844 0.381985 0.378038 0.374199 0.370679 
0.370396 0.374713 0.378717 0.382569 0.386236 0.389677 0.392848 0.395712 0.398241 
0.400417 0.402233 0.403686 0.404779 0.405514 0.405898 0.40593 0.40561 0.404935 
0.403901 0.402503 0.400736 0.398604 0.396114 0.393282 0.390137 0.386717 0.383065 
0.379222 0.375221 0.370901 0.370912 0.375451 0.37956 0.383371 0.386905 0.390156 
0.393108 0.395747 0.398059 0.40004 0.401686 0.403 0.403986 0.40465 0.404996 
0.405024 0.404735 0.404125 0.403191 0.401925 0.400324 0.398384 0.396107 0.393499 
0.390571 0.387339 0.38382 0.380018 0.375912 0.371369 0.371452 0.376046 0.380196 
0.383975 0.387412 0.390522 0.393307 0.395768 0.397907 0.399725 0.40123 0.402426 
0.403322 0.403924 0.404236 0.404261 0.403999 0.403446 0.402596 0.401444 0.39998 
0.398197 0.396091 0.393658 0.390896 0.387805 0.38438 0.380611 0.376463 0.371866 
0.37195 0.376554 0.38071 0.384452 0.387813 0.390812 0.393466 0.395786 0.397784 
0.39947 0.400857 0.401954 0.402773 0.403321 0.403605 0.403628 0.403388 0.402883 
0.402106 0.401048 0.399698 0.398044 0.396076 0.393782 0.391149 0.388167 0.384819 
0.381084 0.376932 0.372324 0.372383 0.376988 0.381133 0.384839 0.388134 0.391044 
0.393592 0.395799 0.397682 0.399259 0.400548 0.401562 0.402315 0.402819 0.403078 
0.403098 0.402878 0.402414 0.401697 0.400718 0.399463 0.397915 0.396059 0.393876 
0.391348 0.388453 0.38517 0.381472 0.37733 0.372722 0.372755 0.377358 0.381486 
0.385156 0.388394 0.391231 0.393693 0.395806 0.397594 0.399082 0.400288 0.401233 
0.401931 0.402396 0.402635 0.402653 0.402449 0.402019 0.401354 0.400441 0.399264 
0.397804 0.39604 0.393948 0.391504 0.388682 0.385454 0.381792 0.377667 0.373061 
0.373071 0.377673 0.381783 0.385419 0.388608 0.391383 0.393773 0.395808 0.397519 
0.39893 0.400068 0.400954 0.401606 0.402038 0.40226 0.402276 0.402086 0.401685 
0.401063 0.400205 0.399094 0.397707 0.396019 0.394003 0.391629 0.388868 0.385688 
0.382059 0.377951 0.373348 0.373342 0.377941 0.382034 0.38564 0.388786 0.391508 
0.393837 0.395807 0.397452 0.3988 0.39988 0.400716 0.401329 0.401733 0.401939 
0.401954 0.401776 0.401399 0.400814 0.400003 0.398947 0.397621 0.395997 0.394044 
0.391729 0.38902 0.385883 0.382283 0.378192 0.373591 0.373575 0.378171 0.382248 
0.385826 0.388936 0.391611 0.393888 0.395803 0.397391 0.398686 0.399717 0.400511 
0.401089 0.40147 0.401664 0.401676 0.401508 0.401153 0.400598 0.399827 0.398818 
0.397544 0.395974 0.394074 0.391811 0.389147 0.386045 0.382473 0.378398 0.3738 
0.373776 0.37837 0.382432 0.385986 0.389062 0.391697 0.39393 0.395797 0.397337 
0.398585 0.399574 0.400331 0.400881 0.401241 0.401423 0.401435 0.401275 0.400937 
0.40041 0.399673 0.398704 0.397474 0.39595 0.394097 0.391877 0.389252 0.386183 
0.382635 0.378574 0.373979 0.373951 0.378543 0.382592 0.386123 0.38917 0.39177 
0.393963 0.395789 0.397287 0.398495 0.399446 0.400172 0.400697 0.401039 0.401212 
0.401222 0.40107 0.400748 0.400243 0.399536 0.398601 0.39741 0.395927 0.394114 
0.391932 0.389341 0.386301 0.382774 0.378727 0.374134 0.374106 0.378695 0.382731 
0.386243 0.389264 0.391832 0.39399 0.395779 0.39724 0.398412 0.399332 0.40003 
0.400532 0.400859 0.401024 0.401033 0.400887 0.400578 0.400093 0.399412 0.398509 
0.397351 0.395903 0.394126 0.391978 0.389418 0.386404 0.382896 0.378861 0.374271 
0.374244 0.37883 0.382855 0.386349 0.389346 0.391886 0.394012 0.395768 0.397196 
0.398337 0.399228 0.399901 0.400384 0.400697 0.400854 0.400862 0.400722 0.400425 
0.399958 0.3993 0.398423 0.397296 0.39588 0.394134 0.392017 0.389484 0.386493 
0.383004 0.37898 0.374393 0.374369 0.378951 0.382966 0.386443 0.389418 0.391932 
0.39403 0.395756 0.397154 0.398266 0.399131 0.399782 0.400248 0.400548 0.400698 
0.400706 0.40057 0.400285 0.399834 0.399196 0.398344 0.397243 0.395856 0.39414 
0.392051 0.389543 0.386573 0.3831 0.379086 0.374503 0.374483 0.379062 0.383067 
0.386528 0.389483 0.391973 0.394044 0.395743 0.397113 0.3982 0.399041 0.399672 
0.400121 0.400411 0.400555 0.400562 0.400431 0.400155 0.399718 0.3991 0.39827 
0.397194 0.395833 0.394143 0.39208 0.389595 0.386645 0.383188 0.379184 0.374603 
0.374588 0.379164 0.38316 0.386606 0.389541 0.392009 0.394056 0.395728 0.397074 
0.398136 0.398956 0.399568 0.400003 0.400282 0.40042 0.400426 0.4003 0.400033 
0.39961 0.399008 0.398199 0.397146 0.39581 0.394145 0.392105 0.389643 0.386712 
0.383268 0.379274 0.374697 0.374686 0.37926 0.383246 0.386678 0.389595 0.392042 
0.394065 0.395714 0.397035 0.398075 0.398874 0.39947 0.39989 0.40016 0.400293 
0.400299 0.400176 0.399917 0.399507 0.398922 0.398132 0.397101 0.395787 0.394145 
0.392128 0.389687 0.386773 0.383344 0.379358 0.374784 0.37478 0.37935 0.383327 
0.386746 0.389645 0.392072 0.394073 0.395698 0.396997 0.398016 0.398796 0.399375 
0.399783 0.400043 0.400172 0.400176 0.400058 0.399807 0.399408 0.398838 0.398067 
0.397056 0.395764 0.394145 0.392149 0.389728 0.386832 0.383415 0.379439 0.374868 
0.374869 0.379436 0.383405 0.38681 0.389693 0.392099 0.394079 0.395682 0.396959 
0.397957 0.398719 0.399283 0.399678 0.39993 0.400054 0.400059 0.399943 0.3997 
0.399313 0.398757 0.398003 0.397012 0.395741 0.394144 0.392169 0.389767 0.386887 
0.383484 0.379516 0.374949 0.374956 0.379519 0.38348 0.386872 0.389738 0.392125 
0.394083 0.395665 0.396921 0.3979 0.398644 0.399193 0.399577 0.39982 0.39994 
0.399944 0.399832 0.399596 0.39922 0.398679 0.397941 0.396969 0.395719 0.394142 
0.392188 0.389804 0.386941 0.383551 0.379592 0.375028 0.375041 0.379601 0.383552 
0.386931 0.389781 0.392149 0.394087 0.395648 0.396884 0.397843 0.39857 0.399104 
0.399477 0.399713 0.399828 0.399832 0.399723 0.399494 0.399128 0.398601 0.39788 
0.396927 0.395696 0.39414 0.392206 0.389841 0.386994 0.383617 0.379666 0.375105 
0.375124 0.37968 0.383623 0.38699 0.389823 0.392172 0.39409 0.39563 0.396846 
0.397786 0.398497 0.399016 0.399378 0.399607 0.399718 0.399721 0.399616 0.399394 
0.399038 0.398524 0.397819 0.396884 0.395674 0.394138 0.392223 0.389877 0.387046 
0.383681 0.379739 0.375182 0.375207 0.379759 0.383694 0.387047 0.389864 0.392194 
0.394092 0.395612 0.396807 0.397729 0.398423 0.398929 0.39928 0.399501 0.399609 
0.399612 0.39951 0.399295 0.398949 0.398448 0.397759 0.396842 0.395651 0.394135 
0.392241 0.389913 0.387098 0.383746 0.379812 0.375259 0.375289 0.379838 0.383763 
0.387104 0.389904 0.392216 0.394094 0.395593 0.396769 0.397672 0.39835 0.398843 
0.399183 0.399397 0.399501 0.399503 0.399404 0.399196 0.39886 0.398373 0.397699 
0.3968 0.395628 0.394132 0.392258 0.389948 0.38715 0.38381 0.379885 0.375336 
0.375371 0.379916 0.383833 0.387161 0.389945 0.392238 0.394095 0.395574 0.39673 
0.397615 0.398276 0.398756 0.399086 0.399292 0.399392 0.399395 0.399299 0.399097 
0.398772 0.398297 0.397639 0.396758 0.395606 0.39413 0.392275 0.389984 0.387202 
0.383876 0.379959 0.375414 0.375454 0.379995 0.383903 0.387217 0.389985 0.392259 
0.394096 0.395554 0.39669 0.397557 0.398203 0.398668 0.398988 0.399188 0.399284 
0.399286 0.399194 0.398998 0.398683 0.398221 0.397579 0.396715 0.395583 0.394127 
0.392292 0.39002 0.387255 0.383941 0.380034 0.375493 0.375538 0.380075 0.383974 
0.387275 0.390025 0.39228 0.394096 0.395534 0.39665 0.397498 0.398128 0.39858 
0.39889 0.399082 0.399175 0.399177 0.399088 0.398899 0.398593 0.398144 0.397518 
0.396673 0.395559 0.394124 0.39231 0.390057 0.387308 0.384008 0.38011 0.375573 
0.375623 0.380156 0.384045 0.387332 0.390065 0.392301 0.394096 0.395513 0.396609 
0.397439 0.398053 0.398492 0.398791 0.398977 0.399066 0.399068 0.398982 0.3988 
0.398504 0.398068 0.397457 0.39663 0.395536 0.394122 0.392328 0.390094 0.387362 
0.384076 0.380187 0.375654 0.375709 0.380237 0.384117 0.38739 0.390106 0.392321 
0.394096 0.395492 0.396568 0.397379 0.397977 0.398403 0.398692 0.39887 0.398956 
0.398958 0.398875 0.398699 0.398413 0.39799 0.397395 0.396586 0.395513 0.394119 
0.392346 0.390132 0.387417 0.384145 0.380266 0.375737 0.375797 0.380321 0.384191 
0.387449 0.390147 0.392342 0.394096 0.39547 0.396525 0.397318 0.3979 0.398312 
0.398591 0.398763 0.398845 0.398847 0.398767 0.398598 0.398322 0.397912 0.397333 
0.396542 0.395489 0.394116 0.392365 0.390171 0.387474 0.384216 0.380346 0.375822 
0.375886 0.380405 0.384265 0.387509 0.390189 0.392364 0.394095 0.395448 0.396482 
0.397257 0.397822 0.398221 0.39849 0.398655 0.398733 0.398735 0.398659 0.398496 
0.39823 0.397833 0.39727 0.396497 0.395464 0.394114 0.392384 0.39021 0.387531 
0.384288 0.380428 0.375909 0.375977 0.380492 0.384341 0.38757 0.390232 0.392385 
0.394094 0.395425 0.396439 0.397194 0.397743 0.398129 0.398387 0.398545 0.398621 
0.398622 0.398549 0.398393 0.398136 0.397753 0.397206 0.396452 0.39544 0.394111 
0.392403 0.390251 0.38759 0.384362 0.380512 0.375997 0.37607 0.38058 0.384419 
0.387633 0.390275 0.392407 0.394093 0.395401 0.396394 0.39713 0.397663 0.398035 
0.398284 0.398435 0.398507 0.398508 0.398438 0.398289 0.398042 0.397671 0.397141 
0.396406 0.395415 0.394108 0.392423 0.390292 0.38765 0.384437 0.380598 0.376088 
0.376165 0.38067 0.384498 0.387696 0.390318 0.392428 0.394092 0.395377 0.396349 
0.397066 0.397581 0.39794 0.398179 0.398323 0.398391 0.398392 0.398326 0.398183 
0.397947 0.397589 0.397075 0.39636 0.39539 0.394106 0.392443 0.390334 0.387712 
0.384515 0.380686 0.376181 0.376262 0.380762 0.384579 0.387761 0.390363 0.39245 
0.394091 0.395353 0.396302 0.397 0.397499 0.397844 0.398073 0.39821 0.398275 
0.398276 0.398213 0.398077 0.39785 0.397506 0.397008 0.396312 0.395364 0.394103 
0.392463 0.390377 0.387775 0.384594 0.380777 0.376277 0.376362 0.380856 0.384662 
0.387827 0.390408 0.392473 0.394089 0.395328 0.396255 0.396933 0.397415 0.397747 
0.397965 0.398096 0.398157 0.398158 0.398098 0.397969 0.397752 0.397421 0.39694 
0.396264 0.395337 0.3941 0.392484 0.390421 0.387839 0.384675 0.380869 0.376375 
0.376464 0.380952 0.384746 0.387894 0.390455 0.392495 0.394087 0.395302 0.396207 
0.396864 0.39733 0.397648 0.397856 0.39798 0.398038 0.398039 0.397982 0.397859 
0.397653 0.397336 0.396871 0.396215 0.395311 0.394097 0.392506 0.390466 0.387906 
0.384758 0.380964 0.376476 0.376568 0.381051 0.384833 0.387963 0.390502 0.392518 
0.394085 0.395275 0.396157 0.396795 0.397243 0.397548 0.397746 0.397863 0.397918 
0.397918 0.397865 0.397749 0.397552 0.397248 0.396801 0.396164 0.395283 0.394094 
0.392528 0.390512 0.387973 0.384843 0.381062 0.376579 0.376675 0.381152 0.384921 
0.388033 0.39055 0.392541 0.394083 0.395248 0.396107 0.396724 0.397155 0.397446 
0.397634 0.397745 0.397796 0.397796 0.397746 0.397637 0.39745 0.39716 0.39673 
0.396113 0.395255 0.394091 0.39255 0.390559 0.388042 0.384931 0.381162 0.376685 
0.376785 0.381256 0.385012 0.388105 0.390598 0.392565 0.39408 0.395219 0.396055 
0.396652 0.397066 0.397343 0.397521 0.397625 0.397673 0.397673 0.397626 0.397523 
0.397347 0.39707 0.396657 0.396061 0.395226 0.394087 0.392572 0.390607 0.388113 
0.385021 0.381265 0.376794 0.376898 0.381362 0.385105 0.388178 0.390648 0.392588 
0.394077 0.39519 0.396002 0.396578 0.396975 0.397239 0.397406 0.397503 0.397548 
0.397549 0.397505 0.397408 0.397242 0.396979 0.396583 0.396008 0.395196 0.394083 
0.392595 0.390656 0.388186 0.385113 0.38137 0.376906 0.377014 0.381472 0.3852 
0.388253 0.390699 0.392612 0.394073 0.39516 0.395948 0.396503 0.396883 0.397133 
0.39729 0.397381 0.397422 0.397423 0.397382 0.397292 0.397135 0.396886 0.396508 
0.395953 0.395166 0.394079 0.392618 0.390706 0.38826 0.385207 0.381479 0.377021 
0.377133 0.381584 0.385298 0.38833 0.390751 0.392636 0.394069 0.39513 0.395893 
0.396427 0.396789 0.397025 0.397172 0.397257 0.397295 0.397295 0.397258 0.397174 
0.397028 0.396792 0.396431 0.395897 0.395134 0.394074 0.392642 0.390757 0.388336 
0.385304 0.38159 0.377139 0.377255 0.381699 0.385398 0.388409 0.390803 0.392661 
0.394065 0.395098 0.395836 0.396349 0.396693 0.396916 0.397053 0.397131 0.397166 
0.397166 0.397132 0.397055 0.396918 0.396696 0.396352 0.39584 0.395102 0.394069 
0.392666 0.390809 0.388414 0.385403 0.381704 0.37726 0.37738 0.381817 0.3855 
0.388489 0.390857 0.392685 0.39406 0.395065 0.395778 0.396269 0.396596 0.396805 
0.396933 0.397004 0.397036 0.397036 0.397005 0.396934 0.396807 0.396598 0.396272 
0.395782 0.395069 0.394064 0.392689 0.390862 0.388494 0.385505 0.381822 0.377385 
0.377509 0.381938 0.385605 0.388571 0.390911 0.392709 0.394054 0.395031 0.395719 
0.396188 0.396497 0.396693 0.39681 0.396876 0.396904 0.396905 0.396876 0.396812 
0.396695 0.396499 0.396191 0.395722 0.395034 0.394058 0.392714 0.390916 0.388576 
0.38561 0.381943 0.377514 0.377642 0.382063 0.385713 0.388655 0.390967 0.392734 
0.394048 0.394995 0.395658 0.396105 0.396397 0.396579 0.396687 0.396746 0.396772 
0.396772 0.396746 0.396688 0.39658 0.396399 0.396108 0.39566 0.394998 0.394051 
0.392738 0.39097 0.388659 0.385717 0.382067 0.377646 0.377778 0.382191 0.385824 
0.388741 0.391023 0.392759 0.394041 0.394959 0.395595 0.396021 0.396294 0.396463 
0.396562 0.396614 0.396637 0.396638 0.396615 0.396563 0.396464 0.396296 0.396023 
0.395597 0.394961 0.394044 0.392762 0.391026 0.388745 0.385827 0.382194 0.377782 
0.377918 0.382322 0.385937 0.388829 0.39108 0.392783 0.394033 0.394921 0.395531 
0.395934 0.39619 0.396346 0.396435 0.396482 0.396502 0.396502 0.396482 0.396436 
0.396347 0.396192 0.395936 0.395533 0.394923 0.394035 0.392786 0.391083 0.388832 
0.385941 0.382326 0.377922 0.378063 0.382458 0.386054 0.388919 0.391138 0.392807 
0.394024 0.394881 0.395464 0.395846 0.396084 0.396227 0.396307 0.396348 0.396365 
0.396365 0.396348 0.396307 0.396228 0.396086 0.395847 0.395466 0.394883 0.394026 
0.39281 0.391141 0.388922 0.386057 0.382461 0.378066 0.378212 0.382597 0.386173 
0.389011 0.391197 0.392832 0.394014 0.39484 0.395396 0.395755 0.395977 0.396106 
0.396177 0.396212 0.396227 0.396227 0.396213 0.396178 0.396107 0.395978 0.395757 
0.395398 0.394842 0.394016 0.392834 0.3912 0.389013 0.386176 0.3826 0.378214 
0.378365 0.38274 0.386296 0.389104 0.391257 0.392856 0.394003 0.394798 0.395326 
0.395663 0.395867 0.395984 0.396046 0.396076 0.396087 0.396088 0.396076 0.396046 
0.395984 0.395868 0.395664 0.395328 0.394799 0.394005 0.392858 0.391259 0.389107 
0.386298 0.382743 0.378367 0.378523 0.382888 0.386422 0.3892 0.391318 0.392879 
0.393991 0.394753 0.395254 0.395569 0.395755 0.395859 0.395913 0.395938 0.395947 
0.395947 0.395938 0.395913 0.39586 0.395757 0.39557 0.395256 0.394755 0.393993 
0.392881 0.39132 0.389202 0.386424 0.38289 0.378525 0.378686 0.38304 0.386551 
0.389298 0.391379 0.392902 0.393977 0.394707 0.39518 0.395472 0.395642 0.395734 
0.395779 0.395798 0.395805 0.395805 0.395799 0.395779 0.395734 0.395643 0.395473 
0.395181 0.394708 0.393979 0.392904 0.391381 0.3893 0.386553 0.383042 0.378687 
0.378853 0.383196 0.386683 0.389398 0.391441 0.392925 0.393963 0.394658 0.395104 
0.395374 0.395527 0.395606 0.395643 0.395658 0.395662 0.395662 0.395658 0.395644 
0.395607 0.395527 0.395375 0.395105 0.39466 0.393964 0.392927 0.391443 0.3894 
0.386685 0.383198 0.378855 0.379027 0.383357 0.38682 0.3895 0.391504 0.392947 
0.393946 0.394608 0.395025 0.395273 0.395409 0.395477 0.395506 0.395516 0.395518 
0.395518 0.395516 0.395506 0.395478 0.39541 0.395274 0.395026 0.394609 0.393947 
0.392948 0.391505 0.389501 0.386821 0.383359 0.379028 0.379205 0.383523 0.38696 
0.389604 0.391567 0.392968 0.393928 0.394555 0.394944 0.39517 0.39529 0.395346 
0.395368 0.395373 0.395373 0.395373 0.395373 0.395368 0.395347 0.39529 0.39517 
0.394945 0.394556 0.393929 0.392969 0.391568 0.389605 0.386961 0.383524 0.379207 
0.37939 0.383694 0.387103 0.38971 0.39163 0.392988 0.393907 0.3945 0.39486 
0.395064 0.395168 0.395213 0.395228 0.395229 0.395227 0.395227 0.395229 0.395228 
0.395214 0.395169 0.395065 0.394861 0.394501 0.393908 0.392989 0.391631 0.389711 
0.387105 0.383695 0.379391 0.379581 0.383871 0.387251 0.389819 0.391694 0.393007 
0.393885 0.394442 0.394774 0.394956 0.395045 0.395079 0.395087 0.395084 0.39508 
0.39508 0.395084 0.395087 0.39508 0.395045 0.394957 0.394775 0.394443 0.393886 
0.393008 0.391695 0.38982 0.387252 0.383872 0.379582 0.379778 0.384053 0.387403 
0.389929 0.391758 0.393025 0.39386 0.394381 0.394685 0.394846 0.394919 0.394943 
0.394944 0.394938 0.394932 0.394932 0.394938 0.394945 0.394944 0.39492 0.394846 
0.394686 0.394382 0.393861 0.393025 0.391759 0.38993 0.387404 0.384054 0.379779 
0.379982 0.384241 0.387558 0.390041 0.391822 0.393041 0.393833 0.394318 0.394593 
0.394733 0.394792 0.394806 0.394801 0.39479 0.394783 0.394784 0.394791 0.394801 
0.394806 0.394792 0.394733 0.394594 0.394319 0.393834 0.393041 0.391823 0.390042 
0.387559 0.384242 0.379983 0.380194 0.384435 0.387718 0.390156 0.391886 0.393055 
0.393803 0.394251 0.394498 0.394617 0.394662 0.394667 0.394656 0.394643 0.394634 
0.394634 0.394643 0.394656 0.394667 0.394662 0.394618 0.394499 0.394252 0.393804 