# vtk DataFile Version 5.1
vtk output
ASCII
DATASET UNSTRUCTURED_GRID
POINTS 9486 double
0.1016 1.5 0 0.1016 1.45 5.1584879698e-20 0.1016 1.4 8.2585350466e-20 
0.1016 1.35 0 0.1016 1.3 0 0.1016 1.25 7.633537409e-20 
0.1016 1.2 -1.0472138867e-19 0.1016 1.15 -1.0474616531e-19 0.1016 1.1 0 
0.1016 1.05 0 0.1016 1 7.6430874677e-20 0.1016 0.95 -1.047413444e-19 
0.1016 0.9 7.6430971612e-20 0.1016 0.85 1.9900855048e-18 0.1016 0.8 -1.0474130562e-19 
0.1016 0.75 7.6430325377e-20 0.1016 0.7 2.0948253887e-18 0.1016 0.65 0 
0.1016 0.6 1.9900857116e-18 0.1016 0.55 0 0.1016 0.5 -1.0474154473e-19 
0.1016 0.45 0 0.1016 0.4 -1.0474482114e-19 0.1016 0.35 0 
0.1016 0.3 0 0.1016 0.25 0 0.1016 0.2 7.5297934506e-20 
0.1016 0.15 -9.0429310344e-20 0.1016 0.1 -9.209014038e-20 0.1016 0.05 -7.6045124168e-20 
0.1016 0 0 5.08 1.5 0.28700000048 5.08 1.45 0.28700000048 
5.08 1.4 0.28700000048 5.08 1.35 0.28700000048 5.08 1.3 0.28700000048 
5.08 1.25 0.28700000048 5.08 1.2 0.28700000048 5.08 1.15 0.28700000048 
5.08 1.1 0.28700000048 5.08 1.05 0.28700000048 5.08 1 0.28700000048 
5.08 0.95 0.28700000048 5.08 0.9 0.28700000048 5.08 0.85 0.28700000048 
5.08 0.8 0.28700000048 5.08 0.75 0.28700000048 5.08 0.7 0.28700000048 
5.08 0.65 0.28700000048 5.08 0.6 0.28700000048 5.08 0.55 0.28700000048 
5.08 0.5 0.28700000048 5.08 0.45 0.28700000048 5.08 0.4 0.28700000048 
5.08 0.35 0.28700000048 5.08 0.3 0.28700000048 5.08 0.25 0.28700000048 
5.08 0.2 0.28700000048 5.08 0.15 0.28700000048 5.08 0.1 0.28700000048 
5.08 0.05 0.28700000048 5.08 0 0.28700000048 0.151384 1.5 0.02146493271 
0.151384 1.45 0.021448900923 0.151384 1.4 0.021452795714 0.151384 1.35 0.021451983601 
0.151384 1.3 0.021452168003 0.151384 1.25 0.021452125162 0.151384 1.2 0.021452134475 
0.151384 1.15 0.021452132612 0.151384 1.1 0.021452134475 0.151384 1.05 0.021452132612 
0.151384 1 0.021452134475 0.151384 0.95 0.021452132612 0.151384 0.9 0.021452132612 
0.151384 0.85 0.021452132612 0.151384 0.8 0.021452132612 0.151384 0.75 0.021452134475 
0.151384 0.7 0.021452134475 0.151384 0.65 0.021452134475 0.151384 0.6 0.021452134475 
0.151384 0.55 0.021452134475 0.151384 0.5 0.021452134475 0.151384 0.45 0.021452132612 
0.151384 0.4 0.021452134475 0.151384 0.35 0.021452132612 0.151384 0.3 0.021452134475 
0.151384 0.25 0.021452127025 0.151384 0.2 0.021452162415 0.151384 0.15 0.02145200409 
0.151384 0.1 0.021452706307 0.151384 0.05 0.02144934237 0.151384 0 0.021464604884 
0.201168 1.5 0.04984471947 0.201168 1.45 0.049860715866 0.201168 1.4 0.04986718297 
0.201168 1.35 0.049865700305 0.201168 1.3 0.049866013229 0.201168 1.25 0.049865946174 
0.201168 1.2 0.049865961075 0.201168 1.15 0.04986595735 0.201168 1.1 0.04986595735 
0.201168 1.05 0.04986595735 0.201168 1 0.04986595735 0.201168 0.95 0.04986595735 
0.201168 0.9 0.04986595735 0.201168 0.85 0.04986595735 0.201168 0.8 0.04986595735 
0.201168 0.75 0.04986595735 0.201168 0.7 0.04986595735 0.201168 0.65 0.04986595735 
0.201168 0.6 0.04986595735 0.201168 0.55 0.04986595735 0.201168 0.5 0.04986595735 
0.201168 0.45 0.04986595735 0.201168 0.4 0.04986595735 0.201168 0.35 0.04986595735 
0.201168 0.3 0.049865961075 0.201168 0.25 0.049865946174 0.201168 0.2 0.049866005778 
0.201168 0.15 0.049865730107 0.201168 0.1 0.049867045134 0.201168 0.05 0.049861267209 
0.201168 0 0.049844291061 0.250952 1.5 0.083479054272 0.250952 1.45 0.083398230374 
0.250952 1.4 0.083408355713 0.250952 1.35 0.083406820893 0.250952 1.3 0.083407111466 
0.250952 1.25 0.083407051861 0.250952 1.2 0.083407066762 0.250952 1.15 0.083407066762 
0.250952 1.1 0.083407066762 0.250952 1.05 0.083407066762 0.250952 1 0.083407066762 
0.250952 0.95 0.083407066762 0.250952 0.9 0.083407066762 0.250952 0.85 0.083407066762 
0.250952 0.8 0.083407066762 0.250952 0.75 0.083407066762 0.250952 0.7 0.083407066762 
0.250952 0.65 0.083407066762 0.250952 0.6 0.083407066762 0.250952 0.55 0.083407066762 
0.250952 0.5 0.083407066762 0.250952 0.45 0.083407066762 0.250952 0.4 0.083407066762 
0.250952 0.35 0.083407066762 0.250952 0.3 0.083407066762 0.250952 0.25 0.083407059312 
0.250952 0.2 0.083407104015 0.250952 0.15 0.083406858146 0.250952 0.1 0.083408199251 
0.250952 0.05 0.083398923278 0.250952 0 0.083478525281 0.300736 1.5 0.14716693759 
0.300736 1.45 0.14724357426 0.300736 1.4 0.14723330736 0.300736 1.35 0.14723455906 
0.300736 1.3 0.14723439515 0.300736 1.25 0.14723441005 0.300736 1.2 0.14723441005 
0.300736 1.15 0.14723441005 0.300736 1.1 0.14723441005 0.300736 1.05 0.14723441005 
0.300736 1 0.14723441005 0.300736 0.95 0.14723441005 0.300736 0.9 0.14723441005 
0.300736 0.85 0.14723441005 0.300736 0.8 0.14723441005 0.300736 0.75 0.14723441005 
0.300736 0.7 0.14723441005 0.300736 0.65 0.14723441005 0.300736 0.6 0.14723441005 
0.300736 0.55 0.14723441005 0.300736 0.5 0.14723441005 0.300736 0.45 0.14723441005 
0.300736 0.4 0.14723441005 0.300736 0.35 0.14723441005 0.300736 0.3 0.14723441005 
0.300736 0.25 0.14723441005 0.300736 0.2 0.14723438025 0.300736 0.15 0.14723460376 
0.300736 0.1 0.14723312855 0.300736 0.05 0.14724433422 0.300736 0 0.14716635644 
0.35052 1.5 0.15515324473 0.35052 1.45 0.15522770584 0.35052 1.4 0.15521581471 
0.35052 1.35 0.15521745384 0.35052 1.3 0.15521720052 0.35052 1.25 0.15521724522 
0.35052 1.2 0.15521723032 0.35052 1.15 0.15521723032 0.35052 1.1 0.15521723032 
0.35052 1.05 0.15521723032 0.35052 1 0.15521723032 0.35052 0.95 0.15521723032 
0.35052 0.9 0.15521723032 0.35052 0.85 0.15521723032 0.35052 0.8 0.15521723032 
0.35052 0.75 0.15521723032 0.35052 0.7 0.15521723032 0.35052 0.65 0.15521723032 
0.35052 0.6 0.15521723032 0.35052 0.55 0.15521723032 0.35052 0.5 0.15521723032 
0.35052 0.45 0.15521723032 0.35052 0.4 0.15521723032 0.35052 0.35 0.15521723032 
0.35052 0.3 0.15521723032 0.35052 0.25 0.15521724522 0.35052 0.2 0.15521720052 
0.35052 0.15 0.15521749854 0.35052 0.1 0.1552156359 0.35052 0.05 0.1552284956 
0.35052 0 0.15515261889 0.400304 1.5 0.18852005899 0.400304 1.45 0.18836417794 
0.400304 1.4 0.18838000298 0.400304 1.35 0.18837818503 0.400304 1.3 0.18837840855 
0.400304 1.25 0.18837839365 0.400304 1.2 0.18837839365 0.400304 1.15 0.18837839365 
0.400304 1.1 0.18837839365 0.400304 1.05 0.18837839365 0.400304 1 0.18837839365 
0.400304 0.95 0.18837839365 0.400304 0.9 0.18837839365 0.400304 0.85 0.18837839365 
0.400304 0.8 0.18837839365 0.400304 0.75 0.18837839365 0.400304 0.7 0.18837839365 
0.400304 0.65 0.18837839365 0.400304 0.6 0.18837839365 0.400304 0.55 0.18837839365 
0.400304 0.5 0.18837839365 0.400304 0.45 0.18837839365 0.400304 0.4 0.18837839365 
0.400304 0.35 0.18837839365 0.400304 0.3 0.18837839365 0.400304 0.25 0.18837839365 
0.400304 0.2 0.18837839365 0.400304 0.15 0.18837822974 0.400304 0.1 0.18837982416 
0.400304 0.05 0.18836499751 0.400304 0 0.18851940334 0.450088 1.5 0.22610981762 
0.450088 1.45 0.22619141638 0.450088 1.4 0.22619566321 0.450088 1.35 0.22619527578 
0.450088 1.3 0.22619529068 0.450088 1.25 0.22619530559 0.450088 1.2 0.22619529068 
0.450088 1.15 0.22619529068 0.450088 1.1 0.22619529068 0.450088 1.05 0.22619529068 
0.450088 1 0.22619529068 0.450088 0.95 0.22619529068 0.450088 0.9 0.22619529068 
0.450088 0.85 0.22619529068 0.450088 0.8 0.22619529068 0.450088 0.75 0.22619529068 
0.450088 0.7 0.22619529068 0.450088 0.65 0.22619529068 0.450088 0.6 0.22619529068 
0.450088 0.55 0.22619529068 0.450088 0.5 0.22619529068 0.450088 0.45 0.22619529068 
0.450088 0.4 0.22619529068 0.450088 0.35 0.22619530559 0.450088 0.3 0.22619529068 
0.450088 0.25 0.22619530559 0.450088 0.2 0.22619527578 0.450088 0.15 0.22619532049 
0.450088 0.1 0.2261954695 0.450088 0.05 0.22619225085 0.450088 0 0.22610916197 
0.499872 1.5 0.260286659 0.499872 1.45 0.26024150848 0.499872 1.4 0.26022011042 
0.499872 1.35 0.26022422314 0.499872 1.3 0.26022326946 0.499872 1.25 0.26022350788 
0.499872 1.2 0.26022344828 0.499872 1.15 0.26022347808 0.499872 1.1 0.26022344828 
0.499872 1.05 0.26022344828 0.499872 1 0.26022344828 0.499872 0.95 0.26022344828 
0.499872 0.9 0.26022344828 0.499872 0.85 0.26022344828 0.499872 0.8 0.26022344828 
0.499872 0.75 0.26022344828 0.499872 0.7 0.26022344828 0.499872 0.65 0.26022344828 
0.499872 0.6 0.26022344828 0.499872 0.55 0.26022344828 0.499872 0.5 0.26022344828 
0.499872 0.45 0.26022344828 0.499872 0.4 0.26022344828 0.499872 0.35 0.26022347808 
0.499872 0.3 0.26022344828 0.499872 0.25 0.26022350788 0.499872 0.2 0.26022326946 
0.499872 0.15 0.26022425294 0.499872 0.1 0.2602199018 0.499872 0.05 0.26024246216 
0.499872 0 0.26028591394 0.549656 1.5 0.28591999412 0.549656 1.45 0.28591999412 
0.549656 1.4 0.28591999412 0.549656 1.35 0.28591999412 0.549656 1.3 0.28591999412 
0.549656 1.25 0.28591999412 0.549656 1.2 0.28591999412 0.549656 1.15 0.28591999412 
0.549656 1.1 0.28591999412 0.549656 1.05 0.28591999412 0.549656 1 0.28591999412 
0.549656 0.95 0.28591999412 0.549656 0.9 0.28591999412 0.549656 0.85 0.28591999412 
0.549656 0.8 0.28591999412 0.549656 0.75 0.28591999412 0.549656 0.7 0.28591999412 
0.549656 0.65 0.28591999412 0.549656 0.6 0.28591999412 0.549656 0.55 0.28591999412 
0.549656 0.5 0.28591999412 0.549656 0.45 0.28591999412 0.549656 0.4 0.28591999412 
0.549656 0.35 0.28591999412 0.549656 0.3 0.28591999412 0.549656 0.25 0.28591999412 
0.549656 0.2 0.28591999412 0.549656 0.15 0.28591999412 0.549656 0.1 0.28591999412 
0.549656 0.05 0.28591999412 0.549656 0 0.28591999412 0.59944 1.5 0.28700000048 
0.59944 1.45 0.28700000048 0.59944 1.4 0.28700000048 0.59944 1.35 0.28700000048 
0.59944 1.3 0.28700000048 0.59944 1.25 0.28700000048 0.59944 1.2 0.28700000048 
0.59944 1.15 0.28700000048 0.59944 1.1 0.28700000048 0.59944 1.05 0.28700000048 
0.59944 1 0.28700000048 0.59944 0.95 0.28700000048 0.59944 0.9 0.28700000048 
0.59944 0.85 0.28700000048 0.59944 0.8 0.28700000048 0.59944 0.75 0.28700000048 
0.59944 0.7 0.28700000048 0.59944 0.65 0.28700000048 0.59944 0.6 0.28700000048 
0.59944 0.55 0.28700000048 0.59944 0.5 0.28700000048 0.59944 0.45 0.28700000048 
0.59944 0.4 0.28700000048 0.59944 0.35 0.28700000048 0.59944 0.3 0.28700000048 
[...]
CELL_DATA 9150
FIELD FieldData 7
B_Stress_n_p_m2 1 9150 float
0.0771621 0.115374 0.0972041 0.108134 0.119626 0.121735 0.122979 0.124036 0.124124 
0.123885 0.123625 0.123378 0.123205 0.123144 0.123188 0.123319 0.123519 0.123784 
0.124107 0.124451 0.124763 0.125025 0.124925 0.123827 0.122517 0.120316 0.108689 
0.0976304 0.115756 0.0773873 0.2813 0.0609649 0.0780398 0.114216 0.120688 0.130009 
0.139749 0.145169 0.14862 0.151004 0.152385 0.153147 0.153565 0.153773 0.153866 
0.153908 0.153902 0.153796 0.153494 0.152847 0.151555 0.149224 0.145793 0.140366 
0.130594 0.121238 0.11473 0.0784283 0.0613215 0.282322 0.160005 0.10513 0.108168 
0.124972 0.134152 0.141289 0.147254 0.151104 0.153516 0.15506 0.155983 0.156512 
0.156818 0.157 0.157116 0.157192 0.157226 0.157184 0.157003 0.156578 0.15573 
0.154226 0.151825 0.147959 0.141955 0.134764 0.125518 0.108626 0.105562 0.160613 
0.160031 0.146443 0.145602 0.154122 0.162121 0.168856 0.174535 0.178789 0.181785 
0.183856 0.185243 0.186146 0.18672 0.187073 0.18727 0.18734 0.187284 0.187064 
0.18661 0.185808 0.184497 0.182474 0.1795 0.175244 0.169542 0.16277 0.154725 
0.14616 0.146996 0.160607 0.178718 0.175288 0.174602 0.179398 0.185299 0.191072 
0.19629 0.200538 0.20379 0.206199 0.207927 0.20913 0.209937 0.210445 0.210716 
0.21078 0.210635 0.210247 0.209549 0.208441 0.206786 0.204429 0.201207 0.196968 
0.191743 0.185952 0.180026 0.175209 0.1759 0.179369 0.204356 0.205284 0.205666 
0.20904 0.213726 0.218692 0.223377 0.227408 0.230679 0.233233 0.23516 0.236566 
0.237547 0.238178 0.238513 0.238573 0.238357 0.237838 0.23696 0.235643 0.233789 
0.231289 0.228054 0.224043 0.219362 0.214391 0.209694 0.206309 0.205922 0.205016 
0.253513 0.25352 0.254897 0.258429 0.262975 0.267798 0.272408 0.276499 0.279947 
0.282743 0.284932 0.286583 0.287766 0.28854 0.288948 0.289009 0.288721 0.28806 
0.286982 0.285424 0.283312 0.280577 0.277173 0.273111 0.268517 0.263698 0.259151 
0.255616 0.254246 0.254201 0.314523 0.311211 0.313606 0.317919 0.322741 0.327673 
0.332364 0.336586 0.340227 0.343256 0.345688 0.347564 0.348933 0.34984 0.350316 
0.350378 0.350024 0.349235 0.347975 0.346196 0.343847 0.340887 0.337299 0.333116 
0.328449 0.323531 0.318715 0.314403 0.312018 0.315368 0.362038 0.357333 0.360632 
0.365466 0.370389 0.375261 0.379859 0.38402 0.387656 0.390728 0.393236 0.395199 
0.396648 0.397615 0.398123 0.398183 0.397796 0.396944 0.395602 0.393737 0.391315 
0.388314 0.384736 0.380619 0.376053 0.371202 0.36629 0.361461 0.358154 0.362867 
0.376626 0.37418 0.377828 0.382454 0.387026 0.391475 0.395656 0.399452 0.402794 
0.405645 0.407995 0.409854 0.411238 0.412166 0.412653 0.412708 0.412329 0.411506 
0.410221 0.408453 0.406182 0.4034 0.400115 0.396364 0.392217 0.387792 0.383236 
0.378618 0.374976 0.37743 0.3741 0.375312 0.378983 0.383133 0.387226 0.391176 
0.394872 0.39823 0.401196 0.403739 0.405847 0.407524 0.408779 0.409623 0.410067 
0.410115 0.409767 0.409014 0.407846 0.40625 0.404213 0.401733 0.39882 0.395505 
0.391843 0.387919 0.383843 0.379703 0.376037 0.374827 0.372938 0.376476 0.380286 
0.384172 0.38795 0.391543 0.394878 0.397896 0.400558 0.402843 0.404741 0.406255 
0.40739 0.408155 0.408557 0.408599 0.408281 0.407597 0.406539 0.405097 0.403263 
0.401035 0.398422 0.395445 0.392144 0.388575 0.384816 0.38094 0.377135 0.373595 
0.373078 0.377423 0.38141 0.385212 0.388806 0.392158 0.395227 0.397983 0.400403 
0.402475 0.404195 0.405567 0.406596 0.407289 0.407653 0.407691 0.407401 0.406779 
0.405819 0.404511 0.402849 0.400829 0.398455 0.395737 0.392699 0.389372 0.385796 
0.382004 0.378022 0.373673 0.373489 0.37806 0.382162 0.385939 0.389419 0.392601 
0.395473 0.398026 0.400251 0.402147 0.403716 0.404965 0.4059 0.40653 0.406861 
0.406894 0.406629 0.406063 0.405189 0.403997 0.402481 0.400632 0.398449 0.395932 
0.393088 0.38993 0.386467 0.3827 0.378602 0.374028 0.373947 0.378573 0.382724 
0.386481 0.38988 0.392937 0.395659 0.398053 0.400122 0.401873 0.403316 0.40446 
0.405315 0.405889 0.40619 0.406219 0.405977 0.40546 0.404659 0.403567 0.402171 
0.400463 0.398432 0.396071 0.393376 0.390341 0.386958 0.383212 0.379064 0.374434 
0.374379 0.379016 0.383179 0.386909 0.390242 0.393202 0.395808 0.398075 0.400018 
0.401651 0.402988 0.404044 0.40483 0.405356 0.405631 0.405658 0.405435 0.404959 
0.404221 0.403212 0.401918 0.400324 0.398416 0.396179 0.393598 0.390658 0.38734 
0.383619 0.37946 0.37482 0.374761 0.379398 0.383554 0.387255 0.390532 0.393414 
0.395926 0.398091 0.399931 0.401466 0.402715 0.403696 0.404424 0.40491 0.405163 
0.405186 0.40498 0.404539 0.403855 0.402916 0.401705 0.400205 0.398397 0.396259 
0.39377 0.390907 0.387644 0.383952 0.379799 0.375159 0.37509 0.379726 0.383869 
0.387539 0.390767 0.393584 0.396019 0.398101 0.399856 0.40131 0.402486 0.403404 
0.404082 0.404533 0.404767 0.404788 0.404595 0.404185 0.403546 0.402665 0.401524 
0.400102 0.398375 0.396319 0.393905 0.391106 0.38789 0.384228 0.380089 0.37545 
0.375373 0.380007 0.384135 0.387776 0.390961 0.393722 0.396093 0.398105 0.39979 
0.401176 0.40229 0.403155 0.403791 0.404212 0.40443 0.404449 0.404268 0.403883 
0.403282 0.402451 0.401368 0.400011 0.398352 0.396363 0.394012 0.391266 0.388093 
0.384459 0.380335 0.375698 0.375617 0.380249 0.384361 0.387976 0.391123 0.393836 
0.396152 0.398106 0.399731 0.40106 0.402121 0.402941 0.403541 0.403937 0.404141 
0.404158 0.403987 0.403624 0.403055 0.402266 0.401232 0.39993 0.398328 0.396395 
0.394097 0.391397 0.388261 0.384654 0.380544 0.37591 0.375828 0.380458 0.384556 
0.388146 0.391259 0.393931 0.3962 0.398103 0.399677 0.400957 0.401974 0.402755 
0.403324 0.403698 0.40389 0.403905 0.403743 0.403398 0.402858 0.402103 0.401112 
0.399856 0.398303 0.396419 0.394166 0.391506 0.388403 0.38482 0.380724 0.376093 
0.376012 0.380639 0.384724 0.388292 0.391375 0.394011 0.396239 0.398098 0.399628 
0.400865 0.401843 0.402591 0.403133 0.403489 0.40367 0.403684 0.403529 0.4032 
0.402683 0.40196 0.401005 0.399789 0.398278 0.396435 0.394222 0.391598 0.388524 
0.384962 0.380879 0.376251 0.376174 0.380798 0.384871 0.388418 0.391474 0.394078 
0.39627 0.398091 0.399582 0.400782 0.401726 0.402445 0.402964 0.403303 0.403475 
0.403487 0.403339 0.403024 0.402528 0.401831 0.400908 0.399727 0.398253 0.396447 
0.394268 0.391676 0.388627 0.385085 0.381015 0.376389 0.376318 0.380939 0.385001 
0.38853 0.391561 0.394136 0.396295 0.398082 0.399539 0.400706 0.40162 0.402313 
0.402811 0.403136 0.4033 0.403311 0.403168 0.402865 0.402388 0.401715 0.400819 
0.399669 0.398228 0.396455 0.394307 0.391742 0.388718 0.385194 0.381135 0.376512 
0.376448 0.381066 0.385117 0.388628 0.391638 0.394186 0.396316 0.398072 0.399498 
0.400636 0.401523 0.402192 0.402672 0.402983 0.40314 0.40315 0.403013 0.402721 
0.402259 0.401607 0.400737 0.399615 0.398203 0.396459 0.39434 0.391801 0.388798 
0.385291 0.381242 0.376622 0.376566 0.381181 0.385221 0.388717 0.391706 0.394229 
0.396332 0.39806 0.399458 0.400569 0.401432 0.402081 0.402544 0.402843 0.402994 
0.403002 0.402869 0.402587 0.402141 0.401508 0.40066 0.399563 0.398178 0.396462 
0.394368 0.391853 0.38887 0.385378 0.381339 0.376723 0.376674 0.381286 0.385317 
0.388798 0.391767 0.394268 0.396346 0.398047 0.399419 0.400506 0.401346 0.401976 
0.402423 0.402712 0.402857 0.402865 0.402736 0.402463 0.40203 0.401414 0.400588 
0.399514 0.398154 0.396462 0.394393 0.3919 0.388936 0.385459 0.381429 0.376816 
0.376775 0.381384 0.385406 0.388873 0.391824 0.394303 0.396357 0.398034 0.399382 
0.400445 0.401264 0.401876 0.40231 0.402588 0.402727 0.402735 0.40261 0.402345 
0.401925 0.401326 0.400519 0.399467 0.398129 0.396462 0.394415 0.391943 0.388997 
0.385534 0.381513 0.376903 0.376871 0.381476 0.385489 0.388942 0.391876 0.394334 
0.396366 0.398019 0.399344 0.400385 0.401185 0.40178 0.402201 0.40247 0.402604 
0.402611 0.40249 0.402233 0.401824 0.401241 0.400452 0.399421 0.398106 0.39646 
0.394436 0.391983 0.389054 0.385604 0.381593 0.376986 0.376962 0.381564 0.385568 
0.389008 0.391924 0.394363 0.396373 0.398004 0.399307 0.400328 0.401109 0.401688 
0.402096 0.402357 0.402486 0.402492 0.402374 0.402125 0.401727 0.401159 0.400387 
0.399376 0.398082 0.396458 0.394454 0.392021 0.389109 0.385672 0.381669 0.377065 
0.377049 0.381649 0.385644 0.389071 0.39197 0.394389 0.396378 0.397988 0.39927 
0.40027 0.401034 0.401598 0.401994 0.402246 0.402371 0.402376 0.402262 0.40202 
0.401633 0.401079 0.400324 0.399332 0.398058 0.396455 0.394472 0.392057 0.389162 
0.385737 0.381743 0.377143 0.377135 0.38173 0.385718 0.389131 0.392014 0.394415 
0.396383 0.397972 0.399233 0.400214 0.40096 0.401509 0.401894 0.402138 0.402259 
0.402263 0.402152 0.401917 0.401541 0.401 0.400262 0.399289 0.398035 0.396452 
0.394489 0.392093 0.389213 0.385802 0.381815 0.377219 0.377218 0.381811 0.385789 
0.38919 0.392057 0.394438 0.396387 0.397955 0.399195 0.400158 0.400887 0.401422 
0.401796 0.402032 0.402148 0.402153 0.402045 0.401816 0.401451 0.400923 0.400201 
0.399246 0.398011 0.396449 0.394505 0.392128 0.389264 0.385865 0.381887 0.377294 
0.377301 0.38189 0.38586 0.389248 0.392099 0.394461 0.396389 0.397937 0.399157 
0.400101 0.400814 0.401335 0.401698 0.401927 0.402039 0.402043 0.401938 0.401717 
0.401361 0.400847 0.400141 0.399203 0.397988 0.396445 0.394521 0.392162 0.389314 
0.385928 0.381959 0.377369 0.377383 0.381968 0.38593 0.389305 0.392139 0.394484 
0.396392 0.397919 0.399119 0.400045 0.400741 0.401249 0.401601 0.401822 0.401931 
0.401934 0.401833 0.401618 0.401272 0.400771 0.40008 0.39916 0.397965 0.396442 
0.394538 0.392197 0.389365 0.385991 0.38203 0.377445 0.377465 0.382047 0.385999 
0.389362 0.39218 0.394505 0.396393 0.3979 0.399081 0.399988 0.400668 0.401162 
0.401504 0.401718 0.401822 0.401826 0.401727 0.401519 0.401183 0.400695 0.40002 
0.399118 0.397941 0.396438 0.394554 0.392231 0.389416 0.386054 0.382102 0.377521 
0.377548 0.382125 0.386069 0.389418 0.39222 0.394526 0.396394 0.397881 0.399042 
0.39993 0.400595 0.401075 0.401406 0.401614 0.401714 0.401717 0.401622 0.40142 
0.401094 0.400618 0.399959 0.399075 0.397918 0.396435 0.39457 0.392266 0.389467 
0.386119 0.382175 0.377598 0.377631 0.382204 0.386139 0.389475 0.39226 0.394548 
0.396395 0.397861 0.399002 0.399873 0.400521 0.400988 0.401309 0.401509 0.401606 
0.401608 0.401516 0.401321 0.401005 0.400542 0.399898 0.399032 0.397894 0.396432 
0.394587 0.392302 0.389519 0.386184 0.382249 0.377676 0.377715 0.382284 0.38621 
0.389532 0.3923 0.394568 0.396395 0.39784 0.398962 0.399814 0.400446 0.4009 
0.40121 0.401404 0.401497 0.401499 0.40141 0.401222 0.400915 0.400465 0.399837 
0.398989 0.39787 0.396428 0.394604 0.392338 0.389572 0.38625 0.382325 0.377755 
0.3778 0.382365 0.386281 0.38959 0.392341 0.394589 0.396395 0.397819 0.398921 
0.399755 0.40037 0.400811 0.401111 0.401298 0.401387 0.401389 0.401304 0.401121 
0.400825 0.400388 0.399775 0.398945 0.397847 0.396425 0.394621 0.392375 0.389625 
0.386318 0.382402 0.377836 0.377886 0.382447 0.386354 0.389649 0.392382 0.39461 
0.396395 0.397798 0.398879 0.399694 0.400294 0.400721 0.401012 0.401191 0.401277 
0.401279 0.401196 0.401021 0.400734 0.40031 0.399713 0.398901 0.397822 0.396422 
0.394639 0.392412 0.38968 0.386386 0.38248 0.377919 0.377974 0.382531 0.386427 
0.389708 0.392423 0.394631 0.396395 0.397776 0.398837 0.399633 0.400217 0.400631 
0.400911 0.401083 0.401166 0.401167 0.401088 0.400919 0.400642 0.400231 0.39965 
0.398856 0.397798 0.396419 0.394657 0.392451 0.389736 0.386457 0.38256 0.378004 
0.378064 0.382616 0.386502 0.389768 0.392465 0.394653 0.396394 0.397754 0.398793 
0.399571 0.400138 0.400539 0.400809 0.400974 0.401053 0.401055 0.400979 0.400816 
0.400549 0.400151 0.399586 0.398811 0.397773 0.396416 0.394676 0.39249 0.389794 
0.386529 0.382642 0.378091 0.378156 0.382702 0.386579 0.389829 0.392508 0.394674 
0.396393 0.39773 0.398749 0.399508 0.400059 0.400446 0.400706 0.400864 0.40094 
0.400941 0.400868 0.400712 0.400455 0.40007 0.399522 0.398765 0.397748 0.396413 
0.394695 0.39253 0.389853 0.386603 0.382726 0.378179 0.378249 0.382791 0.386657 
0.389892 0.392551 0.394696 0.396392 0.397707 0.398704 0.399444 0.399978 0.400352 
0.400601 0.400753 0.400825 0.400826 0.400756 0.400607 0.40036 0.399988 0.399456 
0.398719 0.397723 0.39641 0.394714 0.392571 0.389913 0.386678 0.382813 0.378271 
0.378345 0.382881 0.386736 0.389955 0.392595 0.394717 0.396391 0.397683 0.398659 
0.399379 0.399896 0.400257 0.400496 0.40064 0.400709 0.40071 0.400644 0.400501 
0.400264 0.399906 0.39939 0.398671 0.397697 0.396407 0.394734 0.392613 0.389974 
0.386756 0.382901 0.378364 0.378442 0.382974 0.386818 0.39002 0.392639 0.394739 
0.396389 0.397658 0.398612 0.399312 0.399813 0.40016 0.400389 0.400527 0.400592 
0.400593 0.40053 0.400393 0.400166 0.399821 0.399322 0.398623 0.397671 0.396403 
0.394755 0.392656 0.390037 0.386835 0.382991 0.37846 0.378542 0.383069 0.386901 
0.390087 0.392685 0.394762 0.396387 0.397632 0.398564 0.399245 0.399729 0.400062 
0.40028 0.400412 0.400473 0.400474 0.400414 0.400285 0.400068 0.399736 0.399254 
0.398574 0.397644 0.3964 0.394776 0.3927 0.390102 0.386916 0.383084 0.378558 
0.378645 0.383166 0.386986 0.390154 0.392731 0.394784 0.396385 0.397606 0.398515 
0.399176 0.399643 0.399962 0.400171 0.400295 0.400353 0.400354 0.400297 0.400175 
0.399968 0.39965 0.399184 0.398525 0.397616 0.396397 0.394797 0.392745 0.390168 
0.387 0.38318 0.378659 0.37875 0.383265 0.387073 0.390224 0.392779 0.394807 
0.396383 0.397579 0.398465 0.399106 0.399556 0.399861 0.40006 0.400177 0.400232 
0.400233 0.400179 0.400063 0.399866 0.399562 0.399113 0.398474 0.397588 0.396393 
0.394818 0.39279 0.390236 0.387085 0.383278 0.378763 0.378858 0.383367 0.387162 
0.390294 0.392827 0.39483 0.39638 0.397551 0.398415 0.399034 0.399467 0.399759 
0.399947 0.400058 0.400109 0.40011 0.40006 0.39995 0.399763 0.399473 0.399041 
0.398422 0.39756 0.39639 0.394841 0.392837 0.390305 0.387173 0.383378 0.378869 
0.378968 0.383471 0.387253 0.390366 0.392876 0.394854 0.396377 0.397523 0.398362 
0.398962 0.399377 0.399655 0.399833 0.399937 0.399985 0.399986 0.399939 0.399836 
0.399659 0.399382 0.398968 0.398369 0.39753 0.396386 0.394863 0.392885 0.390376 
0.387263 0.383481 0.378979 0.379082 0.383578 0.387346 0.39044 0.392926 0.394878 
0.396374 0.397493 0.398309 0.398888 0.399285 0.39955 0.399718 0.399815 0.39986 
0.39986 0.399817 0.39972 0.399553 0.39929 0.398893 0.398315 0.3975 0.396382 
0.394886 0.392934 0.390449 0.387356 0.383587 0.379091 0.379198 0.383688 0.387442 
0.390516 0.392977 0.394901 0.39637 0.397463 0.398255 0.398812 0.399192 0.399443 
0.399601 0.399692 0.399733 0.399733 0.399693 0.399603 0.399446 0.399196 0.398817 
0.39826 0.397469 0.396377 0.394909 0.392984 0.390524 0.387451 0.383696 0.379207 
0.379318 0.383801 0.38754 0.390593 0.393029 0.394925 0.396366 0.397432 0.398199 
0.398735 0.399098 0.399335 0.399482 0.399567 0.399605 0.399605 0.399568 0.399484 
0.399337 0.399101 0.398739 0.398204 0.397437 0.396372 0.394932 0.393036 0.3906 
0.387548 0.383808 0.379325 0.379441 0.383916 0.387641 0.390672 0.393081 0.39495 
0.396361 0.3974 0.398142 0.398656 0.399001 0.399225 0.399362 0.39944 0.399475 
0.399475 0.399441 0.399364 0.399227 0.399005 0.39866 0.398146 0.397405 0.396367 
0.394956 0.393088 0.390679 0.387648 0.383923 0.379448 0.379567 0.384035 0.387744 
0.390753 0.393135 0.394974 0.396356 0.397366 0.398083 0.398576 0.398903 0.399113 
0.399241 0.399312 0.399344 0.399344 0.399313 0.399242 0.399115 0.398906 0.398579 
0.398087 0.397371 0.396361 0.394979 0.393141 0.390759 0.38775 0.384041 0.379573 
0.379697 0.384157 0.38785 0.390835 0.39319 0.394999 0.39635 0.397332 0.398023 
0.398494 0.398804 0.399 0.399118 0.399183 0.399212 0.399212 0.399184 0.399119 
0.399002 0.398806 0.398497 0.398026 0.397336 0.396355 0.395003 0.393195 0.390841 
0.387855 0.384163 0.379702 0.37983 0.384283 0.387958 0.39092 0.393245 0.395023 
0.396344 0.397296 0.397961 0.39841 0.398702 0.398885 0.398993 0.399052 0.399078 
0.399078 0.399053 0.398994 0.398887 0.398705 0.398413 0.397964 0.3973 0.396348 
0.395027 0.39325 0.390924 0.387963 0.384287 0.379835 0.379967 0.384411 0.388069 
0.391006 0.393302 0.395048 0.396336 0.397259 0.397898 0.398325 0.398599 0.398768 
0.398867 0.39892 0.398943 0.398943 0.398921 0.398868 0.39877 0.398601 0.398327 
0.397901 0.397262 0.39634 0.395051 0.393306 0.39101 0.388074 0.384416 0.379972 
0.380109 0.384544 0.388183 0.391094 0.393359 0.395072 0.396328 0.39722 0.397833 
0.398238 0.398494 0.39865 0.398739 0.398786 0.398806 0.398806 0.398787 0.39874 
0.398652 0.398496 0.39824 0.397835 0.397223 0.396331 0.395076 0.393363 0.391098 
0.388187 0.384548 0.380112 0.380254 0.38468 0.3883 0.391184 0.393418 0.395096 
0.396319 0.397181 0.397766 0.398148 0.398388 0.39853 0.39861 0.398651 0.398668 
0.398668 0.398652 0.398611 0.398532 0.398389 0.39815 0.397768 0.397183 0.396322 
0.3951 0.393421 0.391188 0.388304 0.384684 0.380257 0.380404 0.38482 0.388421 
0.391277 0.393477 0.395121 0.396309 0.397139 0.397697 0.398057 0.398279 0.398409 
0.398479 0.398515 0.398529 0.398529 0.398515 0.39848 0.39841 0.398281 0.398059 
0.397699 0.397141 0.396312 0.395123 0.39348 0.39128 0.388424 0.384823 0.380407 
0.380558 0.384964 0.388544 0.391371 0.393537 0.395144 0.396298 0.397096 0.397627 
0.397964 0.398169 0.398285 0.398347 0.398377 0.398389 0.398389 0.398378 0.398348 
0.398286 0.39817 0.397966 0.397628 0.397098 0.3963 0.395147 0.393539 0.391374 
0.388547 0.384967 0.38056 0.380716 0.385112 0.38867 0.391467 0.393598 0.395168 
0.396285 0.397051 0.397554 0.397869 0.398056 0.39816 0.398214 0.398238 0.398247 
0.398247 0.398239 0.398214 0.398161 0.398057 0.397871 0.397556 0.397053 0.396287 
0.39517 0.3936 0.39147 0.388673 0.385115 0.380719 0.38088 0.385265 0.3888 
0.391565 0.393659 0.395191 0.396272 0.397004 0.397479 0.397772 0.397942 0.398034 
0.398078 0.398098 0.398105 0.398105 0.398098 0.398079 0.398034 0.397943 0.397773 
0.397481 0.397006 0.396273 0.395193 0.393661 0.391568 0.388803 0.385267 0.380882 
0.381049 0.385422 0.388934 0.391666 0.393721 0.395214 0.396256 0.396955 0.397402 
0.397673 0.397826 0.397905 0.397942 0.397956 0.397961 0.397961 0.397957 0.397942 
0.397906 0.397827 0.397674 0.397403 0.396957 0.396258 0.395215 0.393723 0.391668 
0.388936 0.385424 0.381051 0.381223 0.385584 0.389071 0.391768 0.393784 0.395235 
0.396239 0.396904 0.397323 0.397571 0.397707 0.397775 0.397804 0.397813 0.397816 
0.397816 0.397814 0.397804 0.397776 0.397708 0.397572 0.397324 0.396905 0.396241 
0.395237 0.393786 0.39177 0.389073 0.385586 0.381225 0.381403 0.385751 0.389211 
0.391873 0.393847 0.395256 0.396221 0.396851 0.397241 0.397467 0.397587 0.397643 
0.397664 0.39767 0.39767 0.39767 0.39767 0.397665 0.397644 0.397588 0.397468 
0.397242 0.396852 0.396222 0.395258 0.393849 0.391874 0.389213 0.385753 0.381405 
0.381589 0.385924 0.389356 0.39198 0.393911 0.395276 0.3962 0.396795 0.397156 
0.39736 0.397465 0.39751 0.397524 0.397525 0.397523 0.397523 0.397525 0.397524 
0.39751 0.397465 0.397361 0.397157 0.396796 0.396201 0.395278 0.393912 0.391981 
0.389357 0.385925 0.38159 0.381781 0.386101 0.389504 0.392088 0.393975 0.395295 
0.396177 0.396736 0.397069 0.397252 0.39734 0.397375 0.397382 0.397378 0.397375 
0.397375 0.397379 0.397382 0.397375 0.397341 0.397252 0.39707 0.396737 0.396178 
0.395296 0.393976 0.39209 0.389506 0.386102 0.381782 0.381979 0.386284 0.389657 
0.392199 0.394039 0.395312 0.396152 0.396675 0.39698 0.39714 0.397214 0.397238 
0.397238 0.397231 0.397226 0.397226 0.397232 0.397239 0.397238 0.397214 0.397141 
0.39698 0.396676 0.396153 0.395314 0.39404 0.3922 0.389658 0.386285 0.38198 
0.382185 0.386473 0.389813 0.392312 0.394103 0.395328 0.396124 0.396611 0.396887 
0.397027 0.397085 0.397099 0.397094 0.397083 0.397076 0.397076 0.397083 0.397094 
0.3971 0.397086 0.397027 0.396888 0.396612 0.396125 0.395329 0.394104 0.392313 
0.389814 0.386474 0.382186 0.382397 0.386669 0.389974 0.392427 0.394167 0.395342 
0.396094 0.396544 0.396791 0.39691 0.396955 0.39696 0.396948 0.396934 0.396926 
0.396926 0.396935 0.396948 0.39696 0.396955 0.396911 0.396792 0.396545 0.396095 