# vtk DataFile Version 5.1
vtk output
ASCII
DATASET UNSTRUCTURED_GRID
POINTS 10043 double
-10.1 1.4499999993 1.7536673624e-07 -10.049999999 1.4499999993 1.8033075833e-07 -10.049999999 1.5 -6.9312795858e-07 
-9.9999999985 1.4499999993 1.8001971114e-07 -9.9999999985 1.5 -6.8828580879e-07 -9.9499999978 1.4499999993 1.7828712373e-07 
-9.9499999978 1.5 -6.8123631536e-07 -9.899999997 1.4499999993 1.7667095165e-07 -9.899999997 1.5 -6.7477617449e-07 
-9.8499999963 1.4499999993 1.7522667406e-07 -9.8499999963 1.5 -6.6954748945e-07 -9.7999999955 1.4499999993 1.7423896281e-07 
-9.7999999955 1.5 -6.6541383603e-07 -9.7499999948 1.4499999993 1.7338130931e-07 -9.7499999948 1.5 -6.6215602601e-07 
-9.699999994 1.4499999993 1.7272101616e-07 -9.699999994 1.5 -6.5987137532e-07 -9.6499999933 1.4499999993 1.7234721383e-07 
-9.6499999933 1.5 -6.5821154749e-07 -9.5999999925 1.4499999993 1.720780034e-07 -9.5999999925 1.5 -6.5734116106e-07 
-9.5499999918 1.4499999993 1.7207618441e-07 -9.5499999918 1.5 -6.569737252e-07 -9.4999999911 1.4499999993 1.7204889957e-07 
-9.4999999911 1.5 -6.5703738983e-07 -9.4499999903 1.4499999993 1.7223170801e-07 -9.4499999903 1.5 -6.57694045e-07 
-9.3999999896 1.4499999993 1.7238632211e-07 -9.3999999896 1.5 -6.5880090006e-07 -9.3499999888 1.4499999993 1.7272374464e-07 
-9.3499999888 1.5 -6.6017059908e-07 -9.2999999881 1.4499999993 1.7329854529e-07 -9.2999999881 1.5 -6.6188772507e-07 
-9.2499999873 1.4499999993 1.7375874961e-07 -9.2499999873 1.5 -6.6404049903e-07 -9.1999999866 1.4499999993 1.7447543144e-07 
-9.1999999866 1.5 -6.6641882768e-07 -9.1499999858 1.4499999993 1.7514572903e-07 -9.1499999858 1.5 -6.6915004027e-07 
-9.0999999851 1.4499999993 1.7584967793e-07 -9.0999999851 1.5 -6.7202495302e-07 -9.0499999844 1.4499999993 1.7669459851e-07 
-9.0499999844 1.5 -6.7522728386e-07 -8.9999999836 1.4499999993 1.775722609e-07 -8.9999999836 1.5 -6.7880614552e-07 
-8.9499999829 1.4499999993 1.7857088608e-07 -8.9499999829 1.5 -6.8251233643e-07 -8.8999999821 1.4499999993 1.7960043408e-07 
-8.8999999821 1.5 -6.8651411311e-07 -8.8499999814 1.4499999993 1.8068273278e-07 -8.8499999814 1.5 -6.906868748e-07 
-8.7999999806 1.4499999993 1.818796278e-07 -8.7999999806 1.5 -6.95116114e-07 -8.7499999799 1.4499999993 1.831329115e-07 
-8.7499999799 1.5 -6.9975726547e-07 -8.6999999791 1.4499999993 1.8385959777e-07 -8.6999999791 1.5 -7.0216560744e-07 
-8.6499999784 1.4499999993 1.8502011301e-07 -8.6499999784 1.5 -7.0733926805e-07 -8.5999999776 1.4499999993 1.8637980759e-07 
-8.5999999776 1.5 -7.1248746281e-07 -8.5499999769 1.4499999993 1.8789866374e-07 -8.5499999769 1.5 -7.1783210842e-07 
-8.4999999762 1.4499999993 1.8925608458e-07 -8.4999999762 1.5 -7.2357374847e-07 -8.4499999754 1.4499999993 1.908658902e-07 
-8.4499999754 1.5 -7.2949728747e-07 -8.3999999747 1.4499999993 1.9246432714e-07 -8.3999999747 1.5 -7.3560818237e-07 
-8.3499999739 1.4499999993 1.9396362916e-07 -8.3499999739 1.5 -7.4194326771e-07 -8.2999999732 1.4499999993 1.9583855249e-07 
-8.2999999732 1.5 -7.4846570897e-07 -8.2499999724 1.4499999993 1.9758068959e-07 -8.2499999724 1.5 -7.5520324572e-07 
-8.1999999717 1.4499999993 1.9935147577e-07 -8.1999999717 1.5 -7.6219635048e-07 -8.1499999709 1.4499999993 2.0133326473e-07 
-8.1499999709 1.5 -7.6945502769e-07 -8.0999999702 1.4499999993 2.0331960116e-07 -8.0999999702 1.5 -7.7691743172e-07 
-8.0499999695 1.4499999993 2.0534322687e-07 -8.0499999695 1.5 -7.8458492681e-07 -7.9999999687 1.4499999993 2.0747417295e-07 
-7.9999999687 1.5 -7.9259757513e-07 -7.949999968 1.4499999993 2.0957646996e-07 -7.949999968 1.5 -8.0071390585e-07 
-7.8999999672 1.4499999993 2.1166421504e-07 -7.8999999672 1.5 -8.0918812273e-07 -7.8499999665 1.4499999993 2.1383335991e-07 
-7.8499999665 1.5 -8.1803705143e-07 -7.7999999657 1.4499999993 2.1621578128e-07 -7.7999999657 1.5 -8.2686688074e-07 
-7.749999965 1.4499999993 2.1874235756e-07 -7.749999965 1.5 -8.3593135969e-07 -7.6999999642 1.4499999993 2.2111659348e-07 
-7.6999999642 1.5 -8.4548105406e-07 -7.6499999635 1.4499999993 2.2369910369e-07 -7.6499999635 1.5 -8.5515989667e-07 
-7.5999999627 1.4499999993 2.2637983932e-07 -7.5999999627 1.5 -8.6522209131e-07 -7.549999962 1.4499999993 2.2911605413e-07 
-7.549999962 1.5 -8.7566991169e-07 -7.4999999613 1.4499999993 2.3193366872e-07 -7.4999999613 1.5 -8.8620276983e-07 
-7.4499999605 1.4499999993 2.3468489019e-07 -7.4499999605 1.5 -8.9719128482e-07 -7.3999999598 1.4499999993 2.3768031099e-07 
-7.3999999598 1.5 -9.0846583589e-07 -7.349999959 1.4499999993 2.4069299798e-07 -7.349999959 1.5 -9.1993911155e-07 
-7.2999999583 1.4499999993 2.4376845431e-07 -7.2999999583 1.5 -9.3194671535e-07 -7.2499999575 1.4499999993 2.4700079848e-07 
-7.2499999575 1.5 -9.4414758678e-07 -7.1999999568 1.4499999993 2.5036456464e-07 -7.1999999568 1.5 -9.5671953204e-07 
-7.149999956 1.4499999993 2.5373378776e-07 -7.149999956 1.5 -9.6978351394e-07 -7.0999999553 1.4499999993 2.5545000426e-07 
-7.0999999553 1.5 -9.7652832665e-07 -7.0499999546 1.4499999993 2.590652457e-07 -7.0499999546 1.5 -9.8996974884e-07 
-6.9999999538 1.4499999993 2.6271550269e-07 -6.9999999538 1.5 -1.0040000689e-06 -6.9499999531 1.4499999993 2.6649036045e-07 
-6.9499999531 1.5 -1.0184082839e-06 -6.8999999523 1.4499999993 2.7040937312e-07 -6.8999999523 1.5 -1.0332144029e-06 
-6.8499999516 1.4499999993 2.7431883609e-07 -6.8499999516 1.5 -1.0484566246e-06 -6.7999999508 1.4499999993 2.7850433071e-07 
-6.7999999508 1.5 -1.064181788e-06 -6.7499999501 1.4499999993 2.8266322261e-07 -6.7499999501 1.5 -1.0804972135e-06 
-6.6999999493 1.4499999993 2.8713293432e-07 -6.6999999493 1.5 -1.0971373285e-06 -6.6499999486 1.4499999993 2.9163629733e-07 
-6.6499999486 1.5 -1.1144554719e-06 -6.5999999478 1.4499999993 2.963120096e-07 -6.5999999478 1.5 -1.1322567843e-06 
-6.5499999471 1.4499999993 3.0109231375e-07 -6.5499999471 1.5 -1.150602202e-06 -6.4999999464 1.4499999993 3.0604405765e-07 
-6.4999999464 1.5 -1.1695710782e-06 -6.4499999456 1.4499999993 3.1117883736e-07 -6.4499999456 1.5 -1.1891338545e-06 
-6.3999999449 1.4499999993 3.1640570342e-07 -6.3999999449 1.5 -1.2094787962e-06 -6.3499999441 1.4499999993 3.2189518606e-07 
-6.3499999441 1.5 -1.2303360108e-06 -6.2999999434 1.4499999993 3.2768116398e-07 -6.2999999434 1.5 -1.2519612937e-06 
-6.2499999426 1.4499999993 3.3352080209e-07 -6.2499999426 1.5 -1.2743773823e-06 -6.1999999419 1.4499999993 3.395011845e-07 
-6.1999999419 1.5 -1.2975363006e-06 -6.1499999411 1.4499999993 3.4581398722e-07 -6.1499999411 1.5 -1.3215562831e-06 
-6.0999999404 1.4499999993 3.5244829633e-07 -6.0999999404 1.5 -1.3463634332e-06 -6.0499999397 1.4499999993 3.5916445995e-07 
-6.0499999397 1.5 -1.3721678442e-06 -5.9999999389 1.4499999993 3.6616302168e-07 -5.9999999389 1.5 -1.3988230876e-06 
-5.9499999382 1.4499999993 3.7331506064e-07 -5.9499999382 1.5 -1.4266511243e-06 -5.8999999374 1.4499999993 3.8094026422e-07 
-5.8999999374 1.5 -1.4555703274e-06 -5.8499999367 1.4499999993 3.8879738895e-07 -5.8499999367 1.5 -1.4855197605e-06 
-5.7999999359 1.4499999993 3.9695783016e-07 -5.7999999359 1.5 -1.5167713627e-06 -5.7499999352 1.4499999993 4.0544705371e-07 
-5.7499999352 1.5 -1.5492923922e-06 -5.6999999344 1.4499999993 4.1434373088e-07 -5.6999999344 1.5 -1.5832333702e-06 
-5.6499999337 1.4499999993 4.2361261876e-07 -5.6499999337 1.5 -1.6186268113e-06 -5.5999999329 1.4499999993 4.3327096932e-07 
-5.5999999329 1.5 -1.655658707e-06 -5.5499999322 1.4499999993 4.3828845264e-07 -5.5499999322 1.5 -1.6747321752e-06 
-5.4999999315 1.4499999993 4.4863168114e-07 -5.4999999315 1.5 -1.7143245259e-06 -5.4499999307 1.4499999993 4.5945273541e-07 
-5.4499999307 1.5 -1.7557952106e-06 -5.39999993 1.4499999993 4.70918053e-07 -5.39999993 1.5 -1.7992979338e-06 
-5.3499999292 1.4499999993 4.8283311571e-07 -5.3499999292 1.5 -1.8450400603e-06 -5.2999999285 1.4499999993 4.9550601489e-07 
-5.2999999285 1.5 -1.8931992827e-06 -5.2499999277 1.4499999993 5.0878247748e-07 -5.2499999277 1.5 -1.9440235519e-06 
-5.199999927 1.4499999993 5.2280631735e-07 -5.199999927 1.5 -1.9976100702e-06 -5.1499999262 1.4499999993 5.3768872021e-07 
-5.1499999262 1.5 -2.0544603103e-06 -5.0999999255 1.4499999993 5.5346765748e-07 -5.0999999255 1.5 -2.1147361622e-06 
-5.0499999247 1.4499999993 5.7018382904e-07 -5.0499999247 1.5 -2.1788339382e-06 -4.999999924 1.4499999993 5.8817386162e-07 
-4.999999924 1.5 -2.2472454475e-06 -4.9499999233 1.4499999993 6.0730098994e-07 -4.9499999233 1.5 -2.3204017907e-06 
-4.8999999225 1.4499999993 6.2790968514e-07 -4.8999999225 1.5 -2.3989177862e-06 -4.8499999218 1.4499999993 6.5001313487e-07 
-4.8499999218 1.5 -2.483520575e-06 -4.799999921 1.4499999993 6.7393375502e-07 -4.799999921 1.5 -2.5749229735e-06 
-4.7499999203 1.4499999993 6.9998520758e-07 -4.7499999203 1.5 -2.6741761303e-06 -4.6999999195 1.4499999993 7.2834438924e-07 
-4.6999999195 1.5 -2.7824510198e-06 -4.6499999188 1.4499999993 7.5945786193e-07 -4.6499999188 1.5 -2.9012023788e-06 
-4.599999918 1.4499999993 7.9377173279e-07 -4.599999918 1.5 -3.0322037219e-06 -4.5499999173 1.4499999993 8.3186216671e-07 
-4.5499999173 1.5 -3.1776003198e-06 -4.4999999166 1.4499999993 8.7447739361e-07 -4.4999999166 1.5 -3.3401038309e-06 
-4.4499999158 1.4499999993 9.2251730166e-07 -4.4499999158 1.5 -3.523277428e-06 -4.3999999151 1.4499999993 9.7720680969e-07 
-4.3999999151 1.5 -3.7315742247e-06 -4.3499999143 1.4499999993 1.0399784287e-06 -4.3499999143 1.5 -3.9707138058e-06 
-4.2999999136 1.4499999993 1.1128730648e-06 -4.2999999136 1.5 -4.2483839024e-06 -4.2499999128 1.4499999993 1.1987552853e-06 
-4.2499999128 1.5 -4.5748902266e-06 -4.1999999121 1.4499999993 1.3011657529e-06 -4.1999999121 1.5 -4.9644031606e-06 
-4.1499999113 1.4499999993 1.4254733287e-06 -4.1499999113 1.5 -5.4365982578e-06 -4.0999999106 1.4499999993 1.5792709291e-06 
-4.0999999106 1.5 -6.0198744904e-06 -4.0499999098 1.4499999993 1.773699978e-06 -4.0499999098 1.5 -6.7561800279e-06 
-3.9999999091 1.4499999993 2.0261729787e-06 -3.9999999091 1.5 -7.7096901805e-06 -3.9499999084 1.4499999993 2.1821822429e-06 
[...]
CELL_DATA 9510
FIELD FieldData 4
Water_Depth_m 1 9510 float
0.740001 0.740002 0.740002 0.740003 0.740004 0.740004 0.740005 0.740006 0.740006 
0.740007 0.740008 0.740008 0.740009 0.74001 0.74001 0.740011 0.740012 0.740012 
0.740013 0.740014 0.740014 0.740015 0.740016 0.740016 0.740017 0.740018 0.740018 
0.740019 0.74002 0.74002 0.740021 0.740022 0.740022 0.740023 0.740024 0.740024 
0.740025 0.740026 0.740026 0.740027 0.740028 0.740028 0.740029 0.74003 0.74003 
0.740031 0.740032 0.740032 0.740033 0.740034 0.740034 0.740035 0.740036 0.740037 
0.740037 0.740038 0.740039 0.740039 0.74004 0.740041 0.740041 0.740042 0.740043 
0.740043 0.740044 0.740045 0.740045 0.740046 0.740047 0.740047 0.740048 0.740049 
0.740049 0.74005 0.740051 0.740052 0.740052 0.740053 0.740054 0.740054 0.740055 
0.740056 0.740056 0.740057 0.740058 0.740058 0.740059 0.74006 0.74006 0.740061 
0.740062 0.740062 0.740063 0.740064 0.740064 0.740065 0.740066 0.740066 0.740067 
0.740068 0.740068 0.740069 0.74007 0.74007 0.740071 0.740072 0.740072 0.740073 
0.740074 0.740074 0.740075 0.740076 0.740076 0.740077 0.740077 0.740078 0.740079 
0.740079 0.74008 0.74008 0.740081 0.740082 0.740083 0.740084 0.740085 0.740087 
0.740091 0.740098 0.740115 0.740176 0.740376 0.740258 0.7348 0.72147 0.702017 
0.678115 0.651059 0.621973 0.591903 0.561845 0.533324 0.507159 0.484354 0.466373 
0.455238 0.453342 0.453335 0.453331 0.453332 0.453336 0.453342 0.453348 0.453355 
0.453363 0.453371 0.45338 0.45339 0.453401 0.453412 0.453425 0.453438 0.453452 
0.453466 0.45348 0.453493 0.453504 0.453509 0.4535 0.457054 0.467593 0.468508 
0.464618 0.453019 0.432101 0.404063 0.352754 0.324796 0.293753 0.272612 0.269228 
0.28352 0.291236 0.306608 0.339993 0.350968 0.357778 0.37209 0.390842 0.410521 
0.434183 0.441988 0.462436 0.479368 0.48384 0.497851 0.506035 0.528344 0.564402 
0.688266 0.645503 0.609963 0.571664 0.532896 0.509212 0.509392 0.514375 0.514125 
0.504163 0.503865 0.503707 0.503656 0.503633 0.503621 0.503614 0.50361 0.503608 
0.503607 0.503607 0.503607 0.503608 0.503609 0.503611 0.503613 0.503614 0.503616 
0.503618 0.50362 0.503622 0.503624 0.503626 0.503628 0.503631 0.503633 0.503635 
0.503637 0.50364 0.503642 0.503644 0.503646 0.503649 0.503651 0.503653 0.503656 
0.503658 0.50366 0.503663 0.503665 0.503667 0.50367 0.503672 0.503674 0.503677 
0.503679 0.503681 0.503684 0.503686 0.503688 0.503691 0.503693 0.503696 0.503698 
0.5037 0.503703 0.503705 0.503707 0.50371 0.503712 0.503715 0.503717 0.503719 
0.503722 0.503724 0.503727 0.503729 0.503731 0.503734 0.503736 0.503739 0.503741 
0.503743 0.503746 0.503748 0.503751 0.503753 0.503756 0.503758 0.503761 0.503763 
0.503765 0.503768 0.50377 0.503773 0.503776 0.503778 0.497847 0.74 0.740001 
0.740002 0.740002 0.740003 0.740004 0.740004 0.740005 0.740006 0.740006 0.740007 
0.740008 0.740008 0.740009 0.74001 0.74001 0.740011 0.740012 0.740012 0.740013 
0.740014 0.740014 0.740015 0.740016 0.740016 0.740017 0.740018 0.740018 0.740019 
0.74002 0.74002 0.740021 0.740022 0.740022 0.740023 0.740024 0.740024 0.740025 
0.740026 0.740026 0.740027 0.740028 0.740028 0.740029 0.74003 0.74003 0.740031 
0.740032 0.740032 0.740033 0.740034 0.740034 0.740035 0.740036 0.740036 0.740037 
0.740038 0.740038 0.740039 0.74004 0.74004 0.740041 0.740042 0.740042 0.740043 
0.740044 0.740044 0.740045 0.740046 0.740046 0.740047 0.740048 0.740048 0.740049 
0.74005 0.74005 0.740051 0.740052 0.740052 0.740053 0.740054 0.740054 0.740055 
0.740056 0.740056 0.740057 0.740058 0.740058 0.740059 0.740059 0.74006 0.740061 
0.740061 0.740062 0.740063 0.740063 0.740064 0.740065 0.740065 0.740066 0.740066 
0.740067 0.740068 0.740068 0.740069 0.740069 0.74007 0.74007 0.740071 0.740071 
0.740072 0.740072 0.740073 0.740073 0.740074 0.740074 0.740074 0.740075 0.740075 
0.740075 0.740075 0.740075 0.740075 0.740074 0.740074 0.740073 0.740072 0.740071 
0.74007 0.74007 0.7401 0.740049 0.735162 0.72253 0.703541 0.67975 0.65253 
0.623099 0.592575 0.561985 0.532658 0.505699 0.482519 0.464844 0.4549 0.453356 
0.453342 0.453333 0.453332 0.453333 0.453337 0.453342 0.453348 0.453355 0.453362 
0.45337 0.453379 0.453389 0.4534 0.453412 0.453424 0.453438 0.453452 0.453467 
0.453482 0.453496 0.453508 0.453514 0.457251 0.467058 0.467843 0.465403 0.443104 
0.417704 0.392598 0.347317 0.318679 0.285838 0.262243 0.274296 0.294282 0.298458 
0.312488 0.338613 0.356126 0.368392 0.397468 0.413224 0.431201 0.448666 0.471248 
0.494469 0.500764 0.513636 0.534096 0.536862 0.538696 0.570687 0.677949 0.635535 
0.59419 0.56079 0.534091 0.51245 0.516938 0.519278 0.518065 0.504742 0.503593 
0.503589 0.503585 0.503584 0.503584 0.503584 0.503585 0.503587 0.503588 0.50359 
0.503592 0.503595 0.503597 0.503599 0.503602 0.503604 0.503607 0.503609 0.503612 
0.503614 0.503617 0.503619 0.503622 0.503624 0.503627 0.503629 0.503632 0.503634 
0.503637 0.503639 0.503642 0.503644 0.503646 0.503649 0.503651 0.503654 0.503656 
0.503659 0.503661 0.503664 0.503666 0.503669 0.503671 0.503673 0.503676 0.503678 
0.503681 0.503683 0.503686 0.503688 0.503691 0.503693 0.503695 0.503698 0.5037 
0.503703 0.503705 0.503708 0.50371 0.503712 0.503715 0.503717 0.50372 0.503722 
0.503725 0.503727 0.50373 0.503732 0.503734 0.503737 0.503739 0.503742 0.503744 
0.503747 0.503749 0.503751 0.503754 0.503756 0.503759 0.503761 0.503764 0.503766 
0.503768 0.503771 0.503773 0.503776 0.497842 0.74 0.740001 0.740002 0.740002 
0.740003 0.740004 0.740004 0.740005 0.740006 0.740006 0.740007 0.740008 0.740008 
0.740009 0.74001 0.74001 0.740011 0.740012 0.740012 0.740013 0.740014 0.740014 
0.740015 0.740016 0.740016 0.740017 0.740018 0.740018 0.740019 0.74002 0.74002 
0.740021 0.740022 0.740022 0.740023 0.740024 0.740024 0.740025 0.740026 0.740026 
0.740027 0.740028 0.740028 0.740029 0.74003 0.74003 0.740031 0.740032 0.740032 
0.740033 0.740034 0.740034 0.740035 0.740036 0.740036 0.740037 0.740038 0.740038 
0.740039 0.74004 0.74004 0.740041 0.740042 0.740042 0.740043 0.740044 0.740044 
0.740045 0.740046 0.740046 0.740047 0.740048 0.740048 0.740049 0.74005 0.74005 
0.740051 0.740052 0.740052 0.740053 0.740054 0.740054 0.740055 0.740056 0.740056 
0.740057 0.740058 0.740058 0.740059 0.74006 0.74006 0.740061 0.740061 0.740062 
0.740063 0.740063 0.740064 0.740065 0.740065 0.740066 0.740067 0.740067 0.740068 
0.740068 0.740069 0.74007 0.74007 0.740071 0.740071 0.740072 0.740072 0.740073 
0.740073 0.740074 0.740074 0.740074 0.740075 0.740075 0.740075 0.740075 0.740075 
0.740075 0.740075 0.740075 0.740075 0.740074 0.740074 0.740073 0.740073 0.740077 
0.740156 0.740052 0.73531 0.723021 0.704359 0.680728 0.653472 0.623844 0.593011 
0.562069 0.532311 0.504992 0.48174 0.464374 0.454823 0.453325 0.453325 0.453326 
0.453328 0.453331 0.453335 0.453341 0.453347 0.453353 0.453361 0.453369 0.453378 
0.453388 0.453399 0.453411 0.453423 0.453437 0.453452 0.453468 0.453485 0.453503 
0.453521 0.453589 0.454995 0.458477 0.460177 0.462211 0.441563 0.403097 0.386315 
0.342601 0.314871 0.280304 0.262932 0.275252 0.293237 0.301368 0.317741 0.33703 
0.356087 0.372207 0.399213 0.414247 0.435001 0.459897 0.481148 0.497908 0.511177 
0.526501 0.541729 0.554826 0.564248 0.590678 0.685873 0.638685 0.605453 0.571781 
0.535376 0.514643 0.521767 0.523649 0.521392 0.504409 0.503595 0.503592 0.503586 
0.503584 0.503584 0.503584 0.503586 0.503587 0.503589 0.503591 0.503593 0.503595 
0.503597 0.5036 0.503602 0.503605 0.503607 0.50361 0.503612 0.503614 0.503617 
0.503619 0.503622 0.503624 0.503627 0.503629 0.503632 0.503634 0.503637 0.503639 
0.503642 0.503644 0.503647 0.503649 0.503652 0.503654 0.503656 0.503659 0.503661 
0.503664 0.503666 0.503669 0.503671 0.503674 0.503676 0.503678 0.503681 0.503683 
0.503686 0.503688 0.503691 0.503693 0.503695 0.503698 0.5037 0.503703 0.503705 
0.503708 0.50371 0.503712 0.503715 0.503717 0.50372 0.503722 0.503725 0.503727 
0.50373 0.503732 0.503734 0.503737 0.503739 0.503742 0.503744 0.503747 0.503749 
0.503751 0.503754 0.503756 0.503759 0.503761 0.503764 0.503766 0.503769 0.503771 
0.503773 0.503776 0.497842 0.74 0.740001 0.740002 0.740002 0.740003 0.740004 
0.740004 0.740005 0.740006 0.740006 0.740007 0.740008 0.740008 0.740009 0.74001 
0.74001 0.740011 0.740012 0.740012 0.740013 0.740014 0.740014 0.740015 0.740016 
0.740016 0.740017 0.740018 0.740018 0.740019 0.74002 0.74002 0.740021 0.740022 
0.740022 0.740023 0.740024 0.740024 0.740025 0.740026 0.740026 0.740027 0.740028 
0.740028 0.740029 0.74003 0.74003 0.740031 0.740032 0.740032 0.740033 0.740034 
0.740034 0.740035 0.740036 0.740036 0.740037 0.740038 0.740038 0.740039 0.74004 
0.74004 0.740041 0.740042 0.740042 0.740043 0.740044 0.740044 0.740045 0.740046 
0.740046 0.740047 0.740048 0.740048 0.740049 0.74005 0.74005 0.740051 0.740052 
0.740052 0.740053 0.740054 0.740054 0.740055 0.740056 0.740056 0.740057 0.740057 
0.740058 0.740059 0.740059 0.74006 0.740061 0.740061 0.740062 0.740063 0.740063 
0.740064 0.740065 0.740065 0.740066 0.740066 0.740067 0.740068 0.740068 0.740069 
0.740069 0.74007 0.74007 0.740071 0.740072 0.740072 0.740072 0.740073 0.740073 
0.740074 0.740074 0.740075 0.740075 0.740075 0.740075 0.740075 0.740075 0.740075 
0.740075 0.740075 0.740074 0.740073 0.740072 0.740071 0.74007 0.740143 0.740052 
0.735373 0.72325 0.704781 0.681272 0.654023 0.624288 0.593265 0.562114 0.532126 
0.504673 0.481442 0.464225 0.454814 0.453321 0.453321 0.453322 0.453325 0.453328 
0.453333 0.453338 0.453344 0.45335 0.453358 0.453366 0.453375 0.453385 0.453395 
0.453407 0.45342 0.453434 0.453449 0.453467 0.453486 0.453509 0.453536 0.453716 
0.453808 0.450857 0.446293 0.448385 0.436575 0.402011 0.372905 0.342827 0.314571 
0.279773 0.26083 0.272411 0.284803 0.30026 0.3165 0.334607 0.352945 0.370976 
0.393013 0.40613 0.430712 0.454803 0.476161 0.488328 0.508873 0.525104 0.540088 
0.551501 0.564456 0.600621 0.689735 0.63901 0.605146 0.571589 0.535351 0.518517 
0.525129 0.526306 0.52265 0.504687 0.503576 0.503577 0.503577 0.503578 0.503579 
0.503581 0.503583 0.503585 0.503587 0.503589 0.503592 0.503594 0.503596 0.503599 
0.503601 0.503604 0.503606 0.503609 0.503611 0.503614 0.503617 0.503619 0.503622 
0.503624 0.503627 0.503629 0.503632 0.503634 0.503636 0.503639 0.503641 0.503644 
0.503646 0.503649 0.503651 0.503654 0.503656 0.503659 0.503661 0.503664 0.503666 
0.503668 0.503671 0.503673 0.503676 0.503678 0.503681 0.503683 0.503686 0.503688 
0.50369 0.503693 0.503695 0.503698 0.5037 0.503703 0.503705 0.503707 0.50371 
0.503712 0.503715 0.503717 0.50372 0.503722 0.503725 0.503727 0.503729 0.503732 
0.503734 0.503737 0.503739 0.503742 0.503744 0.503746 0.503749 0.503751 0.503754 
0.503756 0.503759 0.503761 0.503763 0.503766 0.503768 0.503771 0.503773 0.503776 
0.497842 0.74 0.740001 0.740002 0.740002 0.740003 0.740004 0.740004 0.740005 
0.740006 0.740006 0.740007 0.740008 0.740008 0.740009 0.74001 0.74001 0.740011 
0.740012 0.740012 0.740013 0.740014 0.740014 0.740015 0.740016 0.740016 0.740017 
0.740018 0.740018 0.740019 0.74002 0.74002 0.740021 0.740022 0.740022 0.740023 
0.740024 0.740024 0.740025 0.740026 0.740026 0.740027 0.740028 0.740028 0.740029 
0.74003 0.74003 0.740031 0.740032 0.740032 0.740033 0.740034 0.740034 0.740035 
0.740036 0.740036 0.740037 0.740038 0.740038 0.740039 0.74004 0.74004 0.740041 
0.740042 0.740042 0.740043 0.740044 0.740044 0.740045 0.740046 0.740046 0.740047 
0.740048 0.740048 0.740049 0.74005 0.74005 0.740051 0.740052 0.740052 0.740053 
0.740054 0.740054 0.740055 0.740056 0.740056 0.740057 0.740058 0.740058 0.740059 
0.740059 0.74006 0.740061 0.740061 0.740062 0.740063 0.740063 0.740064 0.740065 
0.740065 0.740066 0.740066 0.740067 0.740068 0.740068 0.740069 0.740069 0.74007 
0.740071 0.740071 0.740072 0.740072 0.740073 0.740073 0.740074 0.740074 0.740074 
0.740075 0.740075 0.740075 0.740076 0.740076 0.740076 0.740076 0.740076 0.740076 
0.740075 0.740075 0.740074 0.740073 0.740074 0.740148 0.740056 0.735402 0.723354 
0.704986 0.681553 0.654318 0.624527 0.593399 0.562135 0.53203 0.504531 0.481329 
0.464177 0.454805 0.453313 0.453315 0.453317 0.453321 0.453325 0.453329 0.453335 
0.453341 0.453347 0.453354 0.453362 0.453371 0.453381 0.453391 0.453403 0.453415 
0.453429 0.453445 0.453464 0.453485 0.453512 0.453547 0.453901 0.454093 0.448038 
0.440604 0.442583 0.432145 0.394841 0.362858 0.33773 0.308433 0.273613 0.260185 
0.28783 0.28743 0.296665 0.313539 0.325664 0.343837 0.364198 0.378979 0.394638 
0.410529 0.428439 0.449804 0.462752 0.490924 0.507393 0.521642 0.53168 0.556404 
0.600277 0.684326 0.633002 0.597224 0.56476 0.53457 0.522205 0.528076 0.528748 
0.524305 0.504585 0.503571 0.503573 0.503574 0.503576 0.503577 0.50358 0.503582 
0.503584 0.503586 0.503589 0.503591 0.503594 0.503596 0.503599 0.503601 0.503604 
0.503606 0.503609 0.503612 0.503614 0.503617 0.503619 0.503622 0.503624 0.503627 
0.503629 0.503632 0.503634 0.503637 0.503639 0.503641 0.503644 0.503646 0.503649 
0.503651 0.503654 0.503656 0.503659 0.503661 0.503664 0.503666 0.503669 0.503671 
0.503673 0.503676 0.503678 0.503681 0.503683 0.503686 0.503688 0.50369 0.503693 
0.503695 0.503698 0.5037 0.503703 0.503705 0.503707 0.50371 0.503712 0.503715 
0.503717 0.50372 0.503722 0.503725 0.503727 0.503729 0.503732 0.503734 0.503737 
0.503739 0.503742 0.503744 0.503746 0.503749 0.503751 0.503754 0.503756 0.503759 
0.503761 0.503763 0.503766 0.503768 0.503771 0.503773 0.503776 0.497842 0.74 
0.740001 0.740002 0.740002 0.740003 0.740004 0.740004 0.740005 0.740006 0.740006 
0.740007 0.740008 0.740008 0.740009 0.74001 0.74001 0.740011 0.740012 0.740012 
0.740013 0.740014 0.740014 0.740015 0.740016 0.740016 0.740017 0.740018 0.740018 
0.740019 0.74002 0.74002 0.740021 0.740022 0.740022 0.740023 0.740024 0.740024 
0.740025 0.740026 0.740026 0.740027 0.740028 0.740028 0.740029 0.74003 0.74003 
0.740031 0.740032 0.740032 0.740033 0.740034 0.740034 0.740035 0.740036 0.740036 
0.740037 0.740038 0.740038 0.740039 0.74004 0.74004 0.740041 0.740042 0.740042 
0.740043 0.740044 0.740044 0.740045 0.740046 0.740046 0.740047 0.740048 0.740048 
0.740049 0.74005 0.74005 0.740051 0.740052 0.740052 0.740053 0.740054 0.740054 
0.740055 0.740056 0.740056 0.740057 0.740058 0.740058 0.740059 0.740059 0.74006 
0.740061 0.740061 0.740062 0.740063 0.740063 0.740064 0.740065 0.740065 0.740066 
0.740066 0.740067 0.740068 0.740068 0.740069 0.740069 0.74007 0.740071 0.740071 
0.740072 0.740072 0.740073 0.740073 0.740074 0.740074 0.740075 0.740075 0.740075 
0.740076 0.740076 0.740076 0.740076 0.740077 0.740077 0.740077 0.740077 0.740076 
0.740076 0.740075 0.740076 0.740151 0.74006 0.735415 0.723397 0.705076 0.681682 
0.654458 0.624642 0.593462 0.562142 0.531979 0.504464 0.481281 0.464156 0.454797 
0.453306 0.453309 0.453312 0.453316 0.45332 0.453325 0.453331 0.453337 0.453343 
0.45335 0.453358 0.453367 0.453376 0.453386 0.453397 0.453409 0.453423 0.453439 
0.453457 0.453479 0.453506 0.453545 0.453999 0.454246 0.444723 0.419793 0.42308 
0.419287 0.402559 0.368144 0.336499 0.30451 0.274126 0.263458 0.284049 0.284238 
0.295022 0.3147 0.323967 0.339496 0.353803 0.37003 0.403359 0.405897 0.420484 
0.43278 0.452748 0.464835 0.487575 0.503621 0.543212 0.560996 0.595425 0.670306 
0.634252 0.604408 0.570784 0.539706 0.525169 0.530793 0.531163 0.526024 0.504715 
0.503565 0.503568 0.50357 0.503573 0.503575 0.503578 0.50358 0.503583 0.503586 
0.503588 0.503591 0.503593 0.503596 0.503599 0.503601 0.503604 0.503606 0.503609 
0.503611 0.503614 0.503616 0.503619 0.503622 0.503624 0.503627 0.503629 0.503632 
0.503634 0.503636 0.503639 0.503641 0.503644 0.503646 0.503649 0.503651 0.503654 
0.503656 0.503659 0.503661 0.503664 0.503666 0.503668 0.503671 0.503673 0.503676 
0.503678 0.503681 0.503683 0.503686 0.503688 0.50369 0.503693 0.503695 0.503698 
0.5037 0.503703 0.503705 0.503707 0.50371 0.503712 0.503715 0.503717 0.50372 
0.503722 0.503725 0.503727 0.503729 0.503732 0.503734 0.503737 0.503739 0.503742 
0.503744 0.503746 0.503749 0.503751 0.503754 0.503756 0.503759 0.503761 0.503763 
0.503766 0.503768 0.503771 0.503773 0.503776 0.497842 0.74 0.740001 0.740002 
0.740002 0.740003 0.740004 0.740004 0.740005 0.740006 0.740006 0.740007 0.740008 
0.740008 0.740009 0.74001 0.74001 0.740011 0.740012 0.740012 0.740013 0.740014 
0.740014 0.740015 0.740016 0.740016 0.740017 0.740018 0.740018 0.740019 0.74002 
0.74002 0.740021 0.740022 0.740022 0.740023 0.740024 0.740024 0.740025 0.740026 
0.740026 0.740027 0.740028 0.740028 0.740029 0.74003 0.74003 0.740031 0.740032 
0.740032 0.740033 0.740034 0.740034 0.740035 0.740036 0.740036 0.740037 0.740038 
0.740038 0.740039 0.74004 0.74004 0.740041 0.740042 0.740042 0.740043 0.740044 
0.740044 0.740045 0.740046 0.740046 0.740047 0.740048 0.740048 0.740049 0.74005 
0.74005 0.740051 0.740052 0.740052 0.740053 0.740054 0.740054 0.740055 0.740056 
0.740056 0.740057 0.740058 0.740058 0.740059 0.740059 0.74006 0.740061 0.740061 
0.740062 0.740063 0.740063 0.740064 0.740065 0.740065 0.740066 0.740066 0.740067 
0.740068 0.740068 0.740069 0.74007 0.74007 0.740071 0.740071 0.740072 0.740072 
0.740073 0.740073 0.740074 0.740074 0.740075 0.740075 0.740076 0.740076 0.740077 
0.740077 0.740077 0.740077 0.740078 0.740078 0.740078 0.740078 0.740078 0.740078 
0.740079 0.740155 0.740065 0.73542 0.723409 0.705106 0.68173 0.654513 0.624687 
0.593484 0.562141 0.531951 0.504428 0.481256 0.464142 0.454787 0.453298 0.453302 
0.453306 0.45331 0.453315 0.45332 0.453326 0.453332 0.453339 0.453346 0.453353 
0.453362 0.45337 0.45338 0.453391 0.453402 0.453415 0.453429 0.453446 0.453466 
0.45349 0.453525 0.453885 0.454088 0.449201 0.442071 0.442072 0.438524 0.411825 
0.366393 0.341905 0.332276 0.284618 0.270292 0.284199 0.29114 0.305509 0.318312 
0.325301 0.335586 0.346753 0.353557 0.398104 0.39933 0.403154 0.410735 0.424561 
0.452624 0.481034 0.502703 0.541647 0.561451 0.593279 0.684489 0.64319 0.611854 
0.578143 0.542404 0.527678 0.533618 0.533705 0.527763 0.504787 0.503559 0.503563 
0.503566 0.50357 0.503573 0.503576 0.503579 0.503582 0.503585 0.503588 0.50359 
0.503593 0.503596 0.503599 0.503601 0.503604 0.503606 0.503609 0.503611 0.503614 
0.503617 0.503619 0.503622 0.503624 0.503627 0.503629 0.503632 0.503634 0.503637 
0.503639 0.503641 0.503644 0.503646 0.503649 0.503651 0.503654 0.503656 0.503659 
0.503661 0.503664 0.503666 0.503668 0.503671 0.503673 0.503676 0.503678 0.503681 
0.503683 0.503686 0.503688 0.50369 0.503693 0.503695 0.503698 0.5037 0.503703 
0.503705 0.503707 0.50371 0.503712 0.503715 0.503717 0.50372 0.503722 0.503725 
0.503727 0.503729 0.503732 0.503734 0.503737 0.503739 0.503742 0.503744 0.503746 
0.503749 0.503751 0.503754 0.503756 0.503759 0.503761 0.503763 0.503766 0.503768 
0.503771 0.503773 0.503776 0.497842 0.74 0.740001 0.740002 0.740002 0.740003 
0.740004 0.740004 0.740005 0.740006 0.740006 0.740007 0.740008 0.740008 0.740009 
0.74001 0.74001 0.740011 0.740012 0.740012 0.740013 0.740014 0.740014 0.740015 
0.740016 0.740016 0.740017 0.740018 0.740018 0.740019 0.74002 0.74002 0.740021 
0.740022 0.740022 0.740023 0.740024 0.740024 0.740025 0.740026 0.740026 0.740027 
0.740028 0.740028 0.740029 0.74003 0.74003 0.740031 0.740032 0.740032 0.740033 
0.740034 0.740034 0.740035 0.740036 0.740036 0.740037 0.740038 0.740038 0.740039 
0.74004 0.74004 0.740041 0.740042 0.740042 0.740043 0.740044 0.740044 0.740045 
0.740046 0.740046 0.740047 0.740048 0.740048 0.740049 0.74005 0.74005 0.740051 
0.740052 0.740052 0.740053 0.740054 0.740054 0.740055 0.740056 0.740056 0.740057 
0.740058 0.740058 0.740059 0.740059 0.74006 0.740061 0.740061 0.740062 0.740063 
0.740063 0.740064 0.740065 0.740065 0.740066 0.740067 0.740067 0.740068 0.740068 
0.740069 0.74007 0.74007 0.740071 0.740071 0.740072 0.740072 0.740073 0.740074 
0.740074 0.740075 0.740075 0.740076 0.740076 0.740077 0.740077 0.740077 0.740078 
0.740078 0.740079 0.740079 0.74008 0.74008 0.74008 0.740081 0.740083 0.74016 
0.74007 0.735424 0.723414 0.70511 0.681739 0.654525 0.624696 0.593488 0.562137 
0.531934 0.504407 0.481239 0.46413 0.454778 0.45329 0.453295 0.453299 0.453304 