# vtk DataFile Version 5.1
vtk output
ASCII
DATASET UNSTRUCTURED_GRID
POINTS 9610 double
0.1016 1.5 0.07553717494 0.1016 1.45 0.072586730123 0.1016 1.4 0.075662434101 
0.1016 1.35 0.07241269201 0.1016 1.3 0.073299214244 0.1016 1.25 0.083241671324 
0.1016 1.2 0.08569123596 0.1016 1.15 0.077467411757 0.1016 1.1 0.068724192679 
0.1016 1.05 0.058219458908 0.1016 1 0.047355044633 0.1016 0.95 0.05262138322 
0.1016 0.9 0.054255034775 0.1016 0.85 0.049980182201 0.1016 0.8 0.054412789643 
0.1016 0.75 0.072089999914 0.1016 0.7 0.091008931398 0.1016 0.65 0.09657767415 
0.1016 0.6 0.089469343424 0.1016 0.55 0.089980430901 0.1016 0.5 0.096735879779 
0.1016 0.45 0.10385231674 0.1016 0.4 0.094612747431 0.1016 0.35 0.082164645195 
0.1016 0.3 0.08035415411 0.1016 0.25 0.089107640088 0.1016 0.2 0.091087311506 
0.1016 0.15 0.081848211586 0.1016 0.1 0.075282156467 0.1016 0.05 0.069869413972 
0.1016 0 0.067057110369 5.08 1.5 0.28700000048 5.08 1.45 0.28700000048 
5.08 1.4 0.28700000048 5.08 1.35 0.28700000048 5.08 1.3 0.28700000048 
5.08 1.25 0.28700000048 5.08 1.2 0.28700000048 5.08 1.15 0.28700000048 
5.08 1.1 0.28700000048 5.08 1.05 0.28700000048 5.08 1 0.28700000048 
5.08 0.95 0.28700000048 5.08 0.9 0.28700000048 5.08 0.85 0.28700000048 
5.08 0.8 0.28700000048 5.08 0.75 0.28700000048 5.08 0.7 0.28700000048 
5.08 0.65 0.28700000048 5.08 0.6 0.28700000048 5.08 0.55 0.28700000048 
5.08 0.5 0.28700000048 5.08 0.45 0.28700000048 5.08 0.4 0.28700000048 
5.08 0.35 0.28700000048 5.08 0.3 0.28700000048 5.08 0.25 0.28700000048 
5.08 0.2 0.28700000048 5.08 0.15 0.28700000048 5.08 0.1 0.28700000048 
5.08 0.05 0.28700000048 5.08 0 0.28700000048 0.151384 1.5 0.090614773333 
0.151384 1.45 0.090539246798 0.151384 1.4 0.10428993404 0.151384 1.35 0.091513998806 
0.151384 1.3 0.087625131011 0.151384 1.25 0.10741644353 0.151384 1.2 0.10945007205 
0.151384 1.15 0.094590209424 0.151384 1.1 0.08657322824 0.151384 1.05 0.080418519676 
0.151384 1 0.054744616151 0.151384 0.95 0.070542007685 0.151384 0.9 0.073492459953 
0.151384 0.85 0.065512552857 0.151384 0.8 0.066590674222 0.151384 0.75 0.086605943739 
0.151384 0.7 0.11054953188 0.151384 0.65 0.1184823364 0.151384 0.6 0.097780004144 
0.151384 0.55 0.10460165888 0.151384 0.5 0.11066024005 0.151384 0.45 0.13039319217 
0.151384 0.4 0.11354082078 0.151384 0.35 0.096594825387 0.151384 0.3 0.090717747808 
0.151384 0.25 0.10659813136 0.151384 0.2 0.11055461317 0.151384 0.15 0.088837958872 
0.151384 0.1 0.090591408312 0.151384 0.05 0.086541190743 0.151384 0 0.080604672432 
0.201168 1.5 0.11777001619 0.201168 1.45 0.12939123809 0.201168 1.4 0.14341463149 
0.201168 1.35 0.12747333944 0.201168 1.3 0.12244204432 0.201168 1.25 0.14342571795 
0.201168 1.2 0.13782611489 0.201168 1.15 0.12563630939 0.201168 1.1 0.11473683268 
0.201168 1.05 0.11732920259 0.201168 1 0.10000197589 0.201168 0.95 0.091014869511 
0.201168 0.9 0.10942294449 0.201168 0.85 0.11205178499 0.201168 0.8 0.11109313369 
0.201168 0.75 0.11571389437 0.201168 0.7 0.13586455584 0.201168 0.65 0.14760138094 
0.201168 0.6 0.12570586801 0.201168 0.55 0.13646830618 0.201168 0.5 0.14355620742 
0.201168 0.45 0.15392751992 0.201168 0.4 0.14757317305 0.201168 0.35 0.13431586325 
0.201168 0.3 0.11874909699 0.201168 0.25 0.12991766632 0.201168 0.2 0.13107007742 
0.201168 0.15 0.12015999854 0.201168 0.1 0.12344000489 0.201168 0.05 0.11064000428 
0.201168 0 0.12508000433 0.250952 1.5 0.15376405418 0.250952 1.45 0.16291598976 
0.250952 1.4 0.16549560428 0.250952 1.35 0.16194143891 0.250952 1.3 0.16829551756 
0.250952 1.25 0.17509652674 0.250952 1.2 0.16629597545 0.250952 1.15 0.15710483491 
0.250952 1.1 0.15832109749 0.250952 1.05 0.15463031828 0.250952 1 0.13882249594 
0.250952 0.95 0.13247841597 0.250952 0.9 0.14482088387 0.250952 0.85 0.13861592114 
0.250952 0.8 0.14133302867 0.250952 0.75 0.148092255 0.250952 0.7 0.17184633017 
0.250952 0.65 0.18749898672 0.250952 0.6 0.17037445307 0.250952 0.55 0.17554911971 
0.250952 0.5 0.18078650534 0.250952 0.45 0.18977843225 0.250952 0.4 0.17453044653 
0.250952 0.35 0.16892449558 0.250952 0.3 0.15387426317 0.250952 0.25 0.16555188596 
0.250952 0.2 0.16206766665 0.250952 0.15 0.1557200104 0.250952 0.1 0.1606400013 
0.250952 0.05 0.14460000396 0.250952 0 0.16728000343 0.300736 1.5 0.18724030256 
0.300736 1.45 0.20370472968 0.300736 1.4 0.22031629086 0.300736 1.35 0.19358682632 
0.300736 1.3 0.20051541924 0.300736 1.25 0.20549027622 0.300736 1.2 0.19645866752 
0.300736 1.15 0.18840691447 0.300736 1.1 0.18611766398 0.300736 1.05 0.20321129262 
0.300736 1 0.16406552494 0.300736 0.95 0.16627067327 0.300736 0.9 0.17730879784 
0.300736 0.85 0.17571769655 0.300736 0.8 0.17230536044 0.300736 0.75 0.17951102555 
0.300736 0.7 0.19351065159 0.300736 0.65 0.21399375796 0.300736 0.6 0.20090480149 
0.300736 0.55 0.21114248037 0.300736 0.5 0.21706022322 0.300736 0.45 0.21125163138 
0.300736 0.4 0.20263709128 0.300736 0.35 0.19942955673 0.300736 0.3 0.1920542717 
0.300736 0.25 0.2021445781 0.300736 0.2 0.1996023953 0.300736 0.15 0.16139999032 
0.300736 0.1 0.19028000534 0.300736 0.05 0.17623999715 0.300736 0 0.22164000571 
0.35052 1.5 0.22863642871 0.35052 1.45 0.23421537876 0.35052 1.4 0.23869735003 
0.35052 1.35 0.22763724625 0.35052 1.3 0.23437358439 0.35052 1.25 0.23680537939 
0.35052 1.2 0.23051658273 0.35052 1.15 0.22239938378 0.35052 1.1 0.22033679485 
0.35052 1.05 0.20613434911 0.35052 1 0.21358257532 0.35052 0.95 0.20753590763 
0.35052 0.9 0.20705078542 0.35052 0.85 0.21589924395 0.35052 0.8 0.2091076225 
0.35052 0.75 0.20697136223 0.35052 0.7 0.22184735537 0.35052 0.65 0.237454772 
0.35052 0.6 0.23198954761 0.35052 0.55 0.24127683043 0.35052 0.5 0.25274798274 
0.35052 0.45 0.24195557833 0.35052 0.4 0.23832948506 0.35052 0.35 0.22985157371 
0.35052 0.3 0.22743009031 0.35052 0.25 0.22639991343 0.35052 0.2 0.22194777429 
0.35052 0.15 0.23019999266 0.35052 0.1 0.22540000081 0.35052 0.05 0.21899999678 
0.35052 0 0.24699999392 0.400304 1.5 0.26592051983 0.400304 1.45 0.26706492901 
0.400304 1.4 0.26453712583 0.400304 1.35 0.26389077306 0.400304 1.3 0.26394101977 
0.400304 1.25 0.26242849231 0.400304 1.2 0.25733023882 0.400304 1.15 0.25559693575 
0.400304 1.1 0.25228962302 0.400304 1.05 0.2324526459 0.400304 1 0.2511395216 
0.400304 0.95 0.24434675276 0.400304 0.9 0.23334616423 0.400304 0.85 0.24857497215 
0.400304 0.8 0.24607524276 0.400304 0.75 0.24556060135 0.400304 0.7 0.2518030107 
0.400304 0.65 0.25358602405 0.400304 0.6 0.25407192111 0.400304 0.55 0.25518795848 
0.400304 0.5 0.25752818584 0.400304 0.45 0.25806760788 0.400304 0.4 0.25932464004 
0.400304 0.35 0.25990742445 0.400304 0.3 0.2613530755 0.400304 0.25 0.26162454486 
0.400304 0.2 0.25546893477 0.400304 0.15 0.26715999842 0.400304 0.1 0.25872001052 
0.400304 0.05 0.26227998734 0.400304 0 0.26355999708 0.450088 1.5 0.28612622619 
0.450088 1.45 0.28484910727 0.450088 1.4 0.28075128794 0.450088 1.35 0.27819865942 
0.450088 1.3 0.27499672771 0.450088 1.25 0.2712584734 0.450088 1.2 0.26769369841 
0.450088 1.15 0.2664282918 0.450088 1.1 0.26186415553 0.450088 1.05 0.25313535333 
0.450088 1 0.25865450501 0.450088 0.95 0.25493007898 0.450088 0.9 0.24891191721 
0.450088 0.85 0.25599470735 0.450088 0.8 0.25854167342 0.450088 0.75 0.25905948877 
0.450088 0.7 0.25931295753 0.450088 0.65 0.25713437796 0.450088 0.6 0.25578075647 
0.450088 0.55 0.2537766397 0.450088 0.5 0.25315022469 0.450088 0.45 0.25639021397 
0.450088 0.4 0.26148712635 0.450088 0.35 0.26712396741 0.450088 0.3 0.27195706964 
0.450088 0.25 0.27371785045 0.450088 0.2 0.2730948925 0.450088 0.15 0.27913853526 
0.450088 0.1 0.27514895797 0.450088 0.05 0.27415531874 0.450088 0 0.27383312583 
0.499872 1.5 0.29312691092 0.499872 1.45 0.28690880537 0.499872 1.4 0.28001990914 
0.499872 1.35 0.27505648136 0.499872 1.3 0.27107337117 0.499872 1.25 0.26741027832 
0.499872 1.2 0.26432609558 0.499872 1.15 0.26172086596 0.499872 1.1 0.25753954053 
0.499872 1.05 0.25316652656 0.499872 1 0.25230500102 0.499872 0.95 0.25012046099 
0.499872 0.9 0.24785016477 0.499872 0.85 0.24975381792 0.499872 0.8 0.25204750896 
0.499872 0.75 0.25268420577 0.499872 0.7 0.25191059709 0.499872 0.65 0.25041997433 
0.499872 0.6 0.24901908636 0.499872 0.55 0.24742048979 0.499872 0.5 0.24678272009 
0.499872 0.45 0.24896767735 0.499872 0.4 0.25348797441 0.499872 0.35 0.25895187259 
0.499872 0.3 0.26410961151 0.499872 0.25 0.26733443141 0.499872 0.2 0.26953750849 
0.499872 0.15 0.27266132832 0.499872 0.1 0.27402433753 0.499872 0.05 0.27542313933 
0.499872 0 0.27720424533 0.549656 1.5 0.29478025436 0.549656 1.45 0.28194713593 
0.549656 1.4 0.27354833484 0.549656 1.35 0.26854613423 0.549656 1.3 0.26540139318 
0.549656 1.25 0.26271036267 0.549656 1.2 0.26012045145 0.549656 1.15 0.25750741363 
0.549656 1.1 0.25404635072 0.549656 1.05 0.25025397539 0.549656 1 0.24849590659 
0.549656 0.95 0.24716900289 0.549656 0.9 0.24565604329 0.549656 0.85 0.24559685588 
0.549656 0.8 0.24699191749 0.549656 0.75 0.24764293432 0.549656 0.7 0.2468572706 
0.549656 0.65 0.24708242714 0.549656 0.6 0.24750550091 0.549656 0.55 0.24712203443 
0.549656 0.5 0.24601733685 0.549656 0.45 0.24675409496 0.549656 0.4 0.24925287068 
0.549656 0.35 0.25236439705 0.549656 0.3 0.25670140982 0.549656 0.25 0.2600440383 
0.549656 0.2 0.26218295097 0.549656 0.15 0.26437482238 0.549656 0.1 0.26884609461 
0.549656 0.05 0.27404668927 0.549656 0 0.27760261297 0.59944 1.5 0.29526519775 
0.59944 1.45 0.27798950672 0.59944 1.4 0.2758385241 0.59944 1.35 0.27246806026 
0.59944 1.3 0.27185976505 0.59944 1.25 0.27056837082 0.59944 1.2 0.26922178268 
0.59944 1.15 0.26787272096 0.59944 1.1 0.266310215 0.59944 1.05 0.26302695274 
0.59944 1 0.26263484359 0.59944 0.95 0.26242727041 0.59944 0.9 0.26126891375 
0.59944 0.85 0.26032009721 0.59944 0.8 0.26140961051 0.59944 0.75 0.2623540163 
0.59944 0.7 0.26057526469 0.59944 0.65 0.26239901781 0.59944 0.6 0.26355689764 
0.59944 0.55 0.26437866688 0.59944 0.5 0.26244387031 0.59944 0.45 0.2624656558 
0.59944 0.4 0.26362404227 0.59944 0.35 0.26329267025 0.59944 0.3 0.26658922434 
[...]
CELL_DATA 9270
FIELD FieldData 7
B_Stress_n_p_m2 1 9270 float
0.225765 0.253183 0.255714 0.252074 0.254088 0.255574 0.25317 0.249409 0.247327 
0.240353 0.235878 0.237422 0.234878 0.232156 0.23417 0.241452 0.247603 0.245338 
0.245665 0.248127 0.253461 0.255328 0.251261 0.247729 0.250812 0.254729 0.253209 
0.251487 0.245018 0.220611 0.0693833 0.106781 0.114318 0.112594 0.110734 0.110152 
0.108657 0.106583 0.105769 0.104144 0.101029 0.102489 0.102544 0.101729 0.101523 
0.103024 0.104738 0.103634 0.102653 0.103789 0.105134 0.107291 0.106482 0.104539 
0.105049 0.107634 0.109936 0.109876 0.10179 0.0669537 0.100696 0.145883 0.155807 
0.156587 0.15471 0.153001 0.15025 0.149063 0.148793 0.144866 0.142311 0.141545 
0.141605 0.140987 0.142121 0.144154 0.147829 0.148082 0.147095 0.148227 0.148893 
0.149347 0.148994 0.147779 0.147705 0.149343 0.148654 0.150041 0.138814 0.0976457 
0.108754 0.159028 0.170608 0.171679 0.17142 0.168584 0.165059 0.163268 0.163845 
0.161378 0.156703 0.156483 0.157061 0.154483 0.154839 0.157591 0.162356 0.164884 
0.165844 0.167825 0.166681 0.166222 0.164078 0.163732 0.163506 0.165151 0.163111 
0.160431 0.148887 0.10519 0.127376 0.179145 0.19668 0.196847 0.196618 0.194622 
0.19136 0.188456 0.184305 0.187532 0.182769 0.180966 0.182622 0.181298 0.179374 
0.181055 0.183881 0.187749 0.18921 0.192646 0.193671 0.191956 0.19062 0.189978 
0.189478 0.189982 0.193023 0.185095 0.171678 0.123119 0.147818 0.200137 0.217177 
0.220452 0.219538 0.217372 0.215187 0.212184 0.208471 0.205996 0.208256 0.204957 
0.204447 0.205848 0.204269 0.202953 0.203108 0.204242 0.204793 0.205832 0.208971 
0.210202 0.212458 0.213611 0.214926 0.214882 0.21596 0.214694 0.195317 0.14255 
0.160877 0.21382 0.229563 0.232742 0.230256 0.227318 0.224824 0.222646 0.220324 
0.216664 0.217585 0.21576 0.213276 0.214725 0.214348 0.212801 0.210803 0.208624 
0.208162 0.207504 0.208845 0.212682 0.217135 0.221706 0.225214 0.227745 0.22842 
0.226356 0.207211 0.154324 0.163496 0.214996 0.229283 0.230771 0.228035 0.224885 
0.22223 0.219844 0.217524 0.21541 0.21355 0.212348 0.210758 0.210122 0.210017 
0.208794 0.207005 0.205226 0.204272 0.203553 0.204248 0.207062 0.211018 0.215661 
0.219854 0.223255 0.22533 0.223697 0.20797 0.155666 0.163197 0.213065 0.226483 
0.227759 0.225789 0.223385 0.221201 0.219025 0.216828 0.215203 0.213234 0.212011 
0.210711 0.209536 0.209073 0.20807 0.207279 0.206773 0.206472 0.205984 0.206213 
0.207548 0.209623 0.212743 0.215948 0.218825 0.220702 0.219477 0.20609 0.155658 
0.166598 0.216085 0.231024 0.233614 0.233237 0.232223 0.231202 0.230176 0.228997 
0.227878 0.226781 0.225966 0.224837 0.223639 0.223031 0.222247 0.221637 0.221691 
0.221927 0.221834 0.221628 0.221919 0.222473 0.223576 0.225235 0.226748 0.227252 
0.224574 0.210213 0.159884 0.170203 0.221557 0.239049 0.243171 0.244141 0.244302 
0.244358 0.244426 0.244603 0.244329 0.244006 0.243754 0.24317 0.242181 0.241439 
0.24094 0.240122 0.239899 0.239831 0.239994 0.239805 0.239694 0.239741 0.239469 
0.239754 0.239936 0.239456 0.235027 0.218261 0.166329 0.170709 0.224463 0.241872 
0.24656 0.247703 0.248161 0.248505 0.248832 0.249172 0.249497 0.249413 0.249228 
0.248933 0.248425 0.247751 0.247148 0.246772 0.246266 0.245935 0.245758 0.24581 
0.245717 0.245542 0.245425 0.245097 0.244846 0.243937 0.239708 0.222498 0.169591 
0.172287 0.225087 0.241763 0.246007 0.247027 0.247388 0.247636 0.247852 0.248041 
0.248158 0.248095 0.247935 0.247665 0.247269 0.246808 0.246368 0.245998 0.245644 
0.245385 0.245213 0.24512 0.245002 0.244868 0.244741 0.244572 0.244367 0.243519 
0.239461 0.22295 0.170564 0.173306 0.225824 0.242015 0.245992 0.246891 0.247178 
0.247365 0.24752 0.247639 0.2477 0.247649 0.247515 0.247298 0.247001 0.246656 
0.246312 0.246004 0.245714 0.245483 0.245305 0.24518 0.245056 0.244932 0.244819 
0.24469 0.244505 0.243716 0.239834 0.223729 0.171571 0.174144 0.226398 0.242198 
0.245949 0.246729 0.246939 0.247063 0.247161 0.247228 0.247248 0.247195 0.24708 
0.246902 0.24667 0.246404 0.246133 0.245877 0.245638 0.245436 0.245269 0.245136 
0.245015 0.244905 0.24481 0.244716 0.244566 0.243846 0.240123 0.22435 0.172412 
0.17486 0.226873 0.242351 0.24592 0.246599 0.246743 0.246813 0.246865 0.246894 
0.246888 0.246833 0.246731 0.246583 0.246397 0.246187 0.245968 0.245756 0.245557 
0.245381 0.24523 0.245103 0.244993 0.244898 0.244821 0.244755 0.244638 0.243982 
0.240401 0.224909 0.173184 0.1755 0.227271 0.242468 0.245885 0.246481 0.24657 
0.246595 0.24661 0.246609 0.246585 0.246526 0.246434 0.246309 0.246156 0.245985 
0.245806 0.24563 0.245463 0.245311 0.245178 0.245064 0.244967 0.244888 0.24483 
0.244789 0.244702 0.244103 0.240648 0.225412 0.173905 0.17609 0.227614 0.242555 
0.245841 0.246369 0.246414 0.246403 0.246388 0.246365 0.246326 0.246265 0.24618 
0.246071 0.245942 0.2458 0.245652 0.245505 0.245364 0.245235 0.24512 0.245021 
0.24494 0.244877 0.244837 0.244816 0.244756 0.244207 0.240867 0.225871 0.17459 
0.176648 0.227918 0.242619 0.245789 0.246261 0.24627 0.24623 0.246192 0.246152 
0.246103 0.246039 0.245958 0.245862 0.245751 0.245631 0.245507 0.245383 0.245264 
0.245155 0.245058 0.244975 0.244908 0.244861 0.244838 0.244836 0.244799 0.244293 
0.241061 0.226297 0.175249 0.177184 0.228193 0.242663 0.245728 0.246154 0.246135 
0.246073 0.246017 0.245963 0.245906 0.24584 0.245763 0.245676 0.245579 0.245476 
0.245371 0.245266 0.245166 0.245074 0.244993 0.244925 0.244873 0.244841 0.244832 
0.244846 0.24483 0.244363 0.241232 0.226695 0.175888 0.177707 0.228448 0.242694 
0.245661 0.246048 0.246007 0.245928 0.245859 0.245794 0.24573 0.245662 0.245589 
0.245509 0.245423 0.245333 0.245243 0.245154 0.24507 0.244993 0.244926 0.244872 
0.244834 0.244815 0.24482 0.244849 0.244849 0.244418 0.241383 0.227069 0.176512 
0.178221 0.228689 0.242714 0.24559 0.245942 0.245885 0.245793 0.245712 0.24564 
0.245571 0.245502 0.245431 0.245357 0.245279 0.245201 0.245122 0.245047 0.244976 
0.244912 0.244859 0.244817 0.244792 0.244785 0.244802 0.244842 0.244858 0.244459 
0.241517 0.227425 0.177124 0.17873 0.22892 0.242726 0.245515 0.245838 0.245767 
0.245665 0.245576 0.245498 0.245426 0.245356 0.245287 0.245217 0.245146 0.245077 
0.245008 0.244944 0.244884 0.244832 0.24479 0.24476 0.244745 0.24475 0.244777 
0.244828 0.244857 0.244488 0.241636 0.227764 0.177726 0.179238 0.229143 0.242733 
0.245438 0.245734 0.245652 0.245543 0.245448 0.245365 0.245291 0.245221 0.245153 
0.245087 0.245022 0.24496 0.2449 0.244845 0.244795 0.244753 0.244721 0.244701 
0.244696 0.24471 0.244746 0.244807 0.244848 0.244506 0.241742 0.228089 0.178322 
0.179747 0.229361 0.242736 0.245359 0.245632 0.245541 0.245426 0.245326 0.245241 
0.245164 0.245094 0.245028 0.244965 0.244906 0.244849 0.244797 0.244749 0.244708 
0.244675 0.244652 0.24464 0.244644 0.244666 0.244711 0.244779 0.24483 0.244515 
0.241836 0.228403 0.178912 0.180258 0.229576 0.242736 0.24528 0.24553 0.245432 
0.245312 0.24521 0.245122 0.245045 0.244975 0.24491 0.244851 0.244795 0.244744 
0.244697 0.244657 0.244623 0.244597 0.244581 0.244578 0.244589 0.244618 0.24467 
0.244745 0.244806 0.244515 0.241919 0.228705 0.179498 0.180772 0.229789 0.242734 
0.2452 0.24543 0.245325 0.245203 0.245098 0.245009 0.244931 0.244861 0.244798 
0.244741 0.244689 0.244643 0.244601 0.244567 0.244539 0.24452 0.244511 0.244514 
0.244532 0.244567 0.244625 0.244707 0.244775 0.244508 0.241994 0.228999 0.180082 
0.181291 0.23 0.24273 0.24512 0.24533 0.245221 0.245096 0.24499 0.2449 
0.244821 0.244753 0.244691 0.244637 0.244588 0.244545 0.244508 0.244478 0.244456 
0.244443 0.24444 0.244449 0.244472 0.244513 0.244576 0.244663 0.244739 0.244494 
0.24206 0.229285 0.180665 0.181815 0.230211 0.242725 0.24504 0.245232 0.245119 
0.244992 0.244885 0.244794 0.244716 0.244648 0.244588 0.244535 0.244489 0.24445 
0.244417 0.244392 0.244374 0.244366 0.244368 0.244382 0.24441 0.244456 0.244524 
0.244615 0.244699 0.244474 0.242119 0.229563 0.181247 0.182344 0.230422 0.242719 
0.24496 0.245135 0.245018 0.244891 0.244783 0.244692 0.244614 0.244546 0.244488 
0.244437 0.244394 0.244357 0.244328 0.244307 0.244293 0.244289 0.244295 0.244314 
0.244347 0.244397 0.244469 0.244564 0.244653 0.244449 0.242172 0.229836 0.18183 
0.182879 0.230633 0.242713 0.244881 0.245039 0.244919 0.244791 0.244683 0.244592 
0.244514 0.244448 0.244391 0.244342 0.244301 0.244267 0.244241 0.244222 0.244213 
0.244212 0.244223 0.244245 0.244282 0.244335 0.244411 0.244509 0.244604 0.244419 
0.242218 0.230103 0.182413 0.183419 0.230843 0.242706 0.244802 0.244944 0.244821 
0.244693 0.244584 0.244494 0.244417 0.244351 0.244295 0.244248 0.244209 0.244178 
0.244154 0.244139 0.244132 0.244135 0.244149 0.244175 0.244215 0.244272 0.24435 
0.244452 0.244552 0.244385 0.24226 0.230365 0.182999 0.183967 0.231055 0.242699 
0.244724 0.244851 0.244725 0.244596 0.244488 0.244397 0.244321 0.244257 0.244202 
0.244156 0.244119 0.24409 0.244069 0.244056 0.244052 0.244058 0.244075 0.244103 
0.244146 0.244206 0.244287 0.244392 0.244496 0.244347 0.242296 0.230622 0.183586 
0.18452 0.231266 0.242692 0.244646 0.244758 0.24463 0.244501 0.244393 0.244303 
0.244227 0.244164 0.24411 0.244066 0.24403 0.244003 0.243984 0.243974 0.243973 
0.243981 0.244 0.244031 0.244077 0.244139 0.244222 0.244329 0.244438 0.244306 
0.242328 0.230875 0.184176 0.18508 0.231478 0.242684 0.244568 0.244666 0.244536 
0.244407 0.244299 0.24421 0.244135 0.244072 0.244019 0.243977 0.243943 0.243917 
0.2439 0.243892 0.243893 0.243903 0.243925 0.243958 0.244006 0.24407 0.244155 
0.244264 0.244377 0.244262 0.242355 0.231125 0.18477 0.185647 0.231689 0.242676 
0.244491 0.244575 0.244443 0.244313 0.244206 0.244117 0.244043 0.243981 0.24393 
0.243888 0.243856 0.243832 0.243816 0.24381 0.243813 0.243825 0.243849 0.243884 
0.243934 0.244 0.244087 0.244198 0.244314 0.244214 0.242379 0.231371 0.185367 
0.186221 0.231901 0.242667 0.244414 0.244484 0.24435 0.244221 0.244115 0.244026 
0.243953 0.243891 0.243841 0.243801 0.243769 0.243747 0.243733 0.243728 0.243733 
0.243747 0.243772 0.243809 0.243861 0.243929 0.244017 0.24413 0.244249 0.244165 
0.242399 0.231614 0.185967 0.186801 0.232113 0.242657 0.244338 0.244394 0.244259 
0.24413 0.244024 0.243936 0.243863 0.243803 0.243753 0.243714 0.243683 0.243662 
0.24365 0.243646 0.243652 0.243668 0.243695 0.243734 0.243787 0.243856 0.243946 
0.24406 0.244182 0.244113 0.242416 0.231855 0.186572 0.187388 0.232325 0.242647 
0.244262 0.244305 0.244168 0.244039 0.243933 0.243846 0.243774 0.243714 0.243666 
0.243627 0.243598 0.243578 0.243567 0.243564 0.243572 0.243589 0.243617 0.243657 
0.243712 0.243782 0.243873 0.243988 0.244114 0.244058 0.24243 0.232092 0.187182 
0.187982 0.232537 0.242637 0.244185 0.244217 0.244078 0.243949 0.243844 0.243757 
0.243685 0.243626 0.243578 0.243541 0.243513 0.243494 0.243483 0.243483 0.243491 
0.243509 0.243539 0.24358 0.243636 0.243707 0.2438 0.243916 0.244044 0.244002 
0.242441 0.232327 0.187796 0.188583 0.232749 0.242625 0.244109 0.244128 0.243988 
0.24386 0.243755 0.243669 0.243597 0.243539 0.243492 0.243455 0.243428 0.24341 
0.2434 0.243401 0.24341 0.24343 0.24346 0.243503 0.243559 0.243632 0.243725 
0.243842 0.243973 0.243944 0.242448 0.232559 0.188415 0.189191 0.23296 0.242613 
0.244033 0.244041 0.243899 0.243771 0.243666 0.24358 0.24351 0.243452 0.243405 
0.243369 0.243343 0.243326 0.243317 0.243318 0.243329 0.243349 0.243381 0.243424 
0.243482 0.243555 0.243649 0.243767 0.2439 0.243884 0.242454 0.232789 0.189039 
0.189806 0.233171 0.242599 0.243957 0.243953 0.24381 0.243683 0.243578 0.243493 
0.243422 0.243365 0.243319 0.243284 0.243258 0.243242 0.243234 0.243236 0.243248 
0.243269 0.243301 0.243345 0.243404 0.243478 0.243573 0.243691 0.243826 0.243823 
0.242456 0.233017 0.189669 0.190428 0.233381 0.242585 0.243881 0.243866 0.243722 
0.243594 0.24349 0.243405 0.243335 0.243279 0.243233 0.243199 0.243173 0.243158 
0.243151 0.243154 0.243166 0.243188 0.243221 0.243266 0.243325 0.2434 0.243495 
0.243615 0.243752 0.24376 0.242456 0.233242 0.190305 0.191057 0.23359 0.24257 
0.243805 0.243779 0.243634 0.243507 0.243403 0.243318 0.243249 0.243193 0.243148 
0.243113 0.243089 0.243074 0.243068 0.243071 0.243084 0.243107 0.243141 0.243186 
0.243246 0.243321 0.243417 0.243537 0.243676 0.243695 0.242454 0.233465 0.190946 
0.191693 0.233798 0.242554 0.243728 0.243693 0.243546 0.243419 0.243315 0.243231 
0.243162 0.243106 0.243062 0.243028 0.243004 0.24299 0.242984 0.242988 0.243002 
0.243025 0.24306 0.243106 0.243166 0.243242 0.243338 0.243459 0.2436 0.24363 
0.242449 0.233686 0.191593 0.192337 0.234006 0.242536 0.243652 0.243606 0.243459 
0.243332 0.243228 0.243144 0.243076 0.24302 0.242976 0.242943 0.242919 0.242905 
0.2429 0.242905 0.242919 0.242943 0.242978 0.243025 0.243086 0.243162 0.243259 
0.24338 0.243522 0.243563 0.242442 0.233904 0.192246 0.192988 0.234212 0.242517 
0.243575 0.24352 0.243371 0.243244 0.243141 0.243058 0.242989 0.242934 0.242891 
0.242858 0.242835 0.242821 0.242817 0.242822 0.242836 0.242861 0.242896 0.242943 
0.243005 0.243082 0.243179 0.2433 0.243444 0.243495 0.242432 0.234121 0.192906 
0.193646 0.234417 0.242497 0.243498 0.243433 0.243284 0.243157 0.243054 0.242971 
0.242903 0.242849 0.242805 0.242773 0.24275 0.242737 0.242733 0.242738 0.242753 
0.242778 0.242814 0.242862 0.242923 0.243001 0.243098 0.24322 0.243365 0.243426 
0.242421 0.234335 0.193572 0.194311 0.234621 0.242476 0.243421 0.243347 0.243197 
0.24307 0.242968 0.242885 0.242817 0.242763 0.24272 0.242687 0.242665 0.242652 
0.242649 0.242654 0.24267 0.242695 0.242732 0.24278 0.242842 0.242919 0.243017 
0.243139 0.243286 0.243356 0.242407 0.234547 0.194245 0.194984 0.234823 0.242453 
0.243343 0.243261 0.24311 0.242984 0.242881 0.242798 0.242731 0.242677 0.242634 
0.242602 0.24258 0.242567 0.242564 0.24257 0.242586 0.242612 0.242649 0.242697 
0.24276 0.242837 0.242936 0.243058 0.243206 0.243284 0.242391 0.234757 0.194924 
0.195665 0.235024 0.242429 0.243265 0.243175 0.243023 0.242897 0.242794 0.242712 
0.242644 0.242591 0.242548 0.242517 0.242495 0.242483 0.24248 0.242486 0.242502 
0.242528 0.242566 0.242614 0.242677 0.242755 0.242854 0.242976 0.243125 0.243212 
0.242373 0.234964 0.195611 0.196353 0.235223 0.242403 0.243187 0.243089 0.242936 
0.24281 0.242708 0.242625 0.242558 0.242505 0.242462 0.242431 0.24241 0.242398 
0.242395 0.242402 0.242418 0.242444 0.242482 0.242531 0.242594 0.242672 0.242771 
0.242894 0.243044 0.243139 0.242353 0.235169 0.196304 0.197049 0.23542 0.242376 
0.243108 0.243003 0.242849 0.242723 0.242621 0.242539 0.242472 0.242419 0.242377 
0.242346 0.242324 0.242313 0.24231 0.242317 0.242334 0.24236 0.242398 0.242447 
0.242511 0.242589 0.242688 0.242811 0.242962 0.243065 0.242331 0.235371 0.197005 
0.197752 0.235615 0.242348 0.243029 0.242916 0.242762 0.242637 0.242534 0.242453 
0.242385 0.242332 0.242291 0.24226 0.242239 0.242227 0.242225 0.242232 0.242249 
0.242276 0.242314 0.242363 0.242427 0.242506 0.242605 0.242728 0.24288 0.242991 
0.242307 0.235572 0.197713 0.198464 0.235808 0.242317 0.24295 0.24283 0.242675 
0.24255 0.242448 0.242366 0.242299 0.242246 0.242205 0.242174 0.242153 0.242142 
0.24214 0.242147 0.242165 0.242191 0.24223 0.242279 0.242343 0.242422 0.242521 
0.242644 0.242797 0.242915 0.242281 0.235769 0.198428 0.199184 0.235999 0.242286 
0.24287 0.242744 0.242588 0.242463 0.242361 0.242279 0.242213 0.24216 0.242118 
0.242088 0.242067 0.242056 0.242054 0.242062 0.242079 0.242107 0.242145 0.242195 
0.242259 0.242338 0.242437 0.242561 0.242714 0.242839 0.242253 0.235964 0.199152 
0.199911 0.236188 0.242252 0.242789 0.242657 0.242501 0.242376 0.242274 0.242193 
0.242126 0.242074 0.242032 0.242002 0.241981 0.24197 0.241969 0.241977 0.241994 
0.242021 0.24206 0.24211 0.242174 0.242253 0.242353 0.242476 0.242631 0.242761 
0.242223 0.236156 0.199883 0.200647 0.236374 0.242217 0.242709 0.242571 0.242414 
0.242289 0.242187 0.242106 0.242039 0.241987 0.241946 0.241916 0.241895 0.241884 
0.241883 0.241891 0.241909 0.241936 0.241975 0.242025 0.242089 0.242168 0.242268 
0.242392 0.242547 0.242684 0.242191 0.236345 0.200621 0.201391 0.236557 0.24218 
0.242628 0.242484 0.242327 0.242202 0.2421 0.242019 0.241953 0.2419 0.241859 
0.241829 0.241809 0.241798 0.241797 0.241805 0.241823 0.241851 0.241889 0.24194 
0.242004 0.242083 0.242183 0.242307 0.242462 0.242605 0.242157 0.236532 0.201368 
0.202144 0.236738 0.242142 0.242546 0.242397 0.24224 0.242115 0.242013 0.241932 
0.241866 0.241814 0.241772 0.241743 0.241722 0.241712 0.241711 0.241719 0.241737 
0.241765 0.241804 0.241854 0.241919 0.241998 0.242098 0.242222 0.242378 0.242526 
0.242121 0.236715 0.202123 0.202905 0.236916 0.242102 0.242464 0.24231 0.242152 
0.242028 0.241926 0.241845 0.241779 0.241727 0.241686 0.241656 0.241636 0.241626 
0.241625 0.241633 0.241651 0.241679 0.241718 0.241768 0.241833 0.241912 0.242013 
0.242136 0.242293 0.242446 0.242083 0.236895 0.202887 0.203675 0.237091 0.24206 
0.242382 0.242223 0.242065 0.24194 0.241839 0.241758 0.241692 0.24164 0.241599 
0.241569 0.241549 0.241539 0.241538 0.241546 0.241565 0.241593 0.241632 0.241682 
0.241747 0.241826 0.241927 0.24205 0.242207 0.242365 0.242043 0.237073 0.203658 
0.204454 0.237263 0.242017 0.242299 0.242136 0.241977 0.241853 0.241751 0.241671 
0.241604 0.241553 0.241512 0.241482 0.241462 0.241452 0.241451 0.24146 0.241478 
0.241506 0.241545 0.241596 0.241661 0.24174 0.241841 0.241964 0.242122 0.242284 
0.242001 0.237246 0.204439 0.205242 0.237431 0.241971 0.242216 0.242048 0.241889 
0.241765 0.241664 0.241583 0.241517 0.241465 0.241425 0.241395 0.241375 0.241365 
0.241364 0.241373 0.241391 0.241419 0.241459 0.241509 0.241574 0.241654 0.241754 
0.241878 0.242036 0.242202 0.241958 0.237417 0.205228 0.206038 0.237597 0.241924 
0.242132 0.241961 0.241802 0.241678 0.241576 0.241496 0.241429 0.241378 0.241337 
0.241308 0.241288 0.241278 0.241277 0.241286 0.241305 0.241333 0.241372 0.241423 
0.241488 0.241567 0.241668 0.241791 0.241949 0.24212 0.241912 0.237583 0.206026 
0.206844 0.237758 0.241876 0.242048 0.241873 0.241714 0.24159 0.241488 0.241408 
0.241342 0.24129 0.24125 0.24122 0.241201 0.241191 0.24119 0.241199 0.241217 
0.241246 0.241285 0.241336 0.241401 0.24148 0.241581 0.241704 0.241863 0.242037 
0.241865 0.237746 0.206833 0.207659 0.237916 0.241825 0.241963 0.241785 0.241626 
0.241502 0.2414 0.24132 0.241254 0.241203 0.241162 0.241133 0.241113 0.241103 
0.241103 0.241112 0.24113 0.241159 0.241198 0.241249 0.241314 0.241393 0.241494 
0.241617 0.241776 0.241953 0.241815 0.237905 0.20765 0.208484 0.23807 0.241773 
0.241878 0.241697 0.241537 0.241414 0.241312 0.241232 0.241166 0.241115 0.241074 
0.241045 0.241026 0.241016 0.241015 0.241024 0.241043 0.241071 0.241111 0.241161 
0.241227 0.241306 0.241407 0.24153 0.241689 0.241869 0.241764 0.23806 0.208475 
0.209318 0.23822 0.241719 0.241792 0.241609 0.241449 0.241325 0.241224 0.241144 
0.241078 0.241027 0.240987 0.240957 0.240938 0.240928 0.240928 0.240937 0.240955 
0.240984 0.241023 0.241074 0.241139 0.241218 0.241319 0.241442 0.241601 0.241785 
0.241711 0.238211 0.20931 0.210162 0.238365 0.241663 0.241706 0.24152 0.24136 
0.241237 0.241136 0.241056 0.24099 0.240939 0.240899 0.24087 0.24085 0.240841 
0.24084 0.240849 0.240868 0.240896 0.240936 0.240986 0.241051 0.241131 0.241231 
0.241354 0.241514 0.2417 0.241656 0.238358 0.210155 0.211016 0.238507 0.241605 
0.24162 0.241431 0.241271 0.241148 0.241047 0.240968 0.240902 0.240851 0.240811 
0.240782 0.240762 0.240753 0.240752 0.240761 0.24078 0.240808 0.240848 0.240898 
0.240964 0.241043 0.241143 0.241266 0.241426 0.241614 0.241599 0.2385 0.21101 
0.21188 0.238643 0.241546 0.241533 0.241343 0.241182 0.24106 0.240959 0.240879 
0.240814 0.240763 0.240722 0.240694 0.240674 0.240665 0.240664 0.240673 0.240692 
0.24072 0.24076 0.24081 0.240875 0.240955 0.241055 0.241178 0.241337 0.241528 
0.24154 0.238637 0.211874 0.212754 0.238775 0.241484 0.241446 0.241253 0.241093 
0.240971 0.24087 0.240791 0.240725 0.240674 0.240634 0.240605 0.240586 0.240577 
0.240577 0.240586 0.240604 0.240632 0.240672 0.240722 0.240787 0.240866 0.240967 