# vtk DataFile Version 5.1
vtk output
ASCII
DATASET UNSTRUCTURED_GRID
POINTS 4929 double
0.1016 1.5 0.07553717494 0.1016 1.45 0.072586730123 0.1016 1.4 0.075662434101 
0.1016 1.35 0.07241269201 0.1016 1.3 0.073299214244 0.1016 1.25 0.083241671324 
0.1016 1.2 0.08569123596 0.1016 1.15 0.077467411757 0.1016 1.1 0.068724192679 
0.1016 1.05 0.058219458908 0.1016 1 0.047355044633 0.1016 0.95 0.05262138322 
0.1016 0.9 0.054255034775 0.1016 0.85 0.049980182201 0.1016 0.8 0.054412789643 
0.1016 0.75 0.072089999914 0.1016 0.7 0.091008931398 0.1016 0.65 0.09657767415 
0.1016 0.6 0.089469343424 0.1016 0.55 0.089980430901 0.1016 0.5 0.096735879779 
0.1016 0.45 0.10385231674 0.1016 0.4 0.094612747431 0.1016 0.35 0.082164645195 
0.1016 0.3 0.08035415411 0.1016 0.25 0.089107640088 0.1016 0.2 0.091087311506 
0.1016 0.15 0.081848211586 0.1016 0.1 0.075282156467 0.1016 0.05 0.069869413972 
0.1016 0 0.067057110369 5.08 1.5 0.28700000048 5.08 1.45 0.28700000048 
5.08 1.4 0.28700000048 5.08 1.35 0.28700000048 5.08 1.3 0.28700000048 
5.08 1.25 0.28700000048 5.08 1.2 0.28700000048 5.08 1.15 0.28700000048 
5.08 1.1 0.28700000048 5.08 1.05 0.28700000048 5.08 1 0.28700000048 
5.08 0.95 0.28700000048 5.08 0.9 0.28700000048 5.08 0.85 0.28700000048 
5.08 0.8 0.28700000048 5.08 0.75 0.28700000048 5.08 0.7 0.28700000048 
5.08 0.65 0.28700000048 5.08 0.6 0.28700000048 5.08 0.55 0.28700000048 
5.08 0.5 0.28700000048 5.08 0.45 0.28700000048 5.08 0.4 0.28700000048 
5.08 0.35 0.28700000048 5.08 0.3 0.28700000048 5.08 0.25 0.28700000048 
5.08 0.2 0.28700000048 5.08 0.15 0.28700000048 5.08 0.1 0.28700000048 
5.08 0.05 0.28700000048 5.08 0 0.28700000048 0.12737462728 1.5 0.081511490047 
0.12737462728 1.45 0.079651027918 0.12737462728 1.4 0.087510257959 0.12737462728 1.35 0.080029115081 
0.12737462728 1.3 0.078766494989 0.12737462728 1.25 0.093626104295 0.12737462728 1.2 0.096454553306 
0.12737462728 1.15 0.084906339645 0.12737462728 1.1 0.07648819685 0.12737462728 1.05 0.066677480936 
0.12737462728 1 0.048709586263 0.12737462728 0.95 0.059719078243 0.12737462728 0.9 0.061498533934 
0.12737462728 0.85 0.05399350822 0.12737462728 0.8 0.056917801499 0.12737462728 0.75 0.077293917537 
0.12737462728 0.7 0.099904283881 0.12737462728 0.65 0.10624914616 0.12737462728 0.6 0.092581279576 
0.12737462728 0.55 0.095188446343 0.12737462728 0.5 0.10263121128 0.12737462728 0.45 0.1160537526 
0.12737462728 0.4 0.10268978029 0.12737462728 0.35 0.087020009756 0.12737462728 0.3 0.084047883749 
0.12737462728 0.25 0.097101487219 0.12737462728 0.2 0.10002950579 0.12737462728 0.15 0.085008606315 
0.12737462728 0.1 0.080935835838 0.12737462728 0.05 0.075699023902 0.12737462728 0 0.071262486279 
0.15441581276 1.5 0.092001967132 0.15441581276 1.45 0.092578552663 0.15441581276 1.4 0.10660176724 
0.15441581276 1.35 0.093421928585 0.15441581276 1.3 0.089311517775 0.15441581276 1.25 0.10937468708 
0.15441581276 1.2 0.11113698035 0.15441581276 1.15 0.096186771989 0.15441581276 1.1 0.088048413396 
0.15441581276 1.05 0.082358293235 0.15441581276 1 0.056747943163 0.15441581276 0.95 0.071689337492 
0.15441581276 0.9 0.075371928513 0.15441581276 0.85 0.067876718938 0.15441581276 0.8 0.068759009242 
0.15441581276 0.75 0.088105022907 0.15441581276 0.7 0.11193703115 0.15441581276 0.65 0.1199933961 
0.15441581276 0.6 0.099017687142 0.15441581276 0.55 0.1060994789 0.15441581276 0.5 0.11226605624 
0.15441581276 0.45 0.13184076548 0.15441581276 0.4 0.11536222696 0.15441581276 0.35 0.098424419761 
0.15441581276 0.3 0.09206058085 0.15441581276 0.25 0.10783100128 0.15441581276 0.2 0.11174411327 
0.15441581276 0.15 0.089793629944 0.15441581276 0.1 0.091238088906 0.15441581276 0.05 0.087634898722 
0.15441581276 0 0.082745976746 0.18278579477 1.5 0.10664313287 0.18278579477 1.45 0.11483775824 
0.18278579477 1.4 0.12907283008 0.18278579477 1.35 0.11366269737 0.18278579477 1.3 0.10834826529 
0.18278579477 1.25 0.12918426096 0.18278579477 1.2 0.12720671296 0.18278579477 1.15 0.11329983175 
0.18278579477 1.1 0.10330980271 0.18278579477 1.05 0.10221455246 0.18278579477 1 0.081927150488 
0.18278579477 0.95 0.082103036344 0.18278579477 0.9 0.095156311989 0.18278579477 0.85 0.094427540898 
0.18278579477 0.8 0.093842960894 0.18278579477 0.75 0.10407932848 0.18278579477 0.7 0.1255929023 
0.18278579477 0.65 0.13494887948 0.18278579477 0.6 0.11399864405 0.18278579477 0.55 0.12261210382 
0.18278579477 0.5 0.13049523532 0.18278579477 0.45 0.14422540367 0.18278579477 0.4 0.1346654892 
0.18278579477 0.35 0.11908050627 0.18278579477 0.3 0.10743302852 0.18278579477 0.25 0.12012656778 
0.18278579477 0.2 0.12265773118 0.18278579477 0.15 0.10351469368 0.18278579477 0.1 0.10028131306 
0.18278579477 0.05 0.098336949944 0.18278579477 0 0.10771098733 0.21254987001 1.5 0.1257610172 
0.21254987001 1.45 0.13712275028 0.21254987001 1.4 0.14848352969 0.21254987001 1.35 0.1355689466 
0.21254987001 1.3 0.13300481439 0.21254987001 1.25 0.15094038844 0.21254987001 1.2 0.1444478929 
0.21254987001 1.15 0.13296589255 0.21254987001 1.1 0.12434708327 0.21254987001 1.05 0.12571889162 
0.21254987001 1 0.109676525 0.21254987001 0.95 0.10009343177 0.21254987001 0.9 0.11756725609 
0.21254987001 0.85 0.11932499707 0.21254987001 0.8 0.11892963946 0.21254987001 0.75 0.12329537421 
0.21254987001 0.7 0.14401341975 0.21254987001 0.65 0.15642033517 0.21254987001 0.6 0.13587887585 
0.21254987001 0.55 0.14520601928 0.21254987001 0.5 0.15219801664 0.21254987001 0.45 0.16180513799 
0.21254987001 0.4 0.15443094075 0.21254987001 0.35 0.14251695573 0.21254987001 0.3 0.12673099339 
0.21254987001 0.25 0.1371101886 0.21254987001 0.2 0.1378518343 0.21254987001 0.15 0.12825778127 
0.21254987001 0.1 0.12968105078 0.21254987001 0.05 0.11752158403 0.21254987001 0 0.13178536296 
0.24377654385 1.5 0.14850027859 0.24377654385 1.45 0.15800987184 0.24377654385 1.4 0.1619540453 
0.24377654385 1.35 0.15709526837 0.24377654385 1.3 0.16192874312 0.24377654385 1.25 0.17061546445 
0.24377654385 1.2 0.16228444874 0.24377654385 1.15 0.15264335275 0.24377654385 1.1 0.15201455355 
0.24377654385 1.05 0.14905172586 0.24377654385 1 0.13369633257 0.24377654385 0.95 0.12654219568 
0.24377654385 0.9 0.13969092071 0.24377654385 0.85 0.13535757363 0.24377654385 0.8 0.13740871847 
0.24377654385 0.75 0.14360113442 0.24377654385 0.7 0.16677625477 0.24377654385 0.65 0.18161121011 
0.24377654385 0.6 0.16419354081 0.24377654385 0.55 0.1697793752 0.24377654385 0.5 0.17557561398 
0.24377654385 0.45 0.184548527 0.24377654385 0.4 0.17107091844 0.24377654385 0.35 0.16403840482 
0.24377654385 0.3 0.1488699466 0.24377654385 0.25 0.15978863835 0.24377654385 0.2 0.15751865506 
0.24377654385 0.15 0.15035253763 0.24377654385 0.1 0.1527300477 0.24377654385 0.05 0.13895003498 
0.24377654385 0 0.15852256119 0.27653768798 1.5 0.17086410522 0.27653768798 1.45 0.18399246037 
0.27653768798 1.4 0.19248960912 0.27653768798 1.35 0.1790112704 0.27653768798 1.3 0.18561527133 
0.27653768798 1.25 0.19058841467 0.27653768798 1.2 0.18141317368 0.27653768798 1.15 0.17301347852 
0.27653768798 1.1 0.1745185554 0.27653768798 1.05 0.18035452068 0.27653768798 1 0.15245474875 
0.27653768798 0.95 0.1500325799 0.27653768798 0.9 0.16135661304 0.27653768798 0.85 0.15640245378 
0.27653768798 0.8 0.15645033121 0.27653768798 0.75 0.16459086537 0.27653768798 0.7 0.18437412381 
0.27653768798 0.65 0.20194405317 0.27653768798 0.6 0.18800002337 0.27653768798 0.55 0.19409623742 
0.27653768798 0.5 0.19952742755 0.27653768798 0.45 0.20093761384 0.27653768798 0.4 0.1886280477 
0.27653768798 0.35 0.18425172567 0.27653768798 0.3 0.17426902056 0.27653768798 0.25 0.18499521911 
0.27653768798 0.2 0.18442136049 0.27653768798 0.15 0.17219696939 0.27653768798 0.1 0.17464773357 
0.27653768798 0.05 0.16474620998 0.27653768798 0 0.18164773285 0.31090870586 1.5 0.1950943023 
0.31090870586 1.45 0.21086648107 0.31090870586 1.4 0.22704106569 0.31090870586 1.35 0.20037378371 
0.31090870586 1.3 0.20705673099 0.31090870586 1.25 0.21185447276 0.31090870586 1.2 0.20322871208 
0.31090870586 1.15 0.19508776069 0.31090870586 1.1 0.19225299358 0.31090870586 1.05 0.20692105591 
0.31090870586 1 0.17223204672 0.31090870586 0.95 0.17397344112 0.31090870586 0.9 0.18366858363 
0.31090870586 0.85 0.18392933905 0.31090870586 0.8 0.17945840955 0.31090870586 0.75 0.18509207666 
0.31090870586 0.7 0.19842395186 0.31090870586 0.65 0.21871137619 0.31090870586 0.6 0.20707592368 
0.31090870586 0.55 0.21794039011 0.31090870586 0.5 0.22474743426 0.31090870586 0.45 0.21703508496 
0.31090870586 0.4 0.20948469639 0.31090870586 0.35 0.20566953719 0.31090870586 0.3 0.19936518371 
0.31090870586 0.25 0.20764540136 0.31090870586 0.2 0.20482321084 0.31090870586 0.15 0.17246800661 
0.31090870586 0.1 0.19732899964 0.31090870586 0.05 0.18401250243 0.31090870586 0 0.23044300079 
0.34696870625 1.5 0.2255859673 0.34696870625 1.45 0.23226870596 0.34696870625 1.4 0.23778671026 
0.34696870625 1.35 0.22528643906 0.34696870625 1.3 0.23183844984 0.34696870625 1.25 0.23457209766 
0.34696870625 1.2 0.22808143497 0.34696870625 1.15 0.21988227963 0.34696870625 1.1 0.2177759409 
0.34696870625 1.05 0.20622827113 0.34696870625 1 0.2097954005 0.34696870625 0.95 0.20441518724 
0.34696870625 0.9 0.20498907566 0.34696870625 0.85 0.21303249896 0.34696870625 0.8 0.20638656616 
0.34696870625 0.75 0.20485413074 0.34696870625 0.7 0.21964342892 0.34696870625 0.65 0.23567548394 
0.34696870625 0.6 0.22988502681 0.34696870625 0.55 0.23937311769 0.34696870625 0.5 0.25047457218 
0.34696870625 0.45 0.23982729018 0.34696870625 0.4 0.23576352 0.34696870625 0.35 0.22765061259 
0.34696870625 0.3 0.22493445873 0.34696870625 0.25 0.22458226979 0.34696870625 0.2 0.22051312029 
0.34696870625 0.15 0.22754351795 0.34696870625 0.1 0.2228833288 0.34696870625 0.05 0.21620370448 
0.34696870625 0 0.24490277469 0.3848006853 1.5 0.25554561615 0.3848006853 1.45 0.25705730915 
0.3848006853 1.4 0.25573039055 0.3848006853 1.35 0.25344017148 0.3848006853 1.3 0.25616145134 
[...]
CELL_DATA 4740
FIELD FieldData 7
B_Stress_n_p_m2 1 4740 float
0.130101 0.132556 0.131916 0.131286 0.132462 0.133637 0.133214 0.132197 0.130755 
0.127732 0.127135 0.126589 0.124737 0.123638 0.125097 0.128141 0.130193 0.129719 
0.129872 0.13067 0.133094 0.133216 0.131597 0.130815 0.132082 0.13303 0.131545 
0.13059 0.129966 0.126715 0.114692 0.117635 0.11723 0.11593 0.117011 0.118441 
0.118014 0.116644 0.115834 0.113307 0.112029 0.112811 0.111662 0.110294 0.110793 
0.113135 0.114803 0.113852 0.113658 0.114521 0.116798 0.117861 0.115936 0.114367 
0.115089 0.116122 0.114587 0.113284 0.113552 0.11062 0.116435 0.119836 0.120308 
0.118734 0.119494 0.120994 0.120586 0.118749 0.118006 0.116647 0.114015 0.115362 
0.115571 0.114757 0.114351 0.115879 0.117326 0.116433 0.115898 0.117128 0.118822 
0.120671 0.118982 0.116445 0.115985 0.116631 0.11587 0.113894 0.113626 0.111359 
0.125599 0.12868 0.130102 0.129482 0.129864 0.131003 0.130425 0.129116 0.127954 
0.127135 0.12473 0.124702 0.12557 0.125864 0.125609 0.126743 0.128427 0.127739 
0.126956 0.128098 0.129706 0.13058 0.129696 0.126702 0.125229 0.125115 0.125073 
0.123987 0.122225 0.119724 0.136378 0.138411 0.139486 0.140631 0.141104 0.141457 
0.140606 0.140534 0.14004 0.13785 0.136174 0.135269 0.135315 0.135578 0.136441 
0.138246 0.141062 0.141147 0.140072 0.140675 0.141686 0.141394 0.140371 0.137865 
0.136194 0.135663 0.134743 0.134676 0.133138 0.130266 0.149465 0.151836 0.150751 
0.152107 0.153352 0.152791 0.151577 0.151853 0.153897 0.149581 0.147198 0.147019 
0.146666 0.145528 0.146852 0.14933 0.153587 0.154791 0.154675 0.155006 0.154384 
0.153527 0.151501 0.149794 0.148479 0.147876 0.144361 0.144867 0.144126 0.144073 
0.16361 0.166858 0.16643 0.165818 0.167235 0.166803 0.165138 0.164538 0.166208 
0.164766 0.160169 0.160362 0.161065 0.159138 0.159201 0.16174 0.166232 0.168852 
0.170224 0.172062 0.170359 0.168135 0.165261 0.163531 0.161962 0.161142 0.157147 
0.155708 0.15632 0.16068 0.179912 0.181241 0.183707 0.182588 0.184081 0.184246 
0.182713 0.181123 0.178699 0.181881 0.178019 0.177168 0.17871 0.177473 0.175839 
0.177543 0.180911 0.184581 0.186214 0.189597 0.18917 0.18616 0.183055 0.180748 
0.178213 0.176831 0.176915 0.171594 0.173049 0.175905 0.200102 0.198431 0.200437 
0.201317 0.202529 0.202608 0.201994 0.200191 0.196732 0.197323 0.198868 0.196466 
0.197119 0.197793 0.196123 0.195605 0.196898 0.199122 0.199841 0.201631 0.203436 
0.202366 0.201594 0.199938 0.198165 0.19583 0.196183 0.195162 0.192628 0.194238 
0.217627 0.21484 0.215609 0.216653 0.216427 0.215786 0.21541 0.214598 0.212226 
0.21052 0.213009 0.210875 0.209881 0.211762 0.211186 0.209607 0.208109 0.207114 
0.206427 0.205883 0.207301 0.209315 0.211683 0.213132 0.213606 0.212447 0.212235 
0.212294 0.208876 0.209784 0.225034 0.222651 0.22218 0.221928 0.220444 0.219121 
0.218258 0.217609 0.21658 0.214551 0.215049 0.2139 0.212292 0.213303 0.213258 
0.211856 0.209387 0.206756 0.205265 0.203924 0.20423 0.206927 0.210407 0.213769 
0.216 0.217106 0.217066 0.217489 0.215641 0.216703 0.223634 0.22183 0.22023 
0.218784 0.217156 0.215763 0.214672 0.213638 0.212594 0.211391 0.21022 0.209446 
0.208447 0.207936 0.207699 0.206615 0.204847 0.20303 0.201612 0.200462 0.200385 
0.201908 0.204429 0.207343 0.209807 0.211557 0.212709 0.213789 0.214218 0.21431 
0.221108 0.219983 0.218122 0.216914 0.215993 0.215266 0.214605 0.213792 0.212818 
0.212012 0.210937 0.210181 0.209304 0.208448 0.207938 0.207029 0.206212 0.205538 
0.204871 0.203928 0.203423 0.203662 0.204463 0.206007 0.207536 0.208755 0.209622 
0.21099 0.212689 0.212498 0.223456 0.222875 0.222606 0.222929 0.223488 0.224029 
0.224459 0.224742 0.224643 0.224434 0.224159 0.22384 0.22312 0.222279 0.221745 
0.22094 0.220319 0.22009 0.219927 0.219243 0.218346 0.21769 0.21706 0.216875 
0.216961 0.216933 0.216461 0.216349 0.216947 0.216389 0.227357 0.227814 0.230178 
0.23204 0.233943 0.235578 0.237031 0.238349 0.239539 0.240111 0.240575 0.240847 
0.240647 0.239979 0.239396 0.238874 0.237952 0.237483 0.237008 0.236561 0.2356 
0.234586 0.233507 0.231996 0.230872 0.229576 0.228154 0.226157 0.224517 0.223304 
0.22731 0.230261 0.233086 0.235606 0.237738 0.239649 0.241365 0.242905 0.244287 
0.245412 0.246075 0.246441 0.24655 0.246317 0.245805 0.245237 0.244669 0.24392 
0.243156 0.242431 0.241707 0.240732 0.239525 0.238132 0.236471 0.234752 0.232928 
0.23084 0.22841 0.226509 0.227907 0.23049 0.232935 0.235188 0.237185 0.238964 
0.240537 0.241907 0.243075 0.244007 0.244628 0.24499 0.245119 0.245008 0.244693 
0.244267 0.243773 0.243162 0.242486 0.241761 0.240968 0.240013 0.238882 0.237588 
0.236095 0.234465 0.232681 0.230697 0.228526 0.226539 0.228426 0.230796 0.233065 
0.235166 0.237058 0.23874 0.240214 0.241482 0.24254 0.243375 0.243971 0.244343 
0.244506 0.244474 0.244276 0.243953 0.243529 0.243005 0.242394 0.241697 0.240898 
0.239961 0.238872 0.237623 0.236206 0.234627 0.232879 0.230947 0.228849 0.22665 
0.22871 0.231046 0.233241 0.235255 0.237066 0.23867 0.240068 0.241263 0.242254 
0.243038 0.243615 0.243995 0.244191 0.244216 0.244093 0.243843 0.243483 0.243019 
0.242455 0.241791 0.241014 0.240106 0.239052 0.237841 0.236465 0.23492 0.233197 
0.231288 0.229193 0.226908 0.228879 0.231208 0.233356 0.235307 0.237051 0.238589 
0.239923 0.241057 0.241996 0.242742 0.243301 0.243684 0.243901 0.243966 0.243894 
0.243699 0.243392 0.242978 0.242459 0.24183 0.241085 0.240208 0.239188 0.238013 
0.236672 0.235156 0.233456 0.231562 0.229467 0.227162 0.228987 0.231312 0.233429 
0.235335 0.237029 0.238515 0.239798 0.240884 0.241782 0.242498 0.243042 0.243425 
0.243656 0.243749 0.243713 0.243559 0.243295 0.242923 0.242443 0.241851 0.241138 
0.240294 0.239306 0.238163 0.236853 0.235363 0.233683 0.231802 0.229711 0.227402 
0.229056 0.231377 0.233473 0.235348 0.237004 0.238449 0.239692 0.240742 0.241608 
0.242301 0.242832 0.243213 0.243453 0.243564 0.243555 0.243433 0.243203 0.242866 
0.242421 0.241862 0.241182 0.240369 0.239413 0.238299 0.237016 0.235549 0.233887 
0.232019 0.229933 0.227625 0.229099 0.231416 0.233498 0.235349 0.236976 0.238391 
0.239602 0.240622 0.241463 0.242138 0.242658 0.243035 0.243281 0.243405 0.243415 
0.243317 0.243115 0.242808 0.242393 0.241865 0.241215 0.240433 0.239505 0.238419 
0.237161 0.235716 0.234071 0.232215 0.230136 0.227829 0.229125 0.231439 0.233509 
0.235342 0.236948 0.238338 0.239525 0.240521 0.241342 0.242001 0.242511 0.242885 
0.243133 0.243266 0.24329 0.243212 0.243032 0.24275 0.242362 0.241862 0.24124 
0.240486 0.239585 0.238525 0.23729 0.235865 0.234237 0.232392 0.230321 0.228015 
0.229142 0.231454 0.233515 0.235334 0.236922 0.238292 0.239458 0.240435 0.241239 
0.241884 0.242385 0.242754 0.243003 0.243142 0.243177 0.243113 0.242952 0.242691 
0.242327 0.241852 0.241257 0.240528 0.239653 0.238617 0.237404 0.235999 0.234387 
0.232554 0.230489 0.228185 0.229157 0.231466 0.233518 0.235325 0.236899 0.238252 
0.239401 0.240361 0.24115 0.241782 0.242274 0.242638 0.242886 0.243029 0.243072 
0.243021 0.242875 0.242633 0.242289 0.241837 0.241266 0.240562 0.239711 0.238698 
0.237506 0.23612 0.234523 0.232702 0.230644 0.228341 0.229173 0.231479 0.233525 
0.235321 0.236881 0.238219 0.239352 0.240297 0.241071 0.241691 0.242174 0.242532 
0.242779 0.242923 0.242973 0.242931 0.242798 0.242572 0.242248 0.241817 0.241267 
0.240587 0.239759 0.238768 0.237597 0.236229 0.234648 0.232838 0.230787 0.228486 
0.229194 0.231497 0.233536 0.235322 0.236869 0.238193 0.23931 0.24024 0.241 
0.241609 0.242081 0.242433 0.242677 0.242822 0.242876 0.242842 0.24272 0.242509 
0.242202 0.241791 0.241262 0.240604 0.239799 0.23883 0.237679 0.236329 0.234763 
0.232964 0.230921 0.228622 0.229222 0.231522 0.233554 0.23533 0.236864 0.238174 
0.239276 0.240191 0.240936 0.241532 0.241994 0.242338 0.242577 0.242722 0.242778 
0.242751 0.24264 0.242442 0.242151 0.241758 0.241251 0.240614 0.23983 0.238883 
0.237753 0.236422 0.234871 0.233084 0.231048 0.228752 0.229261 0.231557 0.233581 
0.235347 0.236868 0.238162 0.239248 0.240146 0.240877 0.241458 0.241909 0.242245 
0.242478 0.242621 0.242679 0.242657 0.242555 0.24237 0.242094 0.241719 0.241232 
0.240616 0.239855 0.23893 0.237821 0.236508 0.234973 0.233199 0.231171 0.228877 
0.22931 0.231602 0.233619 0.235373 0.23688 0.238157 0.239226 0.240107 0.240821 
0.241387 0.241825 0.24215 0.242378 0.242517 0.242576 0.242558 0.242464 0.242291 
0.242031 0.241673 0.241206 0.240612 0.239874 0.238971 0.237884 0.236591 0.235072 
0.233311 0.231291 0.229001 0.229372 0.23166 0.233668 0.235409 0.2369 0.23816 
0.23921 0.240072 0.240767 0.241316 0.241739 0.242054 0.242273 0.242408 0.242467 
0.242453 0.242366 0.242204 0.241959 0.24162 0.241173 0.240601 0.239887 0.239008 
0.237943 0.236671 0.23517 0.233423 0.231412 0.229126 0.229447 0.231731 0.233729 
0.235457 0.23693 0.23817 0.239199 0.240039 0.240714 0.241244 0.241651 0.241953 
0.242162 0.242292 0.24235 0.242339 0.24226 0.242109 0.241878 0.241558 0.241132 
0.240584 0.239894 0.23904 0.237999 0.23675 0.235269 0.233537 0.231536 0.229254 
0.229538 0.231816 0.233804 0.235516 0.23697 0.238188 0.239193 0.240009 0.24066 
0.24117 0.241559 0.241846 0.242045 0.242168 0.242223 0.242215 0.242143 0.242003 
0.241788 0.241486 0.241083 0.24056 0.239896 0.239069 0.238055 0.23683 0.23537 
0.233654 0.231665 0.229388 0.229645 0.231917 0.233893 0.235587 0.237019 0.238212 
0.239191 0.23998 0.240606 0.241092 0.241461 0.241731 0.241918 0.242034 0.242086 
0.24208 0.242014 0.241886 0.241687 0.241405 0.241026 0.240529 0.239894 0.239096 
0.23811 0.236912 0.235475 0.233778 0.231801 0.22953 0.22977 0.232036 0.233998 
0.235672 0.237079 0.238244 0.239192 0.239951 0.240549 0.241009 0.241355 0.241607 
0.24178 0.241888 0.241937 0.241932 0.241873 0.241756 0.241574 0.241313 0.240959 
0.240491 0.239886 0.23912 0.238167 0.236998 0.235588 0.233911 0.231949 0.229683 
0.229916 0.232175 0.234121 0.235772 0.23715 0.238282 0.239197 0.239923 0.240488 
0.240919 0.241241 0.241472 0.24163 0.241728 0.241772 0.241769 0.241717 0.241613 
0.241447 0.241209 0.240882 0.240444 0.239874 0.239143 0.238225 0.237089 0.235708 
0.234056 0.232109 0.229851 0.230085 0.232335 0.234263 0.235887 0.237233 0.238328 
0.239204 0.239892 0.240422 0.240821 0.241115 0.241324 0.241466 0.241552 0.241592 
0.24159 0.241544 0.241453 0.241306 0.241092 0.240793 0.24039 0.239856 0.239165 
0.238286 0.237188 0.235841 0.234215 0.232287 0.230037 0.230281 0.232521 0.234427 
0.23602 0.237328 0.238381 0.239213 0.239858 0.240348 0.240712 0.240976 0.241161 
0.241285 0.24136 0.241394 0.241392 0.241354 0.241275 0.241148 0.240959 0.240692 
0.240325 0.239832 0.239185 0.23835 0.237295 0.235986 0.234392 0.232486 0.230246 
0.230508 0.232735 0.234616 0.236173 0.237436 0.23844 0.239223 0.239819 0.240265 
0.24059 0.240821 0.24098 0.241085 0.241147 0.241175 0.241174 0.241143 0.241078 
0.240971 0.240809 0.240576 0.240248 0.239801 0.239202 0.238419 0.237413 0.236149 
0.234591 0.23271 0.230483 0.230771 0.232984 0.234834 0.236347 0.237558 0.238506 
0.239231 0.239773 0.240169 0.240452 0.240648 0.240779 0.240863 0.240913 0.240935 
0.240934 0.24091 0.240859 0.240773 0.240639 0.240442 0.240158 0.239761 0.239217 
0.238491 0.237542 0.236331 0.234817 0.232967 0.230754 0.23108 0.233274 0.235087 
0.236547 0.237696 0.238577 0.239236 0.239717 0.240058 0.240294 0.240452 0.240555 
0.240618 0.240654 0.24067 0.240669 0.240652 0.240615 0.24055 0.240447 0.240287 
0.24005 0.239708 0.239226 0.238567 0.237685 0.236536 0.235075 0.233263 0.231068 
0.231444 0.233615 0.23538 0.236776 0.237849 0.238651 0.239234 0.239645 0.239926 
0.240113 0.240232 0.240304 0.240347 0.240369 0.240379 0.240378 0.240368 0.240345 
0.240302 0.240228 0.240108 0.239921 0.239639 0.239228 0.238644 0.237842 0.236768 
0.235373 0.233607 0.231436 0.231877 0.234019 0.235723 0.237036 0.238016 0.238724 
0.239219 0.239552 0.239768 0.239903 0.239981 0.240025 0.240047 0.240056 0.24006 
0.240059 0.240055 0.240045 0.240023 0.239979 0.2399 0.239765 0.239548 0.239215 
0.23872 0.238012 0.237032 0.235718 0.234013 0.231872 0.232401 0.234501 0.236124 
0.237331 0.238194 0.238789 0.239182 0.239429 0.239577 0.239658 0.239698 0.239713 
0.239716 0.239715 0.239713 0.239713 0.239714 0.239716 0.239712 0.239696 0.239656 
0.239575 0.239427 0.239179 0.238786 0.238191 0.237328 0.236121 0.234498 0.232398 
0.233045 0.235084 0.236593 0.237656 0.238372 0.238831 0.239109 0.239265 0.239343 
0.239374 0.239378 0.23937 0.239358 0.239348 0.239342 0.239342 0.239348 0.239358 
0.23937 0.239378 0.239373 0.239342 0.239264 0.239107 0.23883 0.238371 0.237654 
0.236591 0.235082 0.233043 0.233864 0.235806 0.23714 0.238002 0.238528 0.238827 
0.23898 0.239044 0.239058 0.239045 0.239022 0.238998 0.238976 0.23896 0.238952 
0.238952 0.23896 0.238976 0.238997 0.239022 0.239045 0.239057 0.239043 0.238979 
0.238826 0.238528 0.238002 0.237139 0.235805 0.233863 0.234973 0.236716 0.237751 
0.238319 0.238601 0.23872 0.23875 0.238735 0.238701 0.238663 0.238627 0.238597 
0.238574 0.238559 0.238551 0.238551 0.238559 0.238574 0.238597 0.238627 0.238663 
0.238701 0.238735 0.238749 0.23872 0.238601 0.238318 0.237751 0.236716 0.234972 
0.236346 0.237616 0.238195 0.238427 0.238496 0.238492 0.23846 0.23842 0.238383 
0.238351 0.238325 0.238306 0.238292 0.238283 0.238279 0.238279 0.238283 0.238292 
0.238306 0.238325 0.238351 0.238383 0.23842 0.23846 0.238492 0.238496 0.238427 
0.238195 0.237616 0.236346 0.112752 0.11352 0.113599 0.113581 0.113368 0.113079 
0.113132 0.114094 0.115147 0.116049 0.116781 0.117076 0.116815 0.116049 0.114903 
0.113569 0.112331 0.11148 0.110818 0.110311 0.110368 0.110698 0.111046 0.111342 
0.111404 0.111507 0.111854 0.11241 0.112977 0.112523 0.12438 0.125069 0.125147 
0.125175 0.125037 0.124796 0.124804 0.125788 0.126947 0.127728 0.128179 0.128411 
0.128266 0.127607 0.126586 0.125447 0.12441 0.123705 0.123116 0.122599 0.122533 
0.122862 0.123257 0.123542 0.123569 0.123589 0.123826 0.124291 0.124776 0.124334 
0.121978 0.122399 0.122418 0.122477 0.122396 0.122195 0.122256 0.123209 0.124285 
0.124771 0.124723 0.12458 0.124338 0.123786 0.123026 0.122274 0.121676 0.121337 
0.120957 0.120499 0.120378 0.120751 0.121276 0.121634 0.121657 0.12159 0.121696 
0.121981 0.122281 0.121964 0.116335 0.116711 0.116703 0.116771 0.116665 0.116486 
0.116631 0.117437 0.118271 0.118494 0.118047 0.117535 0.117187 0.116779 0.116262 
0.115804 0.115581 0.115643 0.115555 0.115233 0.115077 0.115468 0.116122 0.116564 
0.116559 0.116408 0.116435 0.116559 0.116674 0.116327 0.112077 0.112496 0.112501 
0.112595 0.112447 0.11228 0.112476 0.113074 0.113584 0.113583 0.112851 0.112049 
0.111609 0.111326 0.111017 0.110781 0.110838 0.111251 0.111441 0.111285 0.111127 
0.111526 0.112259 0.112762 0.112731 0.112522 0.112514 0.11249 0.112423 0.111979 
0.108633 0.109228 0.109257 0.10939 0.109245 0.109117 0.109324 0.109689 0.109828 
0.109596 0.108678 0.107669 0.107112 0.106894 0.106792 0.106811 0.107095 0.107742 
0.10812 0.108146 0.10806 0.108448 0.109153 0.109666 0.109659 0.109448 0.10942 
0.109234 0.108969 0.108276 0.102007 0.103 0.103015 0.103143 0.103068 0.103031 
0.103216 0.103387 0.103194 0.102717 0.101808 0.100716 0.0999949 0.0997358 0.0998283 
0.100129 0.10056 0.101222 0.101645 0.101826 0.101933 0.102267 0.102797 0.103253 
0.10336 0.103225 0.103155 0.10285 0.102434 0.101268 0.0917234 0.0930318 0.092913 
0.0929265 0.0929914 0.0930953 0.0932202 0.0932846 0.0929309 0.0921537 0.0915441 0.0905517 
0.0896204 0.0891961 0.0894222 0.089955 0.0904173 0.0908032 0.0911694 0.0913992 0.0918555 
0.0920841 0.0923185 0.09264 0.0929452 0.092958 0.0927364 0.0924908 0.0921328 0.0905481 
0.0915673 0.0923497 0.0931004 0.0938186 0.0945033 0.095153 0.0957657 0.0963392 0.0968709 
0.097358 0.0977978 0.0981873 0.0985238 0.0988046 0.0990273 0.0991897 0.0992899 0.0993263 
0.0992975 0.0992027 0.099041 0.098812 0.0985155 0.0981513 0.0977193 0.0972197 0.0966523 
0.0960172 0.0953139 0.0945422 0.0914536 0.0922383 0.0929931 0.0937173 0.0944097 0.0950688 
0.0956922 0.0962774 0.0968214 0.0973213 0.0977738 0.0981757 0.0985241 0.0988159 0.0990486 
0.0992198 0.0993274 0.0993699 0.0993459 0.0992546 0.0990953 0.0988677 0.0985716 0.0982072 
0.0977747 0.0972741 0.0967058 0.0960697 0.0953658 0.0945939 0.0913701 0.0921563 0.0929143 
0.0936435 0.0943424 0.0950093 0.0956416 0.0962364 0.0967906 0.0973008 0.0977634 0.0981751 
0.0985326 0.0988326 0.0990724 0.0992495 0.0993619 0.0994078 0.0993861 0.099296 0.0991368 
0.0989085 0.0986111 0.0982449 0.0978103 0.0973077 0.0967373 0.0960996 0.0953945 0.0946219 
0.0912667 0.0920544 0.0928163 0.0935515 0.0942584 0.0949349 0.0955781 0.0961848 0.0967516 
0.0972745 0.0977498 0.0981736 0.0985423 0.0988525 0.0991012 0.0992857 0.099404 0.0994544 
0.0994356 0.0993468 0.0991879 0.0989588 0.0986598 0.0982914 0.0978543 0.0973491 0.0967764 
0.0961366 0.09543 0.0946565 0.09116 0.0919495 0.0927155 0.0934572 0.0941727 0.0948595 
0.0955145 0.096134 0.0967141 0.0972506 0.0977391 0.0981756 0.098556 0.0988767 0.0991344 
0.0993263 0.0994503 0.0995046 0.0994881 0.0994002 0.0992407 0.0990099 0.0987084 0.098337 
0.0978966 0.0973881 0.0968124 0.0961701 0.0954616 0.094687 0.0910456 0.0918369 0.0926076 
0.0933564 0.0940813 0.0947795 0.0954474 0.0960809 0.0966756 0.0972269 0.0977299 0.0981801 
0.0985731 0.098905 0.0991723 0.0993719 0.0995017 0.0995599 0.0995454 0.0994578 0.0992972 
0.099064 0.0987593 0.098384 0.0979395 0.097427 0.0968476 0.0962023 0.0954917 0.0947159 
0.0909249 0.0917184 0.092494 0.0932507 0.0939858 0.0946964 0.0953783 0.0960269 0.0966374 
0.0972045 0.0977231 0.0981879 0.0985943 0.098938 0.0992151 0.0994227 0.0995581 0.0996199 
0.099607 0.0995191 0.0993566 0.0991202 0.0988113 0.0984313 0.0979818 0.0974644 0.0968807 
0.0962319 0.0955187 0.0947415 0.0907974 0.0915931 0.0923743 0.0931394 0.0938858 0.0946097 
0.0953068 0.0959719 0.0965994 0.0971836 0.0977188 0.0981993 0.0986199 0.098976 0.0992634 
0.099479 0.0996201 0.0996851 0.0996733 0.0995844 0.0994192 0.0991787 0.0988646 0.0984788 
0.0980233 0.0975003 0.0969115 0.0962584 0.0955423 0.0947635 0.0906628 0.091461 0.0922482 
0.0930226 0.0937811 0.0945196 0.0952331 0.0959159 0.0965618 0.0971645 0.0977175 0.0982146 
0.0986503 0.0990194 0.0993175 0.0995412 0.0996879 0.0997559 0.0997445 0.0996539 0.099485 
0.0992393 0.0989189 0.0985262 0.0980637 0.097534 0.0969393 0.0962814 0.0955619 0.0947813 
0.0905208 0.0913217 0.0921154 0.0928999 0.0936716 0.0944259 0.0951573 0.0958592 0.0965249 
0.0971473 0.0977194 0.0982344 0.098686 0.0990688 0.099378 0.0996099 0.099762 0.0998325 
0.099821 0.0997277 0.0995541 0.0993021 0.0989743 0.0985735 0.0981028 0.0975653 0.0969637 
0.0963004 0.0955769 0.0947944 0.0903709 0.0911748 0.0919757 0.0927711 0.0935572 0.0943286 
0.0950792 0.0958018 0.0964889 0.0971325 0.097725 0.0982589 0.0987274 0.0991245 0.0994452 
0.0996856 0.0998428 0.0999154 0.099903 0.0998062 0.0996268 0.0993672 0.0990306 0.0986203 
0.0981402 0.0975938 0.0969844 0.0963148 0.0955869 0.0948021 0.0902128 0.09102 0.0918286 
0.092636 0.0934375 0.0942275 0.0949989 0.0957438 0.0964538 0.0971202 0.0977345 0.0982885 
0.0987749 0.0991871 0.0995197 0.0997685 0.0999308 0.100005 0.0999909 0.0998896 0.0997032 
0.0994347 0.0990878 0.0986667 0.0981758 0.0976192 0.0970009 0.0963241 0.0955913 0.094804 
0.090046 0.0908568 0.0916738 0.0924941 0.0933124 0.0941225 0.0949163 0.0956852 0.0964199 
0.0971107 0.0977483 0.0983238 0.0988291 0.0992571 0.099602 0.0998594 0.100026 0.100102 
0.100085 0.0999781 0.0997834 0.0995045 0.0991459 0.0987125 0.0982093 0.0976412 0.0970128 
0.0963279 0.0955896 0.0947995 0.08987 0.0906847 0.0915109 0.0923451 0.0931817 0.0940134 
0.0948315 0.0956262 0.0963873 0.0971043 0.0977668 0.0983651 0.0988903 0.0993349 0.0996926 
0.0999587 0.10013 0.100206 0.100186 0.100072 0.0998677 0.0995769 0.099205 0.0987575 
0.0982403 0.0976593 0.0970196 0.0963257 0.0955812 0.094788 0.0896843 0.0905033 0.0913395 
0.0921888 0.0930451 0.0939002 0.0947443 0.0955669 0.0963564 0.0971013 0.0977903 0.0984128 
0.0989591 0.0994211 0.0997919 0.100067 0.100243 0.100318 0.100294 0.100172 0.0999563 
0.099652 0.0992649 0.0988015 0.0982688 0.0976732 0.0970208 0.0963169 0.0955654 0.0947688 