# vtk DataFile Version 5.1
vtk output
ASCII
DATASET UNSTRUCTURED_GRID
POINTS 616 double
-10.1 1.299999997 1.2778182068e-08 -9.899999997 1.299999997 6.2261822364e-09 -9.899999997 1.5 1.3077440144e-06 
-9.699999994 1.299999997 5.4658446658e-09 -9.699999994 1.5 1.1368626929e-06 -9.4999999911 1.299999997 5.1165987003e-09 
-9.4999999911 1.5 1.0737182947e-06 -9.2999999881 1.299999997 4.9692605586e-09 -9.2999999881 1.5 1.0511701021e-06 
-9.0999999851 1.299999997 4.9456136963e-09 -9.0999999851 1.5 1.0498367828e-06 -8.8999999821 1.299999997 5.0383821559e-09 
-8.8999999821 1.5 1.062340516e-06 -8.6999999791 1.299999997 5.1220556685e-09 -8.6999999791 1.5 1.0816945633e-06 
-8.4999999762 1.299999997 5.2684843155e-09 -8.4999999762 1.5 1.1117933809e-06 -8.2999999732 1.299999997 5.4303743724e-09 
-8.2999999732 1.5 1.1496074421e-06 -8.0999999702 1.299999997 5.6240967439e-09 -8.0999999702 1.5 1.1947211078e-06 
-7.8999999672 1.299999997 5.9533338259e-09 -7.8999999672 1.5 1.2472471553e-06 -7.6999999642 1.299999997 6.2216347629e-09 
-7.6999999642 1.5 1.3075584775e-06 -7.4999999613 1.299999997 6.5072160993e-09 -7.4999999613 1.5 1.376303544e-06 
-7.2999999583 1.299999997 6.9437735561e-09 -7.2999999583 1.5 1.4542872577e-06 -7.0999999553 1.299999997 7.2793771011e-09 
-7.0999999553 1.5 1.5310176877e-06 -6.8999999523 1.299999997 7.7741422189e-09 -6.8999999523 1.5 1.6298988612e-06 
-6.6999999493 1.299999997 8.2820950098e-09 -6.6999999493 1.5 1.7424297312e-06 -6.4999999464 1.299999997 8.8873637338e-09 
-6.4999999464 1.5 1.8710959466e-06 -6.2999999434 1.299999997 9.5785797072e-09 -6.2999999434 1.5 2.0190702799e-06 
-6.0999999404 1.299999997 1.041758857e-08 -6.0999999404 1.5 2.1905323138e-06 -5.8999999374 1.299999997 1.1353913365e-08 
-5.8999999374 1.5 2.3911131848e-06 -5.6999999344 1.299999997 1.2469863364e-08 -5.6999999344 1.5 2.6284953947e-06 
-5.4999999315 1.299999997 1.3644021024e-08 -5.4999999315 1.5 2.8747879242e-06 -5.2999999285 1.299999997 1.5277700882e-08 
-5.2999999285 1.5 3.2142240798e-06 -5.0999999255 1.299999997 1.7282909326e-08 -5.0999999255 1.5 3.6374453884e-06 
-4.8999999225 1.299999997 1.9851322364e-08 -4.8999999225 1.5 4.1802341002e-06 -4.6999999195 1.299999997 2.329807991e-08 
-4.6999999195 1.5 4.9014583965e-06 -4.4999999166 1.299999997 2.8066333257e-08 -4.4999999166 1.5 5.9025178416e-06 
-4.2999999136 1.299999997 3.499350143e-08 -4.2999999136 1.5 7.3554924711e-06 -4.0999999106 1.299999997 4.4736008675e-08 
-4.0999999106 1.5 9.4343968158e-06 -3.8999999076 1.299999997 4.4859586268e-08 -3.8999999076 1.5 1.0337053027e-05 
-3.6999999046 1.299999997 -7.5729772107e-06 -3.6999999046 1.5 -0.0001466779504 -3.4999999017 1.299999997 0.12612855434 
-3.4999999017 1.5 0.10799186677 -3.2999998987 1.299999997 0.28606125712 -3.2999998987 1.5 0.2491863817 
-3.0999998957 1.299999997 0.37464648485 -3.0999998957 1.5 0.38305571675 -2.8999998927 1.299999997 0.39244168997 
-2.8999998927 1.5 0.42139530182 -2.6999998897 1.299999997 0.36719620228 -2.6999998897 1.5 0.40130838752 
-2.4999998868 1.299999997 0.33923625946 -2.4999998868 1.5 0.37819835544 -2.2999998838 1.299999997 0.32892349362 
-2.2999998838 1.5 0.34524029493 -2.0999998808 1.299999997 0.30701631308 -2.0999998808 1.5 0.31636568904 
-1.8999998778 1.299999997 0.2799410224 -1.8999998778 1.5 0.32469910383 -1.6999998748 1.299999997 0.26640835404 
-1.6999998748 1.5 0.29974764585 -1.4999998719 1.299999997 0.23330229521 -1.4999998719 1.5 0.27182561159 
-1.2999998689 1.299999997 0.20528158545 -1.2999998689 1.5 0.24734319746 -1.0999998659 1.299999997 0.17295633256 
-1.0999998659 1.5 0.2166607976 -0.89999986291 1.299999997 0.15012282133 -0.89999986291 1.5 0.18729224801 
-0.69999985993 1.299999997 0.11436620355 -0.69999985993 1.5 0.16458268464 -0.49999985695 1.299999997 0.090280137956 
-0.49999985695 1.5 0.14333041012 -0.29999985397 1.299999997 0.079202197492 -0.29999985397 1.5 0.12865009904 
-0.099999850988 1.299999997 0.083886146545 -0.099999850988 1.5 0.13605388999 0.10000015199 1.299999997 0.097786292434 
0.10000015199 1.5 0.15684975684 0.30000015497 1.299999997 0.12854489684 0.30000015497 1.5 0.19896392524 
0.50000015795 1.299999997 0.19978386164 0.50000015795 1.5 0.27765759826 0.70000016093 1.299999997 0.276691854 
0.70000016093 1.5 0.2799937129 0.90000016391 1.299999997 0.28372615576 0.90000016391 1.5 0.28347417712 
1.1000001669 1.299999997 0.28700006008 1.1000001669 1.5 0.28701299429 1.3000001699 1.299999997 0.28700006008 
1.3000001699 1.5 0.28701177239 1.5000001729 1.299999997 0.28700006008 1.5000001729 1.5 0.28701028228 
1.7000001758 1.299999997 0.28700003028 1.7000001758 1.5 0.28700885177 1.9000001788 1.299999997 0.28700003028 
1.9000001788 1.5 0.28700762987 2.1000001818 1.299999997 0.28700003028 2.1000001818 1.5 0.28700661659 
2.3000001848 1.299999997 0.28700003028 2.3000001848 1.5 0.28700578213 2.5000001878 1.299999997 0.28700003028 
2.5000001878 1.5 0.28700518608 2.7000001907 1.299999997 0.28700003028 2.7000001907 1.5 0.28700461984 
2.9000001937 1.299999997 0.28700003028 2.9000001937 1.5 0.287004143 3.1000001967 1.299999997 0.28700003028 
3.1000001967 1.5 0.28700372577 3.3000001997 1.299999997 0.28700003028 3.3000001997 1.5 0.28700339794 
3.5000002027 1.299999997 0.28700000048 3.5000002027 1.5 0.28700312972 3.7000002056 1.299999997 0.28700000048 
3.7000002056 1.5 0.2870028913 3.9000002086 1.299999997 0.28700000048 3.9000002086 1.5 0.28700268269 
4.1000002116 1.299999997 0.28700000048 4.1000002116 1.5 0.28700253367 4.3000002146 1.299999997 0.28700000048 
4.3000002146 1.5 0.28700241446 4.5000002176 1.299999997 0.28700000048 4.5000002176 1.5 0.28700232506 
4.7000002205 1.299999997 0.28700000048 4.7000002205 1.5 0.28700229526 4.9000002235 1.299999997 0.28700000048 
4.9000002235 1.5 0.28700241446 5.08 1.299999997 0.28700017929 -9.899999997 1.099999994 5.7989391067e-11 
-10.1 1.099999994 1.9679282648e-09 -9.699999994 1.099999994 2.888556061e-11 -9.4999999911 1.099999994 -7.4942274608e-12 
-9.2999999881 1.099999994 1.6007195569e-12 -9.0999999851 1.099999994 8.8912210927e-11 -8.8999999821 1.099999994 2.5247581803e-11 
-8.6999999791 1.099999994 4.8894444049e-11 -8.4999999762 1.099999994 4.434697054e-11 -8.2999999732 1.099999994 1.7062129487e-11 
-8.0999999702 1.099999994 5.8898885769e-11 -7.8999999672 1.099999994 2.4338087101e-11 -7.6999999642 1.099999994 2.3428592399e-11 
-7.4999999613 1.099999994 4.0708991733e-11 -7.2999999583 1.099999994 3.3433034119e-11 -7.0999999553 1.099999994 4.3437475838e-11 
-6.8999999523 1.099999994 4.0708991733e-11 -6.6999999493 1.099999994 7.9817263909e-11 -6.4999999464 1.099999994 4.434697054e-11 
-6.2999999434 1.099999994 8.5728979471e-11 -6.0999999404 1.099999994 5.5715654312e-11 -5.8999999374 1.099999994 8.0726758611e-11 
-5.6999999344 1.099999994 8.1636253313e-11 -5.4999999315 1.099999994 6.7084338085e-11 -5.2999999285 1.099999994 8.8457463576e-11 
-5.0999999255 1.099999994 1.030093788e-10 -4.8999999225 1.099999994 1.1210432582e-10 -4.6999999195 1.099999994 1.2574674635e-10 
-4.4999999166 1.099999994 1.4279977201e-10 -4.2999999136 1.099999994 1.8145329683e-10 -4.0999999106 1.099999994 2.3283974748e-10 
-3.8999999076 1.099999994 1.9589152522e-10 -3.6999999046 1.099999994 -8.2457509052e-06 -3.4999999017 1.099999994 0.14279773831 
-3.2999998987 1.099999994 0.31201174855 -3.0999998957 1.099999994 0.36408799887 -2.8999998927 1.099999994 0.35792157054 
-2.6999998897 1.099999994 0.33521261811 -2.4999998868 1.099999994 0.32014036179 -2.2999998838 1.099999994 0.30518078804 
-2.0999998808 1.099999994 0.28633624315 -1.8999998778 1.099999994 0.25885534286 -1.6999998748 1.099999994 0.23259860277 
-1.4999998719 1.099999994 0.19522224367 -1.2999998689 1.099999994 0.15535268188 -1.0999998659 1.099999994 0.1097323671 
-0.89999986291 1.099999994 0.071620844305 -0.69999985993 1.099999994 0.032459154725 -0.49999985695 1.099999994 0.0040431562811 
-0.29999985397 1.099999994 0.00079407443991 -0.099999850988 1.099999994 -0.00084579060785 0.10000015199 1.099999994 0.011664403602 
0.30000015497 1.099999994 0.059835709631 0.50000015795 1.099999994 0.11321287602 0.70000016093 1.099999994 0.22431245446 
0.90000016391 1.099999994 0.28369376063 1.1000001669 1.099999994 0.28700000048 1.3000001699 1.099999994 0.28700000048 
1.5000001729 1.099999994 0.28700000048 1.7000001758 1.099999994 0.28700000048 1.9000001788 1.099999994 0.28700000048 
2.1000001818 1.099999994 0.28700000048 2.3000001848 1.099999994 0.28700000048 2.5000001878 1.099999994 0.28700000048 
2.7000001907 1.099999994 0.28700000048 2.9000001937 1.099999994 0.28700000048 3.1000001967 1.099999994 0.28700000048 
3.3000001997 1.099999994 0.28700000048 3.5000002027 1.099999994 0.28700000048 3.7000002056 1.099999994 0.28700000048 
3.9000002086 1.099999994 0.28700000048 4.1000002116 1.099999994 0.28700000048 4.3000002146 1.099999994 0.28700000048 
4.5000002176 1.099999994 0.28700000048 4.7000002205 1.099999994 0.28700000048 4.9000002235 1.099999994 0.28700000048 
5.08 1.099999994 0.28700017929 -9.899999997 0.89999999106 3.9799497031e-11 -10.1 0.89999999106 1.5259138397e-09 
-9.699999994 0.89999999106 2.7066571207e-11 -9.4999999911 0.89999999106 -4.5693004935e-11 -9.2999999881 0.89999999106 6.7084338085e-11 
-9.0999999851 0.89999999106 1.0695666575e-11 -8.8999999821 0.89999999106 3.5597969017e-11 -8.6999999791 0.89999999106 7.0576877675e-12 
-8.4999999762 0.89999999106 -6.5847327591e-12 -8.2999999732 0.89999999106 2.5563551276e-11 -8.0999999702 0.89999999106 -3.2050584409e-11 
-7.8999999672 0.89999999106 2.9795055312e-11 -7.6999999642 0.89999999106 -4.6602499637e-11 -7.4999999613 0.89999999106 4.0708991733e-11 
-7.2999999583 0.89999999106 4.434697054e-11 -7.0999999553 0.89999999106 -1.204170097e-11 -6.8999999523 0.89999999106 1.8881118891e-11 
-6.6999999493 0.89999999106 -3.4015013028e-12 -6.4999999464 0.89999999106 1.2514655978e-11 -6.2999999434 0.89999999106 9.331424522e-12 
-6.0999999404 0.89999999106 1.8881118891e-11 -5.8999999374 0.89999999106 2.2064350347e-11 -5.6999999344 0.89999999106 -5.6752380573e-12 
[...]
CELL_DATA 532
FIELD FieldData 4
Water_Depth_m 1 532 float
0.640001 0.64 0.64 0.639999 0.639999 0.639998 0.639997 0.639996 0.639996 
0.639995 0.639994 0.639993 0.639992 0.639991 0.639991 0.639991 0.639991 0.639991 
0.639992 0.639994 0.639998 0.640004 0.640014 0.64003 0.640054 0.640092 0.640151 
0.64024 0.640372 0.640563 0.640824 0.641261 0.640908 0.538357 0.391532 0.258717 
0.262118 0.290383 0.305166 0.348464 0.411477 0.368969 0.399658 0.428252 0.459648 
0.48544 0.51684 0.544218 0.554275 0.555087 0.55354 0.540481 0.508437 0.443689 
0.366181 0.359129 0.355626 0.355821 0.355968 0.356078 0.356161 0.356227 0.356279 
0.356324 0.356362 0.356397 0.356429 0.356459 0.356489 0.356517 0.356545 0.356573 
0.3566 0.35662 0.356643 0.34914 0.64 0.64 0.64 0.639999 0.639999 
0.639998 0.639997 0.639996 0.639996 0.639995 0.639994 0.639993 0.639992 0.639991 
0.639991 0.63999 0.63999 0.63999 0.639991 0.639992 0.639995 0.64 0.640008 
0.64002 0.64004 0.640072 0.64012 0.640195 0.64031 0.640482 0.640736 0.641078 
0.640522 0.520496 0.355985 0.27484 0.296409 0.314435 0.331242 0.350605 0.378342 
0.403645 0.440647 0.478338 0.524082 0.55522 0.604596 0.634819 0.641241 0.642902 
0.642458 0.622893 0.580846 0.536946 0.423903 0.358937 0.355662 0.355859 0.355998 
0.3561 0.356177 0.356237 0.356286 0.356328 0.356365 0.356398 0.35643 0.35646 
0.356489 0.356517 0.356545 0.356573 0.3566 0.356619 0.356643 0.349139 0.64 
0.64 0.64 0.639999 0.639999 0.639998 0.639997 0.639996 0.639995 0.639994 
0.639993 0.639992 0.639991 0.639991 0.63999 0.639989 0.639989 0.639988 0.639989 
0.639989 0.639991 0.639994 0.639999 0.640006 0.640018 0.640038 0.64007 0.640121 
0.640201 0.640329 0.640536 0.640846 0.640365 0.504657 0.329067 0.27725 0.301452 
0.320704 0.333007 0.351591 0.388739 0.415986 0.454961 0.505064 0.553607 0.592499 
0.634142 0.640147 0.640886 0.6419 0.643258 0.644682 0.611991 0.581371 0.451985 
0.35903 0.355774 0.35595 0.356066 0.356149 0.35621 0.35626 0.356301 0.356338 
0.356371 0.356403 0.356433 0.356462 0.35649 0.356518 0.356546 0.356573 0.3566 
0.356619 0.356643 0.349139 0.64 0.64 0.639999 0.639998 0.639997 0.639997 
0.639996 0.639995 0.639994 0.639993 0.639992 0.639991 0.63999 0.639989 0.639988 
0.639987 0.639986 0.639986 0.639985 0.639985 0.639985 0.639986 0.639988 0.639991 
0.639997 0.640006 0.640021 0.640045 0.640085 0.640154 0.640272 0.64046 0.640183 
0.511396 0.343624 0.277541 0.300587 0.321038 0.331107 0.350154 0.382884 0.415861 
0.455306 0.504984 0.553952 0.590123 0.619718 0.639519 0.641247 0.640169 0.644224 
0.645028 0.636105 0.583228 0.450852 0.358676 0.355985 0.356095 0.356165 0.356216 
0.356256 0.35629 0.356322 0.356351 0.35638 0.356409 0.356437 0.356464 0.356492 
0.356519 0.356546 0.356574 0.356601 0.356619 0.356643 0.349139 0.64 0.639999 
0.639998 0.639997 0.639996 0.639995 0.639994 0.639993 0.639992 0.639991 0.63999 
0.639989 0.639988 0.639987 0.639986 0.639985 0.639984 0.639983 0.639982 0.639981 
0.639981 0.63998 0.63998 0.639981 0.639982 0.639984 0.639987 0.639994 0.640005 
0.640024 0.640057 0.6401 0.640061 0.541658 0.402692 0.295623 0.277334 0.297763 
0.3011 0.320592 0.351538 0.387271 0.42924 0.47182 0.518805 0.543733 0.560491 
0.588582 0.604731 0.594027 0.643364 0.646428 0.63744 0.564751 0.447951 0.359179 
0.356263 0.356274 0.356282 0.356292 0.356306 0.356323 0.356343 0.356366 0.35639 
0.356415 0.356441 0.356467 0.356494 0.35652 0.356547 0.356574 0.356601 0.35662 
0.356643 0.349139 0.64 0.639999 0.639997 0.639996 0.639995 0.639994 0.639993 
0.639992 0.639991 0.63999 0.639989 0.639988 0.639987 0.639986 0.639985 0.639984 
0.639983 0.639982 0.639981 0.63998 0.639979 0.639978 0.639977 0.639977 0.639976 
0.639974 0.639973 0.639971 0.639967 0.639961 0.639949 0.639918 0.639964 0.585662 
0.474427 0.366212 0.281618 0.246083 0.256588 0.263112 0.280497 0.296662 0.333245 
0.362731 0.394798 0.408774 0.422843 0.466611 0.469853 0.465186 0.583498 0.623155 
0.605237 0.511404 0.428026 0.360065 0.35654 0.356448 0.356393 0.356363 0.356351 
0.356353 0.356363 0.356379 0.356398 0.356421 0.356444 0.35647 0.356495 0.356522 
0.356548 0.356575 0.356602 0.35662 0.356643 0.349139 0.64 0.639999 0.639998 
0.639997 0.639996 0.639995 0.639994 0.639993 0.639992 0.639991 0.63999 0.639989 
0.639988 0.639987 0.639986 0.639985 0.639984 0.639983 0.639982 0.639981 0.63998 
0.639979 0.639978 0.639977 0.639976 0.639974 0.639971 0.639966 0.639958 0.639945 
0.63992 0.639874 0.645577 0.645044 0.598158 0.521155 0.454714 0.41069 0.364283 
0.346478 0.353637 0.356521 0.353146 0.355346 0.355553 0.355705 0.353102 0.360446 
0.366047 0.372966 0.505191 0.53372 0.519657 0.434903 0.389691 0.360751 0.356816 
0.35662 0.3565 0.356431 0.356395 0.356381 0.356381 0.356391 0.356406 0.356426 
0.356448 0.356472 0.356497 0.356523 0.356549 0.356576 0.356603 0.356619 0.356642 
0.349141 
Water_Elev_m 1 532 float
0.64 0.64 0.64 0.639999 0.639999 0.639998 0.639997 0.639996 0.639995 
0.639994 0.639993 0.639993 0.639992 0.639991 0.639991 0.63999 0.63999 0.63999 
0.639992 0.639994 0.639997 0.640004 0.640013 0.640029 0.640053 0.640091 0.64015 
0.640238 0.64037 0.640561 0.640822 0.641136 0.640319 0.637697 0.632717 0.631944 
0.634695 0.636293 0.637335 0.638565 0.638261 0.63897 0.639482 0.639976 0.640384 
0.640702 0.640935 0.641275 0.641583 0.641889 0.642363 0.642803 0.642749 0.642213 
0.642217 0.642375 0.642622 0.642818 0.642965 0.643076 0.64316 0.643225 0.643278 
0.643322 0.643361 0.643396 0.643428 0.643458 0.643488 0.643517 0.643545 0.643572 
0.6436 0.643619 0.643642 0.636139 0.64 0.64 0.64 0.639999 0.639999 
0.639998 0.639997 0.639996 0.639996 0.639995 0.639994 0.639993 0.639992 0.639991 
0.639991 0.63999 0.63999 0.63999 0.639991 0.639992 0.639995 0.64 0.640008 
0.64002 0.64004 0.640071 0.64012 0.640195 0.64031 0.640482 0.640736 0.641072 
0.640189 0.637166 0.633458 0.633164 0.635223 0.636527 0.637202 0.638042 0.63858 
0.638967 0.639523 0.639981 0.640362 0.640507 0.64085 0.641035 0.641224 0.641485 
0.641949 0.642828 0.643124 0.642411 0.642077 0.642379 0.642662 0.642859 0.642998 
0.6431 0.643177 0.643237 0.643286 0.643328 0.643365 0.643398 0.64343 0.64346 
0.643489 0.643517 0.643545 0.643573 0.6436 0.643619 0.643643 0.636139 0.64 
0.64 0.64 0.639999 0.639999 0.639998 0.639997 0.639996 0.639995 0.639994 
0.639993 0.639992 0.639991 0.639991 0.63999 0.639989 0.639989 0.639988 0.639989 
0.639989 0.639991 0.639994 0.639999 0.640006 0.640018 0.640038 0.64007 0.640121 
0.640201 0.640329 0.640536 0.640839 0.640015 0.637133 0.634518 0.634451 0.635851 
0.63678 0.637204 0.637866 0.638635 0.639038 0.639559 0.639991 0.64029 0.640328 
0.640493 0.640501 0.640486 0.640603 0.641081 0.64269 0.64354 0.642921 0.64205 
0.642485 0.642774 0.64295 0.643066 0.643149 0.64321 0.64326 0.643301 0.643338 
0.643372 0.643403 0.643433 0.643462 0.64349 0.643518 0.643546 0.643573 0.6436 
0.643619 0.643643 0.636139 0.64 0.64 0.639999 0.639998 0.639997 0.639997 
0.639996 0.639995 0.639994 0.639993 0.639992 0.639991 0.63999 0.639989 0.639988 
0.639987 0.639986 0.639986 0.639985 0.639985 0.639985 0.639986 0.639988 0.639991 
0.639997 0.640006 0.640021 0.640045 0.640085 0.640154 0.640272 0.640453 0.639835 
0.637874 0.635869 0.635368 0.636381 0.637114 0.637254 0.63789 0.638639 0.639144 
0.639582 0.639913 0.640062 0.639982 0.639943 0.63989 0.639701 0.639459 0.639096 
0.642814 0.644003 0.643457 0.642493 0.642792 0.642985 0.643095 0.643165 0.643216 
0.643256 0.64329 0.643322 0.643351 0.64338 0.643409 0.643437 0.643464 0.643492 
0.643519 0.643546 0.643574 0.643601 0.643619 0.643643 0.636139 0.64 0.639999 
0.639998 0.639997 0.639996 0.639995 0.639994 0.639993 0.639992 0.639991 0.63999 
0.639989 0.639988 0.639987 0.639986 0.639985 0.639984 0.639983 0.639982 0.639981 
0.639981 0.63998 0.63998 0.639981 0.639982 0.639984 0.639987 0.639994 0.640005 
0.640024 0.640057 0.640093 0.639733 0.638775 0.637384 0.636255 0.636712 0.637261 
0.637454 0.63796 0.638687 0.639116 0.639532 0.639736 0.639738 0.639557 0.639428 
0.639378 0.63936 0.639346 0.646209 0.645448 0.645034 0.644197 0.643212 0.643233 
0.643263 0.643274 0.643282 0.643292 0.643306 0.643323 0.643343 0.643366 0.64339 
0.643415 0.643441 0.643467 0.643494 0.64352 0.643547 0.643574 0.643601 0.64362 
0.643643 0.636139 0.64 0.639999 0.639997 0.639996 0.639995 0.639994 0.639993 
0.639992 0.639991 0.63999 0.639989 0.639988 0.639987 0.639986 0.639985 0.639984 
0.639983 0.639982 0.639981 0.63998 0.639979 0.639978 0.639977 0.639977 0.639976 
0.639974 0.639973 0.639971 0.639967 0.639961 0.639949 0.639914 0.639729 0.639291 
0.638449 0.637439 0.637097 0.637184 0.637743 0.638081 0.638571 0.638997 0.639415 
0.639546 0.639489 0.639405 0.639379 0.639377 0.639369 0.639362 0.646339 0.646143 
0.645573 0.644768 0.643911 0.643677 0.64354 0.643448 0.643393 0.643363 0.643351 
0.643353 0.643363 0.643379 0.643398 0.643421 0.643445 0.64347 0.643495 0.643522 
0.643548 0.643575 0.643602 0.64362 0.643643 0.636139 0.64 0.639999 0.639998 
0.639997 0.639996 0.639995 0.639994 0.639993 0.639992 0.639991 0.63999 0.639988 
0.639987 0.639986 0.639985 0.639984 0.639983 0.639982 0.639981 0.63998 0.639979 
0.639978 0.639977 0.639976 0.639974 0.639972 0.639969 0.639963 0.639955 0.63994 
0.639912 0.639856 0.639729 0.639445 0.638923 0.638261 0.63785 0.637677 0.637827 
0.638166 0.638547 0.638928 0.639254 0.639409 0.639413 0.63939 0.639383 0.639382 
0.639379 0.639375 0.646724 0.646629 0.646094 0.645379 0.644646 0.644121 0.643812 
0.643616 0.643497 0.643429 0.643394 0.64338 0.643381 0.64339 0.643406 0.643426 
0.643448 0.643472 0.643497 0.643523 0.643549 0.643576 0.643603 0.643619 0.643642 
0.636139 
Velocity_cell_m_p_s 3 532 double
-0.26730254292 -0.00019242717826 -0 -0.26768654585 -0.00019163812976 -0 -0.26807278395 -0.00019451783737 -0 
-0.26846551895 -0.00019810172671 -0 -0.26886513829 -0.00020129675977 -0 -0.26927050948 -0.00020382202638 -0 
-0.26968035102 -0.00020569683693 -0 -0.27009341121 -0.00020702231268 -0 -0.27050870657 -0.00020789608243 -0 
-0.27092537284 -0.00020838739874 -0 -0.27134266496 -0.0002085200249 -0 -0.27175983787 -0.00020827502885 -0 
-0.2721760571 -0.0002075756347 -0 -0.27259024978 -0.00020627536287 -0 -0.27300095558 -0.00020413196762 -0 
-0.27340605855 -0.00020076410146 -0 -0.27380242944 -0.00019559463544 -0 -0.27418541908 -0.00018768993323 -0 
-0.27454814315 -0.00017569505144 -0 -0.27488011122 -0.00015752806212 -0 -0.27516555786 -0.0001300162985 -0 
-0.2753804028 -8.8231718109e-05 -0 -0.2754881978 -2.497377136e-05 -0 -0.27542981505 7.4808755016e-05 -0 
-0.27511146665 0.00023016275372 -0 -0.27439072728 0.00046998049947 -0 -0.2730551064 0.00083433487453 -0 
-0.27079448104 0.001379764406 -0 -0.26717031002 0.002177325543 -0 -0.26160660386 0.0032945314888 -0 
-0.25346636772 0.0047322036698 -0 -0.24245116115 0.0062154643238 -0 -0.25277867913 0.0066765183583 -0 
-0.31654590368 0.0066684312187 -0 -0.43109190464 0.018301535398 -0 -0.51696544886 0.014412938617 -0 
-0.50869941711 0.00086159131024 -0 -0.46562108397 -0.0050208065659 -0 -0.43938067555 -0.0087352879345 -0 
-0.41480365396 -0.011330519803 -0 -0.40475165844 -0.0011455102358 -0 -0.40145486593 -0.0061472021043 -0 
-0.38784024119 -0.0059797181748 -0 -0.37628164887 -0.0067951958627 -0 -0.36558094621 -0.0069286567159 -0 
-0.35677143931 -0.0077651259489 -0 -0.35004690289 -0.0044826837257 -0 -0.34279796481 -0.0035110057797 -0 
-0.33427450061 -0.00029283130425 -0 -0.32596543431 0.005042324774 -0 -0.31484946609 0.010457444936 -0 
-0.30136364698 0.017108621076 -0 -0.29636269808 0.016151016578 -0 -0.30758428574 0.0074171386659 -0 
-0.31764376163 0.0015274293255 -0 -0.31611359119 0.0034509759862 -0 -0.31080672145 0.0032734989654 -0 
-0.30481129885 0.0025738070253 -0 -0.30025139451 0.00187638239 -0 -0.29697597027 0.0013173138723 -0 
-0.29469096661 0.00090547511354 -0 -0.29312202334 0.00061451632064 -0 -0.2920537591 0.00041370629333 -0 
-0.29132893682 0.00027703991509 -0 -0.29083698988 0.0001848374377 -0 -0.29050177336 0.00012297288049 -0 
-0.29027155042 8.1586651504e-05 -0 -0.29011154175 5.3940610087e-05 -0 -0.28999850154 3.544446372e-05 -0 
-0.28991690278 2.3020400477e-05 -0 -0.28985652328 1.4612956875e-05 -0 -0.2898105979 8.8822771431e-06 -0 
-0.28977778554 4.9912982831e-06 -0 -0.28975296021 2.4647561077e-06 -0 -0.28973993659 9.8459190667e-07 -0 
-0.41044312716 6.4880015316e-07 -0 -0.26810365915 -0.00058136752341 -0 -0.26850351691 -0.00058665499091 -0 
-0.26891672611 -0.00059884152142 -0 -0.26934152842 -0.00061107968213 -0 -0.26977530122 -0.00062124198303 -0 
-0.27021560073 -0.00062903814251 -0 -0.27066072822 -0.00063476746436 -0 -0.27110922337 -0.00063883094117 -0 
-0.27156016231 -0.00064156064764 -0 -0.27201271057 -0.00064317299984 -0 -0.27246621251 -0.00064374966314 -0 
-0.27292001247 -0.00064323842525 -0 -0.2733733356 -0.0006414236268 -0 -0.27382528782 -0.00063788838452 -0 
-0.27427461743 -0.00063194072573 -0 -0.2747195065 -0.00062249123584 -0 -0.27515727282 -0.00060788152041 -0 
-0.27558392286 -0.00058549782261 -0 -0.27599355578 -0.00055142719066 -0 -0.27637732029 -0.00049976480659 -0 
-0.27672180533 -0.00042150029913 -0 -0.27700683475 -0.00030278897611 -0 -0.27720162272 -0.00012279505609 -0 
-0.27726194263 0.00015515551786 -0 -0.27712166309 0.00058403803268 -0 -0.27667483687 0.0012458307901 -0 
-0.27575567365 0.0022553484887 -0 -0.27410855889 0.0037796038669 -0 -0.27134028077 0.0060424790718 -0 
-0.26685398817 0.009299566038 -0 -0.25976324081 0.013726301491 -0 -0.24890016019 0.018966054544 -0 
-0.26002758741 0.02353968285 -0 -0.3323559463 0.025381844491 -0 -0.43724358082 0.040602788329 -0 
-0.49831444025 0.027913238853 -0 -0.48913544416 -9.8066549981e-05 -0 -0.45525601506 -0.013800748624 -0 
-0.43498966098 -0.020973192528 -0 -0.41957741976 -0.024871183559 -0 -0.40458238125 -0.01217955444 -0 
-0.39435279369 -0.018143260852 -0 -0.3835234344 -0.019263498485 -0 -0.37127792835 -0.020891403779 -0 
-0.36075344682 -0.021686650813 -0 -0.35426965356 -0.022112810984 -0 -0.34809339046 -0.017404181883 -0 
-0.34121003747 -0.012342623435 -0 -0.33650812507 -0.0021393636707 -0 -0.33056077361 0.014033923857 -0 
-0.32034641504 0.031958106905 -0 -0.3005541563 0.050801895559 -0 -0.28389662504 0.048886135221 -0 
-0.29505944252 0.029607649893 -0 -0.31586059928 0.01084532775 -0 -0.31792500615 0.012438588776 -0 
-0.30998468399 0.010346375406 -0 -0.30345249176 0.0077330274507 -0 -0.29901486635 0.005501370877 -0 
-0.29601433873 0.0038112218026 -0 -0.29399237037 0.0025993522722 -0 -0.29263231158 0.0017556307139 -0 
-0.2917176187 0.0011782986112 -0 -0.29110121727 0.00078746222425 -0 -0.29068410397 0.00052468065405 -0 
-0.29039981961 0.00034875218989 -0 -0.29020392895 0.00023124285508 -0 -0.29006689787 0.00015280712978 -0 
-0.28996914625 0.00010035662126 -0 -0.28989768028 6.5108128183e-05 -0 -0.2898440361 4.1208419134e-05 -0 
-0.28980267048 2.4840579499e-05 -0 -0.28977307677 1.3639454664e-05 -0 -0.28975069523 6.3176703406e-06 -0 
-0.28973954916 2.1950497739e-06 -0 -0.41044402122 1.2840993122e-06 -0 -0.24570326507 -0.00092199497158 -0 
-0.24601204693 -0.00095472135581 -0 -0.24635224044 -0.00098411901854 -0 -0.24670919776 -0.001007303712 -0 
-0.24707555771 -0.0010246663587 -0 -0.2474475801 -0.0010373756522 -0 -0.24782326818 -0.0010465666419 -0 
-0.24820154905 -0.0010531223379 -0 -0.24858173728 -0.0010576527566 -0 -0.24896338582 -0.0010605208809 -0 
-0.24934612215 -0.0010618692031 -0 -0.24972960353 -0.0010616262443 -0 -0.25011345744 -0.0010594819905 -0 
-0.25049716234 -0.0010548303835 -0 -0.25088012218 -0.0010466625681 -0 -0.2512613833 -0.0010333907558 -0 
-0.25163957477 -0.0010125827976 -0 -0.25201255083 -0.0009804997826 -0 -0.25237727165 -0.00093144987477 -0 
-0.25272917747 -0.00085685570957 -0 -0.25306144357 -0.0007437459426 -0 -0.25336402655 -0.00057242333423 -0 
-0.25362232327 -0.00031305287848 -0 -0.253816396 8.0105739471e-05 -0 -0.25392377377 0.00067457818659 -0 
-0.25391173363 0.0015866752947 -0 -0.25371646881 0.0029861566145 -0 -0.25321727991 0.0051292870194 -0 
-0.25218743086 0.008390462026 -0 -0.25018471479 0.013289249502 -0 -0.24632120132 0.02047884278 -0 
-0.23881925642 0.030462143943 -0 -0.25272333622 0.043742962182 -0 -0.32965129614 0.050358131528 -0 
-0.4263266325 0.044570054859 -0 -0.47069498897 0.018906937912 -0 -0.46247109771 -0.0065238480456 -0 
-0.43828204274 -0.020426053554 -0 -0.42392468452 -0.029126180336 -0 -0.41254413128 -0.031496189535 -0 
-0.39604791999 -0.030195403844 -0 -0.38169389963 -0.031451053917 -0 -0.3695615232 -0.035344149917 -0 
-0.35617735982 -0.038093008101 -0 -0.34495562315 -0.0398517102 -0 -0.33908829093 -0.038073383272 -0 
-0.33531597257 -0.033528301865 -0 -0.33245167136 -0.021662978455 -0 -0.33292263746 -0.0053633702919 -0 
-0.33245524764 0.018630817533 -0 -0.32500341535 0.049298558384 -0 -0.2981710434 0.095372267067 -0 
-0.26612341404 0.082811996341 -0 -0.27043834329 0.058520108461 -0 -0.30401143432 0.0332814008 -0 
-0.31586313248 0.024983482435 -0 -0.30621799827 0.017956651747 -0 -0.30004608631 0.012546596117 -0 
-0.29636901617 0.0086118793115 -0 -0.29408985376 0.0058435513638 -0 -0.2926402688 0.0039349421859 -0 
-0.29170146585 0.0026361588389 -0 -0.29108473659 0.0017598563572 -0 -0.290674299 0.0011719402391 -0 
-0.29039752483 0.00077897985466 -0 -0.29020795226 0.00051693391288 -0 -0.29007554054 0.0003423737071 -0 
-0.28998082876 0.00022603923571 -0 -0.28991115093 0.00014829763677 -0 -0.28985825181 9.5999981568e-05 -0 
-0.28981682658 6.0381207732e-05 -0 -0.2897836864 3.5710756492e-05 -0 -0.28975996375 1.8485696273e-05 -0 
-0.28974226117 6.9717129918e-06 -0 -0.28973516822 7.5624092233e-07 -0 -0.41044279933 -1.2862993515e-07 -0 
-0.19663605094 -0.0010874770815 -0 -0.19669577479 -0.0011577015975 -0 -0.19677805901 -0.001203499618 -0 
-0.19686724246 -0.0012337350054 -0 -0.19695727527 -0.0012541447068 -0 -0.19704611599 -0.0012681788066 -0 
-0.19713319838 -0.0012779303361 -0 -0.19721849263 -0.0012846832396 -0 -0.19730208814 -0.0012892145896 -0 
-0.19738411903 -0.0012919543078 -0 -0.19746470451 -0.0012930660741 -0 -0.19754393399 -0.0012924725888 -0 
-0.19762195647 -0.0012898390414 -0 -0.19769889116 -0.0012845131569 -0 -0.19777496159 -0.0012754116906 -0 
-0.19785045087 -0.0012608340476 -0 -0.19792576134 -0.0012381693814 -0 -0.19800159335 -0.0012034457177 -0 
-0.19807900488 -0.0011506357696 -0 -0.19815963507 -0.0010706329485 -0 -0.1982460767 -0.00094974570675 -0 
-0.19834251702 -0.00076737412019 -0 -0.19845561683 -0.00049270380987 -0 -0.1985964179 -8.0353514932e-05 -0 
-0.19878327847 0.00053221429698 -0 -0.19905085862 0.001459574094 -0 -0.19944649935 0.0028907554224 -0 
-0.20001828671 0.0051169353537 -0 -0.20079874992 0.0085961744189 -0 -0.20173603296 0.014058930799 -0 
-0.20248550177 0.022688845173 -0 -0.20177654922 0.03639940545 -0 -0.22132666409 0.058373805135 -0 
-0.29372522235 0.069488674402 -0 -0.38299021125 0.046271126717 -0 -0.4299287498 0.0054257367738 -0 
-0.42862272263 -0.018122961745 -0 -0.40881177783 -0.029795881361 -0 -0.39800792933 -0.037130147219 -0 
-0.38766780496 -0.042152561247 -0 -0.36821433902 -0.045438170433 -0 -0.34830385447 -0.048333402723 -0 
-0.33026731014 -0.052608266473 -0 -0.31227946281 -0.056545969099 -0 -0.2961204946 -0.057730529457 -0 
-0.28499290347 -0.053523603827 -0 -0.27648943663 -0.045249395072 -0 -0.2681543231 -0.029401952401 -0 
-0.26647916436 -0.009165616706 -0 -0.27556154132 0.012214153074 -0 -0.30586415529 0.029718080536 -0 
-0.27906343341 0.17444057763 -0 -0.2242295146 0.11506716907 -0 -0.23905572295 0.082742385566 -0 
-0.2824318409 0.05670016259 -0 -0.30299034715 0.036286067218 -0 -0.29754680395 0.023958355188 -0 
-0.29412573576 0.015916032717 -0 -0.29231902957 0.010583711788 -0 -0.29133412242 0.0070347962901 -0 
-0.29077681899 0.0046723913401 -0 -0.29044780135 0.0031013905536 -0 -0.29024431109 0.0020574743394 -0 
-0.29011213779 0.0013642510166 -0 -0.29002177715 0.00090412865393 -0 -0.28995656967 0.00059876579326 -0 
-0.289906919 0.000396014133 -0 -0.2898670733 0.00026116654044 -0 -0.28983363509 0.00017110812769 -0 
-0.28980445862 0.00011041793914 -0 -0.2897785306 6.8766297773e-05 -0 -0.28975564241 3.9234098949e-05 -0 