# vtk DataFile Version 5.1
vtk output
ASCII
DATASET UNSTRUCTURED_GRID
POINTS 10043 double
-10.1 1.4499999993 -6.5110748437e-07 -10.049999999 1.4499999993 -4.742580586e-07 -10.049999999 1.5 1.7679119537e-06 
-9.9999999985 1.4499999993 -4.035521215e-07 -9.9999999985 1.5 1.5303246528e-06 -9.9499999978 1.4499999993 -3.6664664549e-07 
-9.9499999978 1.5 1.3956757812e-06 -9.899999997 1.4499999993 -3.4299978324e-07 -9.899999997 1.5 1.3077440144e-06 
-9.8499999963 1.4499999993 -3.2643606573e-07 -9.8499999963 1.5 1.2454199805e-06 -9.7999999955 1.4499999993 -3.1417971513e-07 
-9.7999999955 1.5 1.1994832221e-06 -9.7499999948 1.4499999993 -3.0487740332e-07 -9.7499999948 1.5 1.1643348898e-06 
-9.699999994 1.4499999993 -2.9767784326e-07 -9.699999994 1.5 1.1368626929e-06 -9.6499999933 1.4499999993 -2.9196075957e-07 
-9.6499999933 1.5 1.1152694697e-06 -9.5999999925 1.4499999993 -2.8744966585e-07 -9.5999999925 1.5 1.0980974139e-06 
-9.5499999918 1.4499999993 -2.8384442885e-07 -9.5499999918 1.5 1.084492169e-06 -9.4999999911 1.4499999993 -2.8108138395e-07 
-9.4999999911 1.5 1.0737182947e-06 -9.4499999903 1.4499999993 -2.7887858778e-07 -9.4499999903 1.5 1.065432798e-06 
-9.3999999896 1.4499999993 -2.7716146178e-07 -9.3999999896 1.5 1.0590517832e-06 -9.3499999888 1.4499999993 -2.7598093766e-07 
-9.3499999888 1.5 1.0543515145e-06 -9.2999999881 1.4499999993 -2.7515329748e-07 -9.2999999881 1.5 1.0511701021e-06 
-9.2499999873 1.4499999993 -2.7466580832e-07 -9.2499999873 1.5 1.0493238278e-06 -9.1999999866 1.4499999993 -2.7437295103e-07 
-9.1999999866 1.5 1.0485216535e-06 -9.1499999858 1.4499999993 -2.7442388273e-07 -9.1499999858 1.5 1.048774493e-06 
-9.0999999851 1.4499999993 -2.7480405151e-07 -9.0999999851 1.5 1.0498367828e-06 -9.0499999844 1.4499999993 -2.7528062674e-07 
-9.0499999844 1.5 1.0519904663e-06 -8.9999999836 1.4499999993 -2.7602095543e-07 -8.9999999836 1.5 1.0547626061e-06 
-8.9499999829 1.4499999993 -2.7695955396e-07 -8.9499999829 1.5 1.0582023151e-06 -8.8999999821 1.4499999993 -2.7799637792e-07 
-8.8999999821 1.5 1.062340516e-06 -8.8499999814 1.4499999993 -2.7923329071e-07 -8.8499999814 1.5 1.0671772088e-06 
-8.7999999806 1.4499999993 -2.8065028346e-07 -8.7999999806 1.5 1.0724395452e-06 -8.7499999799 1.4499999993 -2.8220915738e-07 
-8.7499999799 1.5 1.078471314e-06 -8.6999999791 1.4499999993 -2.8303134059e-07 -8.6999999791 1.5 1.0816945633e-06 
-8.6499999784 1.4499999993 -2.8484123504e-07 -8.6499999784 1.5 1.0884848507e-06 -8.5999999776 1.4499999993 -2.8673844099e-07 
-8.5999999776 1.5 1.0957735412e-06 -8.5499999769 1.4499999993 -2.8880026548e-07 -8.5499999769 1.5 1.1035178886e-06 
-8.4999999762 1.4499999993 -2.9096577236e-07 -8.4999999762 1.5 1.1117933809e-06 -8.4499999754 1.4499999993 -2.9324132811e-07 
-8.4499999754 1.5 1.1205809187e-06 -8.3999999747 1.4499999993 -2.9567786441e-07 -8.3999999747 1.5 1.1297249785e-06 
-8.3499999739 1.4499999993 -2.9820262171e-07 -8.3499999739 1.5 1.1394256489e-06 -8.2999999732 1.4499999993 -3.0080650504e-07 
-8.2999999732 1.5 1.1496074421e-06 -8.2499999724 1.4499999993 -3.0361775316e-07 -8.2499999724 1.5 1.1601848655e-06 
-8.1999999717 1.4499999993 -3.0648629945e-07 -8.1999999717 1.5 1.1712370451e-06 -8.1499999709 1.4499999993 -3.0947944651e-07 
-8.1499999709 1.5 1.1827439721e-06 -8.0999999702 1.4499999993 -3.1259810385e-07 -8.0999999702 1.5 1.1947211078e-06 
-8.0499999695 1.4499999993 -3.1591321203e-07 -8.0499999695 1.5 1.2071129731e-06 -7.9999999687 1.4499999993 -3.19266519e-07 
-7.9999999687 1.5 1.2200305264e-06 -7.949999968 1.4499999993 -3.2275534068e-07 -7.949999968 1.5 1.2334264738e-06 
-7.8999999672 1.4499999993 -3.2638240555e-07 -7.8999999672 1.5 1.2472471553e-06 -7.8499999665 1.4499999993 -3.3012861422e-07 
-7.8499999665 1.5 1.2616045524e-06 -7.7999999657 1.4499999993 -3.3401397559e-07 -7.7999999657 1.5 1.2764364783e-06 
-7.749999965 1.4499999993 -3.3799665289e-07 -7.749999965 1.5 1.2917814729e-06 -7.6999999642 1.4499999993 -3.4214758671e-07 
-7.6999999642 1.5 1.3075584775e-06 -7.6499999635 1.4499999993 -3.4645495361e-07 -7.6499999635 1.5 1.3239803138e-06 
-7.5999999627 1.4499999993 -3.5084690353e-07 -7.5999999627 1.5 1.3407868664e-06 -7.549999962 1.4499999993 -3.5546349864e-07 
-7.549999962 1.5 1.3582655356e-06 -7.4999999613 1.4499999993 -3.6018104765e-07 -7.4999999613 1.5 1.376303544e-06 
-7.4499999605 1.4499999993 -3.6505957723e-07 -7.4499999605 1.5 1.3948972537e-06 -7.3999999598 1.4499999993 -3.7002450881e-07 
-7.3999999598 1.5 1.4140202893e-06 -7.349999959 1.4499999993 -3.7520044316e-07 -7.349999959 1.5 1.4338718302e-06 
-7.2999999583 1.4499999993 -3.8055918594e-07 -7.2999999583 1.5 1.4542872577e-06 -7.2499999575 1.4499999993 -3.8607890929e-07 
-7.2499999575 1.5 1.475349336e-06 -7.1999999568 1.4499999993 -3.9182418732e-07 -7.1999999568 1.5 1.4971562905e-06 
-7.149999956 1.4499999993 -3.9767678572e-07 -7.149999956 1.5 1.5195507785e-06 -7.0999999553 1.4499999993 -4.0066356632e-07 
-7.0999999553 1.5 1.5310176877e-06 -7.0499999546 1.4499999993 -4.0681811697e-07 -7.0499999546 1.5 1.5546127088e-06 
-6.9999999538 1.4499999993 -4.1320640776e-07 -6.9999999538 1.5 1.578864385e-06 -6.9499999531 1.4499999993 -4.1973021325e-07 
-6.9499999531 1.5 1.6039928141e-06 -6.8999999523 1.4499999993 -4.2655142352e-07 -6.8999999523 1.5 1.6298988612e-06 
-6.8499999516 1.4499999993 -4.3358090807e-07 -6.8499999516 1.5 1.6566116301e-06 -6.7999999508 1.4499999993 -4.4074954531e-07 
-6.7999999508 1.5 1.6843084722e-06 -6.7499999501 1.4499999993 -4.4825105761e-07 -6.7499999501 1.5 1.7128643321e-06 
-6.6999999493 1.4499999993 -4.5597448661e-07 -6.6999999493 1.5 1.7424297312e-06 -6.6499999486 1.4499999993 -4.6396485232e-07 
-6.6499999486 1.5 1.7729564661e-06 -6.5999999478 1.4499999993 -4.7226171773e-07 -6.5999999478 1.5 1.8045377601e-06 
-6.5499999471 1.4499999993 -4.8081324167e-07 -6.5499999471 1.5 1.837251375e-06 -6.4999999464 1.4499999993 -4.8966717259e-07 
-6.4999999464 1.5 1.8710959466e-06 -6.4499999456 1.4499999993 -4.9884579312e-07 -6.4499999456 1.5 1.906130592e-06 
-6.3999999449 1.4499999993 -5.0834864851e-07 -6.3999999449 1.5 1.9424294351e-06 -6.3499999441 1.4499999993 -5.1820029512e-07 
-6.3499999441 1.5 1.9800402242e-06 -6.2999999434 1.4499999993 -5.2840118769e-07 -6.2999999434 1.5 2.0190702799e-06 
-6.2499999426 1.4499999993 -5.3899043451e-07 -6.2499999426 1.5 2.0595432488e-06 -6.1999999419 1.4499999993 -5.5000532484e-07 
-6.1999999419 1.5 2.1015418952e-06 -6.1499999411 1.4499999993 -5.6141448113e-07 -6.1499999411 1.5 2.1452076453e-06 
-6.0999999404 1.4499999993 -5.7329748415e-07 -6.0999999404 1.5 2.1905323138e-06 -6.0499999397 1.4499999993 -5.8564523897e-07 
-6.0499999397 1.5 2.2376837023e-06 -5.9999999389 1.4499999993 -5.9848593992e-07 -5.9999999389 1.5 2.2867909593e-06 
-5.9499999382 1.4499999993 -6.1184687183e-07 -5.9499999382 1.5 2.3378609058e-06 -5.8999999374 1.4499999993 -6.2579488258e-07 
-5.8999999374 1.5 2.3911131848e-06 -5.8499999367 1.4499999993 -6.4033088165e-07 -5.8499999367 1.5 2.4466351078e-06 
-5.7999999359 1.4499999993 -6.5552035267e-07 -5.7999999359 1.5 2.5046058454e-06 -5.7499999352 1.4499999993 -6.7138785198e-07 
-5.7499999352 1.5 2.5651422675e-06 -5.6999999344 1.4499999993 -6.8796202868e-07 -5.6999999344 1.5 2.6284953947e-06 
-5.6499999337 1.4499999993 -7.052865385e-07 -5.6499999337 1.5 2.6947529932e-06 -5.5999999329 1.4499999993 -7.2349553193e-07 
-5.5999999329 1.5 2.7641897304e-06 -5.5499999322 1.4499999993 -7.3291926128e-07 -5.5499999322 1.5 2.8001702503e-06 
-5.4999999315 1.4499999993 -7.5245293374e-07 -5.4999999315 1.5 2.8747879242e-06 -5.4499999307 1.4499999993 -7.7296976997e-07 
-5.4499999307 1.5 2.9531895507e-06 -5.39999993 1.4499999993 -7.9458595792e-07 -5.39999993 1.5 3.0356638945e-06 
-5.3499999292 1.4499999993 -8.173299193e-07 -5.3499999292 1.5 3.1225681596e-06 -5.2999999285 1.4499999993 -8.413278465e-07 
-5.2999999285 1.5 3.2142240798e-06 -5.2499999277 1.4499999993 -8.6668546828e-07 -5.2499999277 1.5 3.3110475215e-06 
-5.199999927 1.4499999993 -8.9354170996e-07 -5.199999927 1.5 3.4135091482e-06 -5.1499999262 1.4499999993 -9.2199002211e-07 
-5.1499999262 1.5 3.5221303278e-06 -5.0999999255 1.4499999993 -9.5219229479e-07 -5.0999999255 1.5 3.6374453884e-06 
-5.0499999247 1.4499999993 -9.8431746665e-07 -5.0499999247 1.5 3.7601485019e-06 -4.999999924 1.4499999993 -1.0185947303e-06 
-4.999999924 1.5 3.8909161049e-06 -4.9499999233 1.4499999993 -1.0551846117e-06 -4.9499999233 1.5 4.0306472329e-06 
-4.8999999225 1.4499999993 -1.0943685993e-06 -4.8999999225 1.5 4.1802341002e-06 -4.8499999218 1.4499999993 -1.1364654711e-06 
-4.8499999218 1.5 4.3407562771e-06 -4.799999921 1.4499999993 -1.1817196537e-06 -4.799999921 1.5 4.5135006985e-06 
-4.7499999203 1.4499999993 -1.2305599739e-06 -4.7499999203 1.5 4.6998593461e-06 -4.6999999195 1.4499999993 -1.283410711e-06 
-4.6999999195 1.5 4.9014583965e-06 -4.6499999188 1.4499999993 -1.3407670849e-06 -4.6499999188 1.5 5.1202009672e-06 
-4.599999918 1.4499999993 -1.4031663795e-06 -4.599999918 1.5 5.3582434703e-06 -4.5499999173 1.4499999993 -1.4712975371e-06 
-4.5499999173 1.5 5.6180747379e-06 -4.4999999166 1.4499999993 -1.5458783764e-06 -4.4999999166 1.5 5.9025178416e-06 
-4.4499999158 1.4499999993 -1.627789743e-06 -4.4499999158 1.5 6.2148028519e-06 -4.3999999151 1.4499999993 -1.7179445422e-06 
-4.3999999151 1.5 6.5585095399e-06 -4.3499999143 1.4499999993 -1.8173378749e-06 -4.3499999143 1.5 6.9374714258e-06 
-4.2999999136 1.4499999993 -1.9269762106e-06 -4.2999999136 1.5 7.3554924711e-06 -4.2499999128 1.4499999993 -2.0476709324e-06 
-4.2499999128 1.5 7.8158309407e-06 -4.1999999121 1.4499999993 -2.1797031877e-06 -4.1999999121 1.5 8.3197892309e-06 
-4.1499999113 1.4499999993 -2.3220243293e-06 -4.1499999113 1.5 8.8640254035e-06 -4.0999999106 1.4499999993 -2.4705921078e-06 
-4.0999999106 1.5 9.4343968158e-06 -4.0499999098 1.4499999993 -2.6144921321e-06 -4.0499999098 1.5 9.9926628536e-06 
-3.9999999091 1.4499999993 -2.7268406484e-06 -3.9999999091 1.5 1.0444807231e-05 -3.9499999084 1.4499999993 -2.7532391869e-06 
[...]
CELL_DATA 9510
FIELD FieldData 4
Water_Depth_m 1 9510 float
0.640047 0.640136 0.640225 0.640312 0.640399 0.640487 0.640575 0.640663 0.640752 
0.640841 0.64093 0.641019 0.641108 0.641195 0.641282 0.641368 0.641452 0.641533 
0.641613 0.641689 0.641763 0.641834 0.6419 0.641964 0.642023 0.642078 0.64213 
0.642177 0.64222 0.642259 0.642294 0.642325 0.642353 0.642376 0.642395 0.642411 
0.642424 0.642432 0.642438 0.64244 0.642438 0.642434 0.642426 0.642414 0.642399 
0.642381 0.642359 0.642334 0.642304 0.642272 0.642235 0.642195 0.642151 0.642104 
0.642053 0.641999 0.641942 0.641883 0.64182 0.641756 0.64169 0.641624 0.641556 
0.641489 0.641422 0.641356 0.641292 0.64123 0.641171 0.641115 0.641062 0.641014 
0.64097 0.640931 0.640896 0.640866 0.640842 0.640823 0.640808 0.640799 0.640795 
0.640796 0.640802 0.640812 0.640827 0.640847 0.640871 0.640899 0.64093 0.640966 
0.641005 0.641047 0.641092 0.641139 0.641188 0.641238 0.641289 0.641341 0.641392 
0.641442 0.641492 0.641541 0.641589 0.641635 0.64168 0.641724 0.641767 0.641809 
0.641852 0.641895 0.641939 0.641984 0.642031 0.642082 0.642136 0.642194 0.642256 
0.642324 0.642398 0.642478 0.642563 0.642655 0.642752 0.642853 0.642958 0.643065 
0.643187 0.643402 0.643966 0.643515 0.625891 0.588242 0.542321 0.496328 0.457872 
0.426216 0.397356 0.367242 0.331455 0.292871 0.257654 0.230704 0.215714 0.212611 
0.218071 0.225285 0.232374 0.238738 0.246505 0.251716 0.255409 0.260724 0.266567 
0.274044 0.282999 0.292994 0.305152 0.315277 0.325705 0.338103 0.343866 0.343358 
0.337192 0.324896 0.321634 0.33013 0.336835 0.341723 0.34741 0.35379 0.360875 
0.367599 0.37381 0.380424 0.387267 0.394854 0.402346 0.409678 0.416546 0.424123 
0.433335 0.442809 0.449773 0.456083 0.462274 0.468715 0.475662 0.483079 0.488497 
0.493485 0.497522 0.503748 0.513112 0.516047 0.517362 0.519679 0.519933 0.517189 
0.479813 0.464451 0.451893 0.439338 0.427487 0.408276 0.385069 0.368073 0.364747 
0.36558 0.365499 0.364032 0.363953 0.363903 0.360387 0.356659 0.356675 0.356697 
0.356721 0.356747 0.356772 0.356796 0.356819 0.356841 0.356862 0.35688 0.356898 
0.356914 0.356928 0.356941 0.356953 0.356964 0.356974 0.356983 0.356991 0.356998 
0.357004 0.35701 0.357015 0.357019 0.357024 0.357027 0.357031 0.357034 0.357037 
0.35704 0.357042 0.357045 0.357047 0.357049 0.357051 0.357054 0.357056 0.357058 
0.35706 0.357062 0.357065 0.357067 0.35707 0.357072 0.357075 0.357077 0.35708 
0.357083 0.357086 0.35709 0.357093 0.357097 0.3571 0.357104 0.357108 0.357112 
0.357116 0.357121 0.357125 0.35713 0.357135 0.35714 0.357145 0.357151 0.357156 
0.357162 0.357168 0.357174 0.35718 0.357187 0.357193 0.3572 0.357207 0.357214 
0.357221 0.357228 0.357236 0.357243 0.357249 0.356639 0.350853 0.640046 0.640135 
0.640222 0.640308 0.640395 0.640482 0.64057 0.640658 0.640746 0.640835 0.640924 
0.641013 0.641102 0.64119 0.641277 0.641363 0.641447 0.641529 0.641609 0.641686 
0.64176 0.641831 0.641898 0.641962 0.642022 0.642077 0.642129 0.642177 0.642221 
0.64226 0.642296 0.642327 0.642355 0.642378 0.642398 0.642414 0.642426 0.642435 
0.642441 0.642443 0.642442 0.642437 0.642429 0.642418 0.642403 0.642384 0.642362 
0.642337 0.642307 0.642274 0.642237 0.642197 0.642153 0.642105 0.642054 0.641999 
0.641942 0.641882 0.641819 0.641754 0.641688 0.641621 0.641553 0.641485 0.641417 
0.641351 0.641287 0.641224 0.641165 0.641109 0.641056 0.641008 0.640964 0.640924 
0.64089 0.64086 0.640836 0.640817 0.640803 0.640794 0.64079 0.640791 0.640797 
0.640808 0.640823 0.640843 0.640867 0.640895 0.640927 0.640963 0.641002 0.641045 
0.64109 0.641137 0.641186 0.641237 0.641288 0.64134 0.641391 0.641442 0.641492 
0.641541 0.641589 0.641635 0.64168 0.641724 0.641766 0.641809 0.641851 0.641893 
0.641936 0.641981 0.642028 0.642078 0.642131 0.642188 0.64225 0.642318 0.642391 
0.64247 0.642556 0.642648 0.642745 0.642848 0.642954 0.643063 0.643171 0.643283 
0.643582 0.643294 0.625752 0.586698 0.536991 0.487292 0.447602 0.41624 0.388323 
0.358939 0.324292 0.286471 0.251971 0.227408 0.213562 0.219973 0.231072 0.238063 
0.241939 0.246199 0.250304 0.256273 0.263299 0.269439 0.274883 0.280752 0.28686 
0.29207 0.302447 0.313709 0.327099 0.349882 0.387916 0.413475 0.392299 0.342535 
0.33387 0.344085 0.350608 0.354726 0.356838 0.360203 0.365208 0.371577 0.380195 
0.388376 0.396016 0.404145 0.41037 0.417711 0.421907 0.427714 0.434711 0.442678 
0.452144 0.460392 0.463078 0.467343 0.469284 0.474 0.481568 0.4896 0.493276 
0.496695 0.503775 0.510165 0.510765 0.509858 0.512871 0.514506 0.474752 0.464276 
0.458566 0.450117 0.441825 0.42891 0.408924 0.38596 0.368002 0.367152 0.367038 
0.364981 0.363993 0.363934 0.360305 0.356655 0.356676 0.356698 0.356723 0.356749 
0.356774 0.356799 0.356822 0.356844 0.356864 0.356883 0.356901 0.356917 0.356931 
0.356944 0.356956 0.356967 0.356976 0.356985 0.356993 0.357 0.357006 0.357011 
0.357016 0.357021 0.357025 0.357029 0.357032 0.357035 0.357038 0.357041 0.357043 
0.357046 0.357048 0.35705 0.357052 0.357054 0.357056 0.357059 0.357061 0.357063 
0.357065 0.357068 0.35707 0.357073 0.357075 0.357078 0.357081 0.357084 0.357087 
0.35709 0.357094 0.357097 0.357101 0.357104 0.357108 0.357113 0.357117 0.357121 
0.357126 0.357131 0.357135 0.35714 0.357146 0.357151 0.357157 0.357162 0.357168 
0.357174 0.357181 0.357187 0.357193 0.3572 0.357207 0.357214 0.357221 0.357228 
0.357236 0.357244 0.357249 0.356639 0.350854 0.640044 0.640131 0.640216 0.640301 
0.640387 0.640473 0.640559 0.640647 0.640735 0.640824 0.640913 0.641002 0.641091 
0.641179 0.641267 0.641353 0.641438 0.64152 0.641601 0.641679 0.641754 0.641825 
0.641894 0.641958 0.642019 0.642076 0.642128 0.642177 0.642221 0.642262 0.642298 
0.64233 0.642358 0.642382 0.642403 0.642419 0.642432 0.642441 0.642447 0.642449 
0.642448 0.642444 0.642436 0.642424 0.642409 0.642391 0.642368 0.642342 0.642312 
0.642279 0.642241 0.6422 0.642155 0.642107 0.642055 0.641999 0.641941 0.641879 
0.641815 0.64175 0.641682 0.641614 0.641545 0.641476 0.641408 0.641341 0.641275 
0.641213 0.641153 0.641096 0.641043 0.640994 0.64095 0.640911 0.640876 0.640847 
0.640823 0.640804 0.640791 0.640782 0.640779 0.64078 0.640787 0.640798 0.640813 
0.640833 0.640858 0.640886 0.640918 0.640955 0.640994 0.641037 0.641083 0.641131 
0.641181 0.641232 0.641284 0.641337 0.641389 0.64144 0.64149 0.64154 0.641587 
0.641633 0.641678 0.641721 0.641764 0.641805 0.641846 0.641887 0.641929 0.641973 
0.642018 0.642066 0.642118 0.642173 0.642234 0.6423 0.642372 0.64245 0.642535 
0.642627 0.642726 0.64283 0.64294 0.643053 0.643171 0.643301 0.643706 0.643317 
0.625035 0.584171 0.531812 0.480276 0.438275 0.40636 0.379103 0.351054 0.317969 
0.281394 0.248337 0.224005 0.219121 0.2279 0.238655 0.245843 0.250071 0.254386 
0.259231 0.265565 0.273098 0.280497 0.287326 0.292038 0.294697 0.297078 0.300621 
0.309654 0.32645 0.348431 0.380025 0.397881 0.382187 0.343578 0.348173 0.356257 
0.363044 0.367111 0.367178 0.370494 0.377141 0.385587 0.395029 0.403921 0.411073 
0.417975 0.423399 0.428908 0.436296 0.443387 0.45076 0.459408 0.46704 0.473363 
0.474554 0.476039 0.483889 0.492934 0.499469 0.50542 0.513394 0.521743 0.525448 
0.527285 0.527432 0.530928 0.534545 0.534914 0.500459 0.486506 0.475767 0.466184 
0.45598 0.445349 0.430263 0.412755 0.38637 0.36822 0.367332 0.366175 0.364509 
0.364431 0.360257 0.356644 0.356664 0.356691 0.356719 0.356746 0.356773 0.356798 
0.356822 0.356844 0.356865 0.356884 0.356901 0.356917 0.356931 0.356944 0.356956 
0.356967 0.356976 0.356985 0.356992 0.356999 0.357005 0.357011 0.357016 0.35702 
0.357024 0.357028 0.357032 0.357035 0.357037 0.35704 0.357042 0.357045 0.357047 
0.357049 0.357051 0.357054 0.357056 0.357058 0.35706 0.357062 0.357065 0.357067 
0.357069 0.357072 0.357074 0.357077 0.35708 0.357083 0.357086 0.357089 0.357093 
0.357096 0.3571 0.357104 0.357108 0.357112 0.357116 0.357121 0.357125 0.35713 
0.357135 0.35714 0.357145 0.35715 0.357156 0.357162 0.357168 0.357174 0.35718 
0.357186 0.357193 0.357199 0.357206 0.357213 0.357221 0.357228 0.357235 0.357243 
0.357249 0.356639 0.350853 0.640042 0.640125 0.640208 0.640291 0.640375 0.640459 
0.640545 0.640632 0.64072 0.640809 0.640898 0.640987 0.641076 0.641165 0.641253 
0.64134 0.641425 0.641509 0.641591 0.64167 0.641746 0.641819 0.641888 0.641954 
0.642016 0.642074 0.642128 0.642178 0.642224 0.642265 0.642302 0.642336 0.642365 
0.64239 0.642411 0.642428 0.642441 0.642451 0.642457 0.64246 0.642459 0.642455 
0.642446 0.642435 0.64242 0.642401 0.642378 0.642352 0.642321 0.642287 0.642249 
0.642206 0.64216 0.64211 0.642057 0.642 0.64194 0.641876 0.641811 0.641743 
0.641674 0.641604 0.641533 0.641463 0.641393 0.641325 0.641258 0.641194 0.641134 
0.641076 0.641023 0.640974 0.640929 0.64089 0.640856 0.640827 0.640803 0.640785 
0.640772 0.640764 0.640761 0.640763 0.64077 0.640782 0.640798 0.640819 0.640844 
0.640873 0.640905 0.640942 0.640983 0.641026 0.641073 0.641122 0.641173 0.641226 
0.641279 0.641333 0.641386 0.641438 0.641489 0.641539 0.641587 0.641633 0.641678 
0.641721 0.641762 0.641802 0.641842 0.641882 0.641922 0.641963 0.642006 0.642051 
0.642101 0.642154 0.642212 0.642276 0.642346 0.642423 0.642507 0.642599 0.642699 
0.642806 0.642919 0.643039 0.643164 0.643295 0.643716 0.64334 0.624363 0.581941 
0.527222 0.471954 0.429454 0.397029 0.369911 0.343767 0.313002 0.281273 0.258199 
0.242281 0.233951 0.236338 0.24199 0.249551 0.257132 0.263392 0.269594 0.276467 
0.284071 0.291781 0.298434 0.30259 0.304473 0.306136 0.309788 0.316398 0.324604 
0.33531 0.337079 0.338374 0.346363 0.354856 0.361427 0.366505 0.368198 0.369876 
0.375498 0.382178 0.390989 0.400578 0.40914 0.416957 0.422949 0.429097 0.436836 
0.444748 0.452297 0.460418 0.466969 0.473003 0.480311 0.486167 0.48858 0.493033 
0.505414 0.517744 0.52423 0.528348 0.537369 0.545277 0.546394 0.54941 0.552032 
0.55557 0.556142 0.555102 0.5316 0.522712 0.510499 0.492623 0.476159 0.461389 
0.445973 0.430411 0.407701 0.379705 0.367766 0.366874 0.365025 0.364771 0.360179 
0.356632 0.356658 0.356688 0.356718 0.356748 0.356775 0.356802 0.356826 0.356849 
0.356869 0.356888 0.356906 0.356921 0.356936 0.356948 0.35696 0.35697 0.356979 
0.356988 0.356995 0.357002 0.357008 0.357013 0.357018 0.357022 0.357026 0.35703 
0.357033 0.357036 0.357038 0.357041 0.357043 0.357046 0.357048 0.35705 0.357052 
0.357054 0.357056 0.357058 0.35706 0.357063 0.357065 0.357067 0.35707 0.357072 
0.357075 0.357077 0.35708 0.357083 0.357086 0.35709 0.357093 0.357096 0.3571 
0.357104 0.357108 0.357112 0.357116 0.357121 0.357125 0.35713 0.357135 0.35714 
0.357145 0.357151 0.357156 0.357162 0.357168 0.357174 0.35718 0.357186 0.357193 
0.3572 0.357206 0.357213 0.357221 0.357228 0.357235 0.357243 0.357249 0.356639 
0.350853 0.64004 0.640118 0.640198 0.640278 0.640359 0.640442 0.640527 0.640613 
0.640701 0.640789 0.640878 0.640968 0.641057 0.641147 0.641236 0.641324 0.64141 
0.641495 0.641578 0.641658 0.641736 0.641811 0.641882 0.64195 0.642013 0.642073 
0.642129 0.642181 0.642228 0.642271 0.642309 0.642344 0.642374 0.6424 0.642422 
0.64244 0.642455 0.642465 0.642472 0.642475 0.642474 0.64247 0.642461 0.64245 
0.642434 0.642415 0.642392 0.642364 0.642333 0.642298 0.642258 0.642215 0.642167 
0.642115 0.642059 0.642 0.641938 0.641872 0.641804 0.641734 0.641663 0.64159 
0.641517 0.641445 0.641373 0.641303 0.641234 0.641169 0.641107 0.641048 0.640994 
0.640945 0.6409 0.640861 0.640827 0.640798 0.640775 0.640758 0.640745 0.640738 
0.640736 0.64074 0.640748 0.64076 0.640777 0.640798 0.640824 0.640853 0.640887 
0.640925 0.640966 0.641011 0.641059 0.64111 0.641163 0.641217 0.641272 0.641327 
0.641382 0.641436 0.641488 0.641539 0.641587 0.641634 0.641678 0.64172 0.64176 
0.641799 0.641837 0.641874 0.641912 0.64195 0.64199 0.642032 0.642078 0.642127 
0.642182 0.642243 0.64231 0.642385 0.642468 0.642559 0.642659 0.642769 0.642887 
0.643015 0.643151 0.643301 0.643744 0.643358 0.623895 0.580449 0.524803 0.469808 
0.423743 0.388638 0.36011 0.334019 0.307661 0.284398 0.268612 0.258081 0.250774 
0.247328 0.251671 0.25829 0.265906 0.273137 0.279798 0.286875 0.294442 0.301911 
0.308514 0.312458 0.314061 0.315731 0.318742 0.323774 0.330218 0.336714 0.343728 
0.350802 0.357717 0.364723 0.371087 0.375196 0.376409 0.379786 0.385951 0.394058 
0.403292 0.412362 0.4204 0.427576 0.434311 0.441393 0.450071 0.458909 0.466411 
0.474487 0.484066 0.491809 0.494967 0.497653 0.507024 0.518455 0.529844 0.542891 
0.551427 0.559447 0.563965 0.566119 0.569376 0.577364 0.578222 0.579328 0.580602 
0.581916 0.554029 0.54894 0.53906 0.522166 0.500846 0.481441 0.463351 0.445559 
0.425204 0.400358 0.376468 0.366605 0.365337 0.364855 0.360097 0.35662 0.35665 
0.356685 0.356718 0.35675 0.356779 0.356806 0.356832 0.356854 0.356875 0.356894 
0.356912 0.356927 0.356941 0.356953 0.356965 0.356975 0.356984 0.356992 0.356999 
0.357005 0.357011 0.357016 0.35702 0.357024 0.357028 0.357031 0.357034 0.357037 
0.35704 0.357042 0.357044 0.357047 0.357049 0.357051 0.357053 0.357055 0.357057 
0.357059 0.357061 0.357063 0.357065 0.357067 0.35707 0.357072 0.357075 0.357078 
0.35708 0.357083 0.357086 0.35709 0.357093 0.357096 0.3571 0.357104 0.357108 
0.357112 0.357116 0.357121 0.357125 0.35713 0.357135 0.35714 0.357145 0.357151 
0.357156 0.357162 0.357168 0.357174 0.35718 0.357186 0.357193 0.357199 0.357206 
0.357213 0.357221 0.357228 0.357235 0.357243 0.357249 0.356639 0.350853 0.640037 
0.64011 0.640185 0.640262 0.640341 0.640422 0.640505 0.640591 0.640677 0.640766 
0.640855 0.640945 0.641036 0.641126 0.641216 0.641305 0.641393 0.641479 0.641564 
0.641646 0.641725 0.641802 0.641875 0.641945 0.642011 0.642073 0.642131 0.642184 
0.642234 0.642279 0.642319 0.642355 0.642387 0.642414 0.642438 0.642457 0.642472 
0.642483 0.642491 0.642494 0.642493 0.642489 0.642481 0.642469 0.642453 0.642433 
0.642409 0.642381 0.642348 0.642312 0.642271 0.642225 0.642175 0.642121 0.642063 
0.642001 0.641935 0.641867 0.641796 0.641722 0.641648 0.641572 0.641496 0.641421 
0.641346 0.641274 0.641203 0.641136 0.641072 0.641013 0.640957 0.640907 0.640862 
0.640823 0.640789 0.640761 0.640739 0.640723 0.640711 0.640706 0.640705 0.64071 
0.640719 0.640732 0.64075 0.640772 0.640799 0.640829 0.640863 0.640902 0.640945 
0.640992 0.641042 0.641095 0.64115 0.641206 0.641263 0.641321 0.641378 0.641433 
0.641487 0.641539 0.641589 0.641635 0.641679 0.641721 0.641759 0.641796 0.641832 
0.641866 0.6419 0.641935 0.64197 0.642008 0.642049 0.642095 0.642145 0.642201 
0.642264 0.642335 0.642415 0.642505 0.642605 0.642717 0.64284 0.642975 0.643123 
0.643287 0.643753 0.643364 0.62344 0.579013 0.522119 0.464373 0.41759 0.380997 
0.351723 0.32614 0.304237 0.286277 0.274323 0.267632 0.261758 0.258541 0.262271 
0.268629 0.276101 0.283391 0.29054 0.29704 0.303101 0.309305 0.315595 0.319473 
0.321309 0.324033 0.32782 0.332395 0.337598 0.343737 0.351221 0.359082 0.366373 
0.372028 0.374647 0.377871 0.384219 0.390579 0.397614 0.405517 0.414764 0.42349 
0.430737 0.437927 0.446476 0.455055 0.463198 0.471469 0.48066 0.489489 0.499969 
0.509141 0.512254 0.517779 0.529217 0.542098 0.551796 0.559433 0.574644 0.586862 
0.590598 0.592113 0.598045 0.60261 0.604287 0.608677 0.612311 0.612607 0.567858 
0.565121 0.557801 0.546798 0.528253 0.507212 0.48605 0.463525 0.440196 0.419741 
0.391854 0.369148 0.36574 0.365316 0.360041 0.356607 0.356644 0.356683 0.35672 
0.356754 0.356785 0.356814 0.356839 0.356863 0.356884 0.356902 0.356919 0.356934 
0.356948 0.35696 0.356971 0.35698 0.356989 0.356996 0.357003 0.357009 0.357014 
0.357019 0.357023 0.357027 0.357031 0.357034 0.357037 0.357039 0.357042 0.357044 
0.357046 0.357048 0.35705 0.357052 0.357054 0.357056 0.357058 0.357059 0.357062 
0.357064 0.357066 0.357068 0.35707 0.357073 0.357075 0.357078 0.357081 0.357084 
0.357087 0.35709 0.357093 0.357097 0.3571 0.357104 0.357108 0.357112 0.357116 
0.357121 0.357125 0.35713 0.357135 0.35714 0.357145 0.357151 0.357156 0.357162 
0.357168 0.357174 0.35718 0.357186 0.357193 0.357199 0.357206 0.357213 0.357221 
0.357228 0.357235 0.357243 0.357249 0.356639 0.350853 0.640033 0.640101 0.640171 
0.640244 0.64032 0.640399 0.640481 0.640565 0.640651 0.64074 0.640829 0.64092 
0.641011 0.641102 0.641194 0.641284 0.641374 0.641462 0.641549 0.641633 0.641714 
0.641793 0.641869 0.641941 0.642009 0.642074 0.642134 0.64219 0.642241 0.642289 
0.642331 0.642369 0.642403 0.642432 0.642457 0.642478 0.642494 0.642506 0.642514 
0.642518 0.642518 0.642513 0.642505 0.642493 0.642476 0.642456 0.642431 0.642401 
0.642367 0.642329 0.642286 0.642238 0.642185 0.642128 0.642067 0.642001 0.641932 
0.64186 0.641785 0.641708 0.641629 0.64155 0.64147 0.641391 0.641313 0.641238 
0.641165 0.641095 0.64103 0.640968 0.640912 0.640861 0.640816 0.640777 0.640744 
0.640716 0.640695 0.64068 0.640671 0.640666 0.640667 0.640673 0.640684 0.640699 
0.640718 0.640741 0.640769 0.6408 0.640835 0.640876 0.64092 0.640969 0.641021 
0.641077 0.641135 0.641194 0.641254 0.641315 0.641374 0.641432 0.641488 0.641541 
0.641592 0.641639 0.641682 0.641723 0.64176 0.641795 0.641827 0.641858 0.641888 
0.641918 0.641948 0.641981 0.642016 0.642056 0.6421 0.64215 0.642208 0.642274 
0.64235 0.642437 0.642536 0.642648 0.642774 0.642916 0.643075 0.643254 0.643748 
0.643349 0.622757 0.57689 0.518586 0.461336 0.411327 0.373512 0.345392 0.323583 
0.303414 0.286477 0.275097 0.26885 0.264256 0.267802 0.274267 0.280133 0.285661 
0.292155 0.298998 0.304613 0.309046 0.313242 0.316861 0.320757 0.325162 0.329727 
0.335097 0.339729 0.343594 0.348857 0.355433 0.363164 0.371094 0.376674 0.380156 
0.384948 0.39231 0.400638 0.408286 0.416822 0.424601 0.432961 0.441769 0.450082 
0.458977 0.467992 0.47742 0.487502 0.497924 0.506498 0.513025 0.518761 0.527066 
0.538001 0.551136 0.564988 0.575625 0.586425 0.597027 0.606917 0.612964 0.618495 
0.62601 0.630171 0.632816 0.639326 0.641431 0.641629 0.576084 0.574498 0.572815 
0.567885 0.556093 0.538522 0.513263 0.486062 0.457486 0.433444 0.408192 0.3789 
0.365827 0.36532 0.359994 0.356595 0.356639 0.356684 0.356725 0.356761 0.356794 
0.356823 0.356849 0.356873 0.356894 0.356912 0.356929 0.356943 0.356956 0.356968 
0.356978 0.356987 0.356995 0.357002 0.357008 0.357014 0.357019 0.357023 0.357027 
0.357031 0.357034 0.357037 0.357039 0.357041 0.357044 0.357046 0.357048 0.357049 
0.357051 0.357053 0.357055 0.357057 0.357058 0.35706 0.357062 0.357064 0.357066 
0.357068 0.357071 0.357073 0.357076 0.357078 0.357081 0.357084 0.357087 0.35709 
0.357093 0.357097 0.3571 0.357104 0.357108 0.357112 0.357116 0.357121 0.357125 
0.35713 0.357135 0.35714 0.357145 0.357151 0.357156 0.357162 0.357168 0.357174 
0.35718 0.357186 0.357193 0.3572 0.357206 0.357213 0.357221 0.357228 0.357235 
0.357243 0.357249 0.356639 0.350853 0.640029 0.640091 0.640155 0.640224 0.640297 
0.640374 0.640454 0.640537 0.640623 0.640711 0.640801 0.640892 0.640984 0.641077 
0.641169 0.641262 0.641353 0.641443 0.641532 0.641619 0.641703 0.641785 0.641863 
0.641938 0.642009 0.642076 0.642139 0.642197 0.642251 0.642301 0.642346 0.642386 
0.642422 0.642453 0.64248 0.642502 0.642519 0.642533 0.642542 0.642546 0.642546 
0.642542 0.642534 0.642521 0.642504 0.642483 0.642457 0.642426 0.64239 0.642349 
0.642304 0.642253 0.642197 0.642136 0.642071 0.642002 0.641928 0.641851 0.641771 
0.64169 0.641606 0.641522 0.641438 0.641355 0.641274 0.641195 0.641119 0.641047 
0.640979 0.640916 0.640858 0.640807 0.640761 0.640722 0.64069 0.640664 0.640644 
0.640631 0.640623 0.640621 0.640624 0.640632 0.640645 0.640661 0.640682 0.640707 
0.640735 0.640768 0.640805 0.640847 0.640894 0.640946 0.641001 0.641059 0.64112 
0.641183 0.641246 0.64131 0.641372 0.641433 0.641491 0.641546 0.641597 0.641645 
0.641688 0.641728 0.641763 0.641795 0.641824 0.64185 0.641875 0.6419 0.641925 
0.641951 0.641979 0.642011 0.642049 0.642092 0.642143 0.642202 0.642272 0.642354 
0.642449 0.642559 0.642686 0.642832 0.642999 0.643192 0.643711 0.643305 0.621872 
0.57404 0.512384 0.449915 0.401418 0.365343 0.338059 0.316963 0.299226 0.284781 
0.274195 0.267549 0.267847 0.27336 0.279749 0.286156 0.292109 0.297939 0.303505 