# vtk DataFile Version 5.1
vtk output
ASCII
DATASET UNSTRUCTURED_GRID
POINTS 9359 double
-10.1 1.4499999993 -6.5110748437e-07 -10.049999999 1.4499999993 -4.742580586e-07 -10.049999999 1.5 1.7679119537e-06 
-9.9999999985 1.4499999993 -4.035521215e-07 -9.9999999985 1.5 1.5303246528e-06 -9.9499999978 1.4499999993 -3.6664664549e-07 
-9.9499999978 1.5 1.3956757812e-06 -9.899999997 1.4499999993 -3.4299978324e-07 -9.899999997 1.5 1.3077440144e-06 
-9.8499999963 1.4499999993 -3.2643606573e-07 -9.8499999963 1.5 1.2454199805e-06 -9.7999999955 1.4499999993 -3.1417971513e-07 
-9.7999999955 1.5 1.1994832221e-06 -9.7499999948 1.4499999993 -3.0487740332e-07 -9.7499999948 1.5 1.1643348898e-06 
-9.699999994 1.4499999993 -2.9767784326e-07 -9.699999994 1.5 1.1368626929e-06 -9.6499999933 1.4499999993 -2.9196075957e-07 
-9.6499999933 1.5 1.1152694697e-06 -9.5999999925 1.4499999993 -2.8744966585e-07 -9.5999999925 1.5 1.0980974139e-06 
-9.5499999918 1.4499999993 -2.8384442885e-07 -9.5499999918 1.5 1.084492169e-06 -9.4999999911 1.4499999993 -2.8108138395e-07 
-9.4999999911 1.5 1.0737182947e-06 -9.4499999903 1.4499999993 -2.7887858778e-07 -9.4499999903 1.5 1.065432798e-06 
-9.3999999896 1.4499999993 -2.7716146178e-07 -9.3999999896 1.5 1.0590517832e-06 -9.3499999888 1.4499999993 -2.7598093766e-07 
-9.3499999888 1.5 1.0543515145e-06 -9.2999999881 1.4499999993 -2.7515329748e-07 -9.2999999881 1.5 1.0511701021e-06 
-9.2499999873 1.4499999993 -2.7466580832e-07 -9.2499999873 1.5 1.0493238278e-06 -9.1999999866 1.4499999993 -2.7437295103e-07 
-9.1999999866 1.5 1.0485216535e-06 -9.1499999858 1.4499999993 -2.7442388273e-07 -9.1499999858 1.5 1.048774493e-06 
-9.0999999851 1.4499999993 -2.7480405151e-07 -9.0999999851 1.5 1.0498367828e-06 -9.0499999844 1.4499999993 -2.7528062674e-07 
-9.0499999844 1.5 1.0519904663e-06 -8.9999999836 1.4499999993 -2.7602095543e-07 -8.9999999836 1.5 1.0547626061e-06 
-8.9499999829 1.4499999993 -2.7695955396e-07 -8.9499999829 1.5 1.0582023151e-06 -8.8999999821 1.4499999993 -2.7799637792e-07 
-8.8999999821 1.5 1.062340516e-06 -8.8499999814 1.4499999993 -2.7923329071e-07 -8.8499999814 1.5 1.0671772088e-06 
-8.7999999806 1.4499999993 -2.8065028346e-07 -8.7999999806 1.5 1.0724395452e-06 -8.7499999799 1.4499999993 -2.8220915738e-07 
-8.7499999799 1.5 1.078471314e-06 -8.6999999791 1.4499999993 -2.8303134059e-07 -8.6999999791 1.5 1.0816945633e-06 
-8.6499999784 1.4499999993 -2.8484123504e-07 -8.6499999784 1.5 1.0884848507e-06 -8.5999999776 1.4499999993 -2.8673844099e-07 
-8.5999999776 1.5 1.0957735412e-06 -8.5499999769 1.4499999993 -2.8880026548e-07 -8.5499999769 1.5 1.1035178886e-06 
-8.4999999762 1.4499999993 -2.9096577236e-07 -8.4999999762 1.5 1.1117933809e-06 -8.4499999754 1.4499999993 -2.9324132811e-07 
-8.4499999754 1.5 1.1205809187e-06 -8.3999999747 1.4499999993 -2.9567786441e-07 -8.3999999747 1.5 1.1297249785e-06 
-8.3499999739 1.4499999993 -2.9820262171e-07 -8.3499999739 1.5 1.1394256489e-06 -8.2999999732 1.4499999993 -3.0080650504e-07 
-8.2999999732 1.5 1.1496074421e-06 -8.2499999724 1.4499999993 -3.0361775316e-07 -8.2499999724 1.5 1.1601848655e-06 
-8.1999999717 1.4499999993 -3.0648629945e-07 -8.1999999717 1.5 1.1712370451e-06 -8.1499999709 1.4499999993 -3.0947944651e-07 
-8.1499999709 1.5 1.1827439721e-06 -8.0999999702 1.4499999993 -3.1259810385e-07 -8.0999999702 1.5 1.1947211078e-06 
-8.0499999695 1.4499999993 -3.1591321203e-07 -8.0499999695 1.5 1.2071129731e-06 -7.9999999687 1.4499999993 -3.19266519e-07 
-7.9999999687 1.5 1.2200305264e-06 -7.949999968 1.4499999993 -3.2275534068e-07 -7.949999968 1.5 1.2334264738e-06 
-7.8999999672 1.4499999993 -3.2638240555e-07 -7.8999999672 1.5 1.2472471553e-06 -7.8499999665 1.4499999993 -3.3012861422e-07 
-7.8499999665 1.5 1.2616045524e-06 -7.7999999657 1.4499999993 -3.3401397559e-07 -7.7999999657 1.5 1.2764364783e-06 
-7.749999965 1.4499999993 -3.3799665289e-07 -7.749999965 1.5 1.2917814729e-06 -7.6999999642 1.4499999993 -3.4214758671e-07 
-7.6999999642 1.5 1.3075584775e-06 -7.6499999635 1.4499999993 -3.4645495361e-07 -7.6499999635 1.5 1.3239803138e-06 
-7.5999999627 1.4499999993 -3.5084690353e-07 -7.5999999627 1.5 1.3407868664e-06 -7.549999962 1.4499999993 -3.5546349864e-07 
-7.549999962 1.5 1.3582655356e-06 -7.4999999613 1.4499999993 -3.6018104765e-07 -7.4999999613 1.5 1.376303544e-06 
-7.4499999605 1.4499999993 -3.6505957723e-07 -7.4499999605 1.5 1.3948972537e-06 -7.3999999598 1.4499999993 -3.7002450881e-07 
-7.3999999598 1.5 1.4140202893e-06 -7.349999959 1.4499999993 -3.7520044316e-07 -7.349999959 1.5 1.4338718302e-06 
-7.2999999583 1.4499999993 -3.8055918594e-07 -7.2999999583 1.5 1.4542872577e-06 -7.2499999575 1.4499999993 -3.8607890929e-07 
-7.2499999575 1.5 1.475349336e-06 -7.1999999568 1.4499999993 -3.9182418732e-07 -7.1999999568 1.5 1.4971562905e-06 
-7.149999956 1.4499999993 -3.9767678572e-07 -7.149999956 1.5 1.5195507785e-06 -7.0999999553 1.4499999993 -4.0066356632e-07 
-7.0999999553 1.5 1.5310176877e-06 -7.0499999546 1.4499999993 -4.0681811697e-07 -7.0499999546 1.5 1.5546127088e-06 
-6.9999999538 1.4499999993 -4.1320640776e-07 -6.9999999538 1.5 1.578864385e-06 -6.9499999531 1.4499999993 -4.1973021325e-07 
-6.9499999531 1.5 1.6039928141e-06 -6.8999999523 1.4499999993 -4.2655142352e-07 -6.8999999523 1.5 1.6298988612e-06 
-6.8499999516 1.4499999993 -4.3358090807e-07 -6.8499999516 1.5 1.6566116301e-06 -6.7999999508 1.4499999993 -4.4074954531e-07 
-6.7999999508 1.5 1.6843084722e-06 -6.7499999501 1.4499999993 -4.4825105761e-07 -6.7499999501 1.5 1.7128643321e-06 
-6.6999999493 1.4499999993 -4.5597448661e-07 -6.6999999493 1.5 1.7424297312e-06 -6.6499999486 1.4499999993 -4.6396485232e-07 
-6.6499999486 1.5 1.7729564661e-06 -6.5999999478 1.4499999993 -4.7226171773e-07 -6.5999999478 1.5 1.8045377601e-06 
-6.5499999471 1.4499999993 -4.8081324167e-07 -6.5499999471 1.5 1.837251375e-06 -6.4999999464 1.4499999993 -4.8966717259e-07 
-6.4999999464 1.5 1.8710959466e-06 -6.4499999456 1.4499999993 -4.9884579312e-07 -6.4499999456 1.5 1.906130592e-06 
-6.3999999449 1.4499999993 -5.0834864851e-07 -6.3999999449 1.5 1.9424294351e-06 -6.3499999441 1.4499999993 -5.1820029512e-07 
-6.3499999441 1.5 1.9800402242e-06 -6.2999999434 1.4499999993 -5.2840118769e-07 -6.2999999434 1.5 2.0190702799e-06 
-6.2499999426 1.4499999993 -5.3899043451e-07 -6.2499999426 1.5 2.0595432488e-06 -6.1999999419 1.4499999993 -5.5000532484e-07 
-6.1999999419 1.5 2.1015418952e-06 -6.1499999411 1.4499999993 -5.6141448113e-07 -6.1499999411 1.5 2.1452076453e-06 
-6.0999999404 1.4499999993 -5.7329748415e-07 -6.0999999404 1.5 2.1905323138e-06 -6.0499999397 1.4499999993 -5.8564523897e-07 
-6.0499999397 1.5 2.2376837023e-06 -5.9999999389 1.4499999993 -5.9848593992e-07 -5.9999999389 1.5 2.2867909593e-06 
-5.9499999382 1.4499999993 -6.1184687183e-07 -5.9499999382 1.5 2.3378609058e-06 -5.8999999374 1.4499999993 -6.2579488258e-07 
-5.8999999374 1.5 2.3911131848e-06 -5.8499999367 1.4499999993 -6.4033088165e-07 -5.8499999367 1.5 2.4466351078e-06 
-5.7999999359 1.4499999993 -6.5552035267e-07 -5.7999999359 1.5 2.5046058454e-06 -5.7499999352 1.4499999993 -6.7138785198e-07 
-5.7499999352 1.5 2.5651422675e-06 -5.6999999344 1.4499999993 -6.8796202868e-07 -5.6999999344 1.5 2.6284953947e-06 
-5.6499999337 1.4499999993 -7.052865385e-07 -5.6499999337 1.5 2.6947529932e-06 -5.5999999329 1.4499999993 -7.2349553193e-07 
-5.5999999329 1.5 2.7641897304e-06 -5.5499999322 1.4499999993 -7.3291926128e-07 -5.5499999322 1.5 2.8001702503e-06 
-5.4999999315 1.4499999993 -7.5245293374e-07 -5.4999999315 1.5 2.8747879242e-06 -5.4499999307 1.4499999993 -7.7296976997e-07 
-5.4499999307 1.5 2.9531895507e-06 -5.39999993 1.4499999993 -7.9458595792e-07 -5.39999993 1.5 3.0356638945e-06 
-5.3499999292 1.4499999993 -8.173299193e-07 -5.3499999292 1.5 3.1225681596e-06 -5.2999999285 1.4499999993 -8.413278465e-07 
-5.2999999285 1.5 3.2142240798e-06 -5.2499999277 1.4499999993 -8.6668546828e-07 -5.2499999277 1.5 3.3110475215e-06 
-5.199999927 1.4499999993 -8.9354170996e-07 -5.199999927 1.5 3.4135091482e-06 -5.1499999262 1.4499999993 -9.2199002211e-07 
-5.1499999262 1.5 3.5221303278e-06 -5.0999999255 1.4499999993 -9.5219229479e-07 -5.0999999255 1.5 3.6374453884e-06 
-5.0499999247 1.4499999993 -9.8431746665e-07 -5.0499999247 1.5 3.7601485019e-06 -4.999999924 1.4499999993 -1.0185947303e-06 
-4.999999924 1.5 3.8909161049e-06 -4.9499999233 1.4499999993 -1.0551846117e-06 -4.9499999233 1.5 4.0306472329e-06 
-4.8999999225 1.4499999993 -1.0943685993e-06 -4.8999999225 1.5 4.1802341002e-06 -4.8499999218 1.4499999993 -1.1364654711e-06 
-4.8499999218 1.5 4.3407562771e-06 -4.799999921 1.4499999993 -1.1817196537e-06 -4.799999921 1.5 4.5135006985e-06 
-4.7499999203 1.4499999993 -1.2305599739e-06 -4.7499999203 1.5 4.6998593461e-06 -4.6999999195 1.4499999993 -1.283410711e-06 
-4.6999999195 1.5 4.9014583965e-06 -4.6499999188 1.4499999993 -1.3407670849e-06 -4.6499999188 1.5 5.1202009672e-06 
-4.599999918 1.4499999993 -1.4031663795e-06 -4.599999918 1.5 5.3582434703e-06 -4.5499999173 1.4499999993 -1.4712975371e-06 
-4.5499999173 1.5 5.6180747379e-06 -4.4999999166 1.4499999993 -1.5458783764e-06 -4.4999999166 1.5 5.9025178416e-06 
-4.4499999158 1.4499999993 -1.627789743e-06 -4.4499999158 1.5 6.2148028519e-06 -4.3999999151 1.4499999993 -1.7179445422e-06 
-4.3999999151 1.5 6.5585095399e-06 -4.3499999143 1.4499999993 -1.8173378749e-06 -4.3499999143 1.5 6.9374714258e-06 
-4.2999999136 1.4499999993 -1.9269762106e-06 -4.2999999136 1.5 7.3554924711e-06 -4.2499999128 1.4499999993 -2.0476709324e-06 
-4.2499999128 1.5 7.8158309407e-06 -4.1999999121 1.4499999993 -2.1797031877e-06 -4.1999999121 1.5 8.3197892309e-06 
-4.1499999113 1.4499999993 -2.3220243293e-06 -4.1499999113 1.5 8.8640254035e-06 -4.0999999106 1.4499999993 -2.4705921078e-06 
-4.0999999106 1.5 9.4343968158e-06 -4.0499999098 1.4499999993 -2.6144921321e-06 -4.0499999098 1.5 9.9926628536e-06 
-3.9999999091 1.4499999993 -2.7268406484e-06 -3.9999999091 1.5 1.0444807231e-05 -3.9499999084 1.4499999993 -2.7532391869e-06 
[...]
CELL_DATA 8990
FIELD FieldData 4
Water_Depth_m 1 8990 float
0.639977 0.639927 0.639874 0.639817 0.639759 0.639699 0.639639 0.63958 0.639522 
0.639465 0.639411 0.639359 0.639309 0.639263 0.63922 0.63918 0.639144 0.639111 
0.639083 0.639058 0.639038 0.639023 0.639012 0.639006 0.639006 0.63901 0.639021 
0.639037 0.639058 0.639085 0.639117 0.639155 0.639197 0.639244 0.639296 0.639351 
0.639409 0.63947 0.639533 0.639597 0.639662 0.639727 0.639792 0.639856 0.639918 
0.639979 0.640036 0.640091 0.640142 0.64019 0.640234 0.640274 0.64031 0.640342 
0.640369 0.640393 0.640412 0.640427 0.640437 0.640444 0.640447 0.640446 0.640441 
0.640432 0.640419 0.640403 0.640384 0.64036 0.640334 0.640305 0.640273 0.640238 
0.6402 0.640161 0.640119 0.640076 0.640031 0.639986 0.639939 0.639893 0.639847 
0.639802 0.639757 0.639714 0.639673 0.639633 0.639596 0.639562 0.639531 0.639503 
0.639479 0.639458 0.639441 0.639428 0.639419 0.639415 0.639414 0.639418 0.639427 
0.63944 0.639458 0.63948 0.639508 0.63954 0.639577 0.639619 0.639666 0.639719 
0.639777 0.639841 0.63991 0.639985 0.640066 0.640154 0.640247 0.640348 0.640454 
0.640568 0.640687 0.640813 0.640944 0.64108 0.641218 0.641359 0.641498 0.641632 
0.641773 0.641954 0.642354 0.641683 0.623702 0.586019 0.540037 0.493977 0.455292 
0.423121 0.393505 0.362889 0.327589 0.29058 0.257018 0.230913 0.216029 0.212714 
0.217933 0.224973 0.231966 0.23825 0.24595 0.251146 0.254838 0.260159 0.266035 
0.273572 0.282633 0.29276 0.304913 0.315002 0.325103 0.337127 0.342997 0.342635 
0.336568 0.324514 0.32123 0.32966 0.336363 0.341299 0.347039 0.353445 0.360525 
0.367262 0.373497 0.380134 0.386982 0.394582 0.402065 0.409439 0.416316 0.423931 
0.433142 0.442605 0.449553 0.455892 0.462124 0.468648 0.475598 0.483037 0.488485 
0.49354 0.497613 0.50387 0.513234 0.51621 0.517547 0.519903 0.520307 0.517502 
0.517802 0.518222 0.49957 0.486928 0.478376 0.464991 0.452382 0.439775 0.427911 
0.408745 0.38563 0.36872 0.365421 0.366272 0.366241 0.364803 0.364696 0.364708 
0.361279 0.357579 0.357622 0.357669 0.357717 0.357765 0.357811 0.357855 0.357898 
0.357938 0.357977 0.358013 0.358048 0.35808 0.358111 0.358141 0.358169 0.358195 
0.35822 0.358244 0.358267 0.358289 0.35831 0.35833 0.358349 0.358367 0.358385 
0.358402 0.358419 0.358435 0.358451 0.358466 0.358481 0.358496 0.35851 0.358524 
0.358538 0.358551 0.358564 0.358577 0.35859 0.358603 0.358615 0.358628 0.35864 
0.358652 0.358664 0.358676 0.358688 0.358699 0.358711 0.358722 0.358734 0.358745 
0.358756 0.358767 0.358778 0.358789 0.3588 0.358811 0.358822 0.358833 0.358843 
0.358854 0.358864 0.358875 0.358885 0.358896 0.358906 0.358916 0.358927 0.358937 
0.358947 0.358957 0.358967 0.358976 0.358986 0.358996 0.358987 0.358966 0.357579 
0.355116 0.351941 0.639978 0.639927 0.639873 0.639816 0.639757 0.639697 0.639637 
0.639577 0.639519 0.639462 0.639408 0.639355 0.639306 0.63926 0.639216 0.639176 
0.63914 0.639108 0.639079 0.639054 0.639034 0.639018 0.639007 0.639001 0.639 
0.639005 0.639015 0.639031 0.639052 0.639079 0.639111 0.639148 0.639191 0.639238 
0.639289 0.639345 0.639403 0.639464 0.639528 0.639593 0.639658 0.639724 0.639789 
0.639854 0.639917 0.639977 0.640036 0.640091 0.640143 0.640191 0.640236 0.640276 
0.640312 0.640345 0.640372 0.640396 0.640415 0.64043 0.640441 0.640448 0.640451 
0.64045 0.640445 0.640436 0.640423 0.640407 0.640387 0.640364 0.640337 0.640307 
0.640275 0.640239 0.640202 0.640162 0.640119 0.640076 0.640031 0.639985 0.639938 
0.639892 0.639845 0.639799 0.639754 0.639711 0.639669 0.63963 0.639593 0.639558 
0.639527 0.639499 0.639475 0.639454 0.639437 0.639424 0.639415 0.639411 0.63941 
0.639414 0.639423 0.639436 0.639454 0.639476 0.639503 0.639535 0.639572 0.639614 
0.639662 0.639714 0.639772 0.639835 0.639904 0.639979 0.64006 0.640147 0.64024 
0.64034 0.640446 0.640559 0.640678 0.640804 0.640936 0.641072 0.641213 0.641355 
0.641497 0.641636 0.641765 0.641845 0.641978 0.64146 0.623686 0.584456 0.534687 
0.484925 0.445008 0.413137 0.384478 0.354622 0.32051 0.284321 0.251463 0.227656 
0.213839 0.219986 0.230835 0.237699 0.241522 0.245734 0.249789 0.25572 0.262715 
0.268837 0.27429 0.2802 0.286413 0.291781 0.302293 0.313552 0.326703 0.349099 
0.386584 0.412547 0.391794 0.342243 0.333477 0.343595 0.350108 0.354283 0.356468 
0.359873 0.364882 0.371256 0.379887 0.388082 0.395726 0.403863 0.410091 0.417455 
0.421677 0.427518 0.434526 0.442481 0.451917 0.460183 0.462927 0.467262 0.469236 
0.473976 0.481556 0.489627 0.493354 0.496817 0.503892 0.510302 0.511029 0.510095 
0.513135 0.514803 0.515013 0.513767 0.499579 0.482648 0.473689 0.464822 0.459087 
0.450584 0.442255 0.429352 0.409449 0.386605 0.368682 0.367848 0.367784 0.365754 
0.364742 0.364749 0.361199 0.357577 0.357625 0.357672 0.35772 0.357768 0.357814 
0.357858 0.357901 0.357941 0.35798 0.358016 0.358051 0.358083 0.358114 0.358144 
0.358171 0.358198 0.358223 0.358246 0.358269 0.358291 0.358311 0.358331 0.35835 
0.358369 0.358386 0.358404 0.35842 0.358436 0.358452 0.358467 0.358482 0.358497 
0.358511 0.358525 0.358539 0.358552 0.358565 0.358578 0.358591 0.358604 0.358616 
0.358628 0.358641 0.358653 0.358665 0.358677 0.358688 0.3587 0.358711 0.358723 
0.358734 0.358746 0.358757 0.358768 0.358779 0.35879 0.358801 0.358812 0.358822 
0.358833 0.358844 0.358854 0.358865 0.358875 0.358886 0.358896 0.358906 0.358917 
0.358927 0.358937 0.358947 0.358957 0.358967 0.358977 0.358986 0.358996 0.358988 
0.358967 0.35758 0.355117 0.351941 0.639977 0.639925 0.639869 0.639811 0.639751 
0.63969 0.63963 0.63957 0.639511 0.639454 0.639399 0.639347 0.639298 0.639252 
0.639208 0.639168 0.639132 0.639099 0.63907 0.639045 0.639024 0.639008 0.638996 
0.63899 0.638988 0.638993 0.639002 0.639018 0.639038 0.639065 0.639097 0.639135 
0.639177 0.639224 0.639276 0.639332 0.639391 0.639453 0.639517 0.639583 0.63965 
0.639717 0.639783 0.639849 0.639913 0.639975 0.640034 0.640091 0.640144 0.640193 
0.640238 0.64028 0.640317 0.64035 0.640378 0.640402 0.640422 0.640438 0.640449 
0.640456 0.640459 0.640458 0.640452 0.640443 0.64043 0.640414 0.640393 0.640369 
0.640342 0.640312 0.640278 0.640242 0.640204 0.640163 0.64012 0.640075 0.640029 
0.639982 0.639935 0.639887 0.63984 0.639793 0.639748 0.639704 0.639661 0.639621 
0.639584 0.639549 0.639517 0.639489 0.639465 0.639444 0.639427 0.639414 0.639405 
0.6394 0.6394 0.639404 0.639413 0.639426 0.639443 0.639466 0.639493 0.639524 
0.639561 0.639602 0.639649 0.639701 0.639758 0.639821 0.639889 0.639963 0.640043 
0.640128 0.640221 0.640319 0.640425 0.640537 0.640656 0.640781 0.640913 0.641051 
0.641194 0.641341 0.641489 0.641637 0.641781 0.641879 0.642112 0.641481 0.622951 
0.581898 0.529467 0.477863 0.435639 0.403236 0.375317 0.346923 0.314435 0.279436 
0.247887 0.224185 0.219295 0.227815 0.238329 0.24543 0.249642 0.25395 0.258772 
0.265045 0.272503 0.279841 0.286637 0.291382 0.294172 0.29676 0.300474 0.309479 
0.326015 0.347583 0.378889 0.396911 0.381636 0.343204 0.347736 0.355738 0.362518 
0.366657 0.366814 0.370182 0.376842 0.385282 0.394715 0.403612 0.410774 0.417684 
0.423123 0.428647 0.43606 0.443178 0.45057 0.459201 0.466801 0.47314 0.474413 
0.475967 0.48384 0.492897 0.499455 0.50544 0.513451 0.521825 0.525546 0.527417 
0.527725 0.531157 0.534803 0.535214 0.53249 0.532992 0.523244 0.508986 0.499027 
0.487059 0.476312 0.466696 0.456453 0.445795 0.430718 0.41334 0.387055 0.36892 
0.36809 0.366948 0.36526 0.36525 0.361157 0.357571 0.357617 0.357668 0.357718 
0.357767 0.357814 0.357859 0.357901 0.357942 0.357981 0.358017 0.358051 0.358084 
0.358115 0.358144 0.358172 0.358198 0.358223 0.358246 0.358269 0.358291 0.358311 
0.358331 0.35835 0.358368 0.358386 0.358403 0.35842 0.358436 0.358451 0.358467 
0.358481 0.358496 0.35851 0.358524 0.358538 0.358551 0.358564 0.358577 0.35859 
0.358603 0.358615 0.358628 0.35864 0.358652 0.358664 0.358676 0.358688 0.358699 
0.358711 0.358722 0.358734 0.358745 0.358756 0.358767 0.358778 0.358789 0.3588 
0.358811 0.358822 0.358832 0.358843 0.358854 0.358864 0.358875 0.358885 0.358895 
0.358906 0.358916 0.358926 0.358936 0.358946 0.358956 0.358966 0.358976 0.358986 
0.358995 0.358987 0.358966 0.357579 0.355116 0.35194 0.639976 0.639921 0.639864 
0.639804 0.639742 0.63968 0.639618 0.639558 0.639499 0.639442 0.639387 0.639335 
0.639286 0.63924 0.639196 0.639156 0.63912 0.639086 0.639057 0.639031 0.63901 
0.638993 0.638981 0.638973 0.638971 0.638975 0.638984 0.638998 0.639019 0.639045 
0.639077 0.639114 0.639157 0.639204 0.639257 0.639313 0.639373 0.639436 0.639501 
0.639569 0.639637 0.639706 0.639774 0.639841 0.639907 0.639971 0.640033 0.640091 
0.640146 0.640197 0.640244 0.640287 0.640325 0.640359 0.640389 0.640414 0.640434 
0.64045 0.640462 0.640469 0.640472 0.640471 0.640465 0.640456 0.640442 0.640425 
0.640404 0.640379 0.640351 0.64032 0.640285 0.640248 0.640208 0.640165 0.640121 
0.640075 0.640027 0.639979 0.63993 0.639881 0.639833 0.639785 0.639738 0.639693 
0.63965 0.639609 0.639571 0.639536 0.639503 0.639475 0.63945 0.639429 0.639412 
0.639399 0.63939 0.639386 0.639385 0.63939 0.639398 0.639411 0.639429 0.639451 
0.639477 0.639508 0.639545 0.639586 0.639632 0.639683 0.639739 0.639801 0.639868 
0.63994 0.640019 0.640103 0.640194 0.640291 0.640394 0.640505 0.640623 0.640749 
0.640881 0.641021 0.641167 0.64132 0.641477 0.641636 0.641794 0.641892 0.642131 
0.641499 0.62226 0.579632 0.524819 0.469465 0.426743 0.39389 0.36629 0.34002 
0.309873 0.279434 0.257571 0.24224 0.233994 0.236226 0.24169 0.249142 0.256689 
0.262949 0.269141 0.275959 0.283472 0.291082 0.297675 0.30187 0.303906 0.305779 
0.309557 0.316081 0.324042 0.334548 0.336299 0.337656 0.345742 0.354343 0.360904 
0.365958 0.367682 0.369437 0.375144 0.381872 0.390689 0.400265 0.408816 0.416636 
0.422647 0.428809 0.436562 0.444488 0.452051 0.460185 0.466748 0.47277 0.48006 
0.485948 0.488458 0.492978 0.505349 0.517675 0.524201 0.528359 0.537393 0.545319 
0.546488 0.54954 0.552219 0.555782 0.556511 0.555389 0.554921 0.555392 0.541954 
0.535862 0.531402 0.523272 0.511058 0.493171 0.476681 0.461876 0.446403 0.430909 
0.40835 0.380418 0.368521 0.36766 0.365781 0.3656 0.361085 0.357566 0.357615 
0.357669 0.35772 0.357771 0.357818 0.357864 0.357907 0.357948 0.357986 0.358022 
0.358057 0.358089 0.358119 0.358148 0.358176 0.358201 0.358226 0.35825 0.358272 
0.358293 0.358314 0.358333 0.358352 0.35837 0.358388 0.358405 0.358421 0.358437 
0.358452 0.358468 0.358482 0.358497 0.358511 0.358525 0.358538 0.358552 0.358565 
0.358578 0.358591 0.358603 0.358616 0.358628 0.35864 0.358652 0.358664 0.358676 
0.358688 0.358699 0.358711 0.358722 0.358734 0.358745 0.358756 0.358767 0.358778 
0.358789 0.3588 0.358811 0.358822 0.358833 0.358843 0.358854 0.358864 0.358875 
0.358885 0.358896 0.358906 0.358916 0.358926 0.358936 0.358946 0.358956 0.358966 
0.358976 0.358986 0.358995 0.358987 0.358966 0.357579 0.355116 0.351941 0.639974 
0.639916 0.639855 0.639793 0.639729 0.639665 0.639603 0.639541 0.639482 0.639425 
0.639371 0.639319 0.63927 0.639224 0.63918 0.63914 0.639103 0.63907 0.63904 
0.639014 0.638992 0.638974 0.63896 0.638952 0.638949 0.638951 0.638959 0.638973 
0.638993 0.639018 0.63905 0.639087 0.63913 0.639178 0.63923 0.639288 0.639349 
0.639413 0.63948 0.63955 0.63962 0.639691 0.639762 0.639832 0.6399 0.639967 
0.640031 0.640092 0.640149 0.640202 0.640252 0.640296 0.640337 0.640372 0.640403 
0.640429 0.640451 0.640468 0.64048 0.640487 0.640491 0.640489 0.640483 0.640473 
0.640459 0.640441 0.640419 0.640393 0.640363 0.64033 0.640294 0.640255 0.640213 
0.640169 0.640123 0.640074 0.640025 0.639975 0.639924 0.639873 0.639823 0.639773 
0.639725 0.639678 0.639634 0.639592 0.639553 0.639517 0.639484 0.639455 0.63943 
0.639409 0.639391 0.639378 0.63937 0.639365 0.639365 0.639369 0.639378 0.639391 
0.639408 0.63943 0.639456 0.639487 0.639522 0.639562 0.639608 0.639658 0.639713 
0.639773 0.639839 0.63991 0.639986 0.640068 0.640157 0.640251 0.640353 0.640461 
0.640578 0.640702 0.640835 0.640976 0.641127 0.641286 0.641452 0.641626 0.6418 
0.641914 0.642166 0.641511 0.621773 0.578099 0.522329 0.467231 0.420964 0.385537 
0.356747 0.330718 0.304933 0.282619 0.267743 0.257791 0.250691 0.247208 0.251422 
0.25791 0.265452 0.272664 0.279314 0.286345 0.293824 0.301187 0.307727 0.311715 
0.313456 0.315287 0.318375 0.323345 0.329654 0.336069 0.343087 0.35018 0.357115 
0.364139 0.370504 0.374638 0.375924 0.379379 0.385604 0.393743 0.402975 0.412032 
0.420066 0.427253 0.434012 0.441111 0.449794 0.458642 0.466157 0.47423 0.483797 
0.491538 0.494723 0.497465 0.506905 0.518381 0.529766 0.542807 0.551368 0.559412 
0.563955 0.566147 0.569447 0.57747 0.578509 0.579533 0.580904 0.581968 0.582416 
0.581527 0.559986 0.555669 0.554106 0.549514 0.539635 0.522741 0.501403 0.481966 
0.463815 0.446015 0.425763 0.401047 0.377237 0.367382 0.3661 0.365696 0.361012 
0.35756 0.357613 0.35767 0.357724 0.357776 0.357825 0.357871 0.357914 0.357955 
0.357993 0.358029 0.358063 0.358095 0.358125 0.358154 0.358181 0.358206 0.35823 
0.358253 0.358275 0.358296 0.358317 0.358336 0.358354 0.358372 0.35839 0.358406 
0.358423 0.358438 0.358454 0.358469 0.358483 0.358498 0.358512 0.358526 0.358539 
0.358552 0.358565 0.358578 0.358591 0.358604 0.358616 0.358628 0.35864 0.358652 
0.358664 0.358676 0.358688 0.358699 0.358711 0.358722 0.358734 0.358745 0.358756 
0.358767 0.358778 0.358789 0.3588 0.358811 0.358822 0.358833 0.358843 0.358854 
0.358864 0.358875 0.358885 0.358896 0.358906 0.358916 0.358926 0.358936 0.358946 
0.358956 0.358966 0.358976 0.358986 0.358995 0.358987 0.358966 0.357579 0.355116 
0.351941 0.639971 0.639909 0.639844 0.639778 0.639712 0.639647 0.639583 0.639522 
0.639462 0.639405 0.639351 0.6393 0.639251 0.639205 0.639162 0.639122 0.639085 
0.639051 0.63902 0.638993 0.63897 0.638951 0.638936 0.638927 0.638922 0.638923 
0.63893 0.638943 0.638962 0.638987 0.639017 0.639054 0.639097 0.639145 0.639198 
0.639257 0.639319 0.639385 0.639455 0.639526 0.639599 0.639673 0.639747 0.63982 
0.639892 0.639962 0.640029 0.640093 0.640153 0.64021 0.640262 0.640309 0.640352 
0.64039 0.640422 0.64045 0.640473 0.640491 0.640504 0.640512 0.640515 0.640513 
0.640507 0.640496 0.640481 0.640462 0.640438 0.640411 0.64038 0.640345 0.640306 
0.640265 0.640221 0.640174 0.640125 0.640074 0.640022 0.639969 0.639916 0.639862 
0.63981 0.639758 0.639708 0.639659 0.639613 0.63957 0.63953 0.639493 0.639459 
0.639429 0.639404 0.639382 0.639365 0.639352 0.639343 0.639339 0.639339 0.639343 
0.639352 0.639365 0.639382 0.639403 0.639429 0.639459 0.639494 0.639533 0.639577 
0.639627 0.639681 0.639739 0.639803 0.639872 0.639946 0.640025 0.64011 0.640201 
0.640299 0.640405 0.640518 0.640641 0.640773 0.640916 0.641069 0.641234 0.641411 
0.641599 0.64179 0.641918 0.642184 0.641512 0.621299 0.576621 0.519579 0.461736 
0.414799 0.377996 0.348617 0.323208 0.301822 0.284583 0.273337 0.267178 0.261559 
0.258368 0.262012 0.268253 0.275637 0.282877 0.289997 0.296459 0.302453 0.308569 
0.314807 0.318727 0.320669 0.323494 0.327335 0.331903 0.337068 0.34318 0.350646 
0.358487 0.36576 0.371419 0.374067 0.377337 0.383748 0.390176 0.397263 0.405188 
0.41443 0.423148 0.430402 0.437607 0.446176 0.454771 0.462918 0.471193 0.480389 
0.489207 0.499659 0.508842 0.512028 0.517616 0.529076 0.541977 0.551703 0.55935 
0.574548 0.58677 0.590556 0.592124 0.598086 0.602691 0.604437 0.608866 0.612541 
0.612852 0.612391 0.612262 0.575949 0.569337 0.568114 0.565723 0.558399 0.547396 
0.52883 0.507755 0.486555 0.464002 0.440674 0.420356 0.392627 0.369933 0.366513 
0.36617 0.360967 0.357555 0.357614 0.357674 0.357731 0.357784 0.357834 0.35788 
0.357924 0.357964 0.358002 0.358038 0.358072 0.358103 0.358133 0.358161 0.358187 
0.358212 0.358236 0.358258 0.35828 0.358301 0.35832 0.358339 0.358358 0.358375 
0.358392 0.358409 0.358425 0.35844 0.358456 0.35847 0.358485 0.358499 0.358513 
0.358527 0.35854 0.358553 0.358566 0.358579 0.358592 0.358604 0.358617 0.358629 
0.358641 0.358653 0.358665 0.358676 0.358688 0.3587 0.358711 0.358723 0.358734 
0.358745 0.358756 0.358767 0.358778 0.358789 0.3588 0.358811 0.358822 0.358833 
0.358843 0.358854 0.358864 0.358875 0.358885 0.358896 0.358906 0.358916 0.358926 
0.358936 0.358946 0.358956 0.358966 0.358976 0.358986 0.358995 0.358987 0.358966 
0.357579 0.355116 0.351941 0.639968 0.6399 0.639831 0.639762 0.639693 0.639627 
0.639562 0.6395 0.639441 0.639384 0.639331 0.63928 0.639232 0.639186 0.639143 
0.639103 0.639065 0.63903 0.638999 0.638971 0.638946 0.638926 0.63891 0.638899 
0.638893 0.638893 0.638898 0.63891 0.638927 0.638951 0.638981 0.639017 0.63906 
0.639108 0.639163 0.639222 0.639286 0.639354 0.639425 0.639499 0.639575 0.639652 
0.63973 0.639807 0.639882 0.639956 0.640027 0.640095 0.640159 0.640219 0.640274 
0.640325 0.64037 0.640411 0.640446 0.640476 0.6405 0.640519 0.640533 0.640541 
0.640545 0.640543 0.640536 0.640525 0.640508 0.640488 0.640463 0.640433 0.6404 
0.640363 0.640322 0.640277 0.64023 0.64018 0.640128 0.640074 0.640018 0.639962 
0.639906 0.639849 0.639794 0.639739 0.639686 0.639636 0.639588 0.639543 0.639501 
0.639463 0.639428 0.639398 0.639372 0.63935 0.639333 0.63932 0.639311 0.639307 
0.639307 0.639312 0.63932 0.639333 0.63935 0.639371 0.639396 0.639426 0.63946 
0.639498 0.639542 0.639589 0.639642 0.639699 0.63976 0.639827 0.639897 0.639973 
0.640054 0.640141 0.640235 0.640336 0.640445 0.640564 0.640694 0.640836 0.640991 
0.641161 0.641346 0.641547 0.641755 0.641899 0.642184 0.641496 0.620597 0.574464 
0.516014 0.458683 0.408575 0.370644 0.342509 0.320919 0.301228 0.284916 0.274174 
0.268336 0.263958 0.267529 0.273934 0.279723 0.285175 0.291597 0.298384 0.303962 
0.308352 0.312497 0.316095 0.320024 0.324493 0.329114 0.334524 0.339189 0.34308 
0.348347 0.354898 0.362575 0.370462 0.376059 0.379604 0.384447 0.391848 0.400226 
0.407922 0.416478 0.424256 0.432613 0.441433 0.449764 0.458675 0.467707 0.47714 
0.487211 0.497614 0.506175 0.512701 0.518474 0.526847 0.537826 0.550962 0.564822 
0.575497 0.586316 0.596899 0.606795 0.612896 0.618468 0.626008 0.630226 0.632936 
0.639477 0.641619 0.641839 0.636838 0.635453 0.591684 0.580922 0.576291 0.575129 
0.573444 0.568507 0.55668 0.539073 0.513792 0.486578 0.45795 0.43397 0.40892 
0.379696 0.366615 0.366189 0.360932 0.357553 0.357617 0.357681 0.35774 0.357795 
0.357846 0.357892 0.357936 0.357976 0.358014 0.358049 0.358082 0.358113 0.358142 
0.358169 0.358195 0.358219 0.358242 0.358264 0.358285 0.358306 0.358325 0.358343 
0.358361 0.358379 0.358395 0.358411 0.358427 0.358443 0.358458 0.358472 0.358486 
0.358501 0.358514 0.358528 0.358541 0.358554 0.358567 0.35858 0.358592 0.358605 
0.358617 0.358629 0.358641 0.358653 0.358665 0.358677 0.358688 0.3587 0.358711 
0.358723 0.358734 0.358745 0.358756 0.358768 0.358779 0.35879 0.3588 0.358811 
0.358822 0.358833 0.358843 0.358854 0.358864 0.358875 0.358885 0.358896 0.358906 
0.358916 0.358926 0.358936 0.358946 0.358956 0.358966 0.358976 0.358986 0.358995 
0.358987 0.358966 0.357579 0.355116 0.351941 0.639964 0.639891 0.639817 0.639745 
0.639674 0.639606 0.639541 0.639479 0.639421 0.639365 0.639312 0.639262 0.639214 
0.639168 0.639125 0.639084 0.639045 0.63901 0.638977 0.638948 0.638922 0.6389 
0.638883 0.63887 0.638863 0.638861 0.638864 0.638874 0.63889 0.638913 0.638942 
0.638978 0.63902 0.639069 0.639124 0.639184 0.63925 0.63932 0.639394 0.639471 
0.63955 0.63963 0.639712 0.639793 0.639872 0.63995 0.640026 0.640098 0.640166 
0.64023 0.64029 0.640344 0.640392 0.640436 0.640473 0.640505 0.640532 0.640552 
0.640567 0.640576 0.64058 0.640578 0.640571 0.640558 0.640541 0.640518 0.640491 
0.64046 0.640424 0.640384 0.64034 0.640292 0.640241 0.640187 0.640131 0.640073 
0.640014 0.639954 0.639893 0.639833 0.639774 0.639717 0.639661 0.639608 0.639557 
0.63951 0.639467 0.639427 0.639392 0.639361 0.639335 0.639313 0.639295 0.639282 
0.639274 0.63927 0.63927 0.639275 0.639284 0.639297 0.639314 0.639334 0.639359 
0.639388 0.639421 0.639458 0.6395 0.639547 0.639598 0.639653 0.639712 0.639776 
0.639843 0.639915 0.639991 0.640073 0.64016 0.640255 0.640358 0.640472 0.640597 