# vtk DataFile Version 5.1
vtk output
ASCII
DATASET UNSTRUCTURED_GRID
POINTS 693 double
0.1016 1.5 0.1439999938 0.1016 1.3125 0.11299386621 0.1016 1.125 0.044603906572 
0.1016 0.9375 4.3171767174e-05 0.1016 0.75 -2.7692611041e-19 0.1016 0.5625 0.028883494437 
0.1016 0.375 0.09996420145 0.1016 0.1875 0.19062872231 0.1016 0 0.2658187151 
5.08 1.5 0.28700000048 5.08 1.3125 0.28700006008 5.08 1.125 0.28700017929 
5.08 0.9375 0.28700008988 5.08 0.75 0.28700000048 5.08 0.5625 0.28700008988 
5.08 0.375 0.28700017929 5.08 0.1875 0.28700011969 5.08 0 0.28700000048 
0.300736 1.5 0.19399508834 0.300736 1.3125 0.15319642425 0.300736 1.125 0.068133160472 
0.300736 0.9375 0.046390365809 0.300736 0.75 0.013365014456 0.300736 0.5625 0.026417372748 
0.300736 0.375 0.095226302743 0.300736 0.1875 0.19705471396 0.300736 0 0.28301364183 
0.499872 1.5 0.28093001246 0.499872 1.3125 0.20878048241 0.499872 1.125 0.12747275829 
0.499872 0.9375 0.076707467437 0.499872 0.75 0.067907102406 0.499872 0.5625 0.11992693692 
0.499872 0.375 0.18823242188 0.499872 0.1875 0.2669030726 0.499872 0 0.28098458052 
0.699008 1.5 0.28123101592 0.699008 1.3125 0.27719938755 0.699008 1.125 0.23602952063 
0.699008 0.9375 0.19533678889 0.699008 0.75 0.20024216175 0.699008 0.5625 0.20777213573 
0.699008 0.375 0.24031040072 0.699008 0.1875 0.28071248531 0.699008 0 0.2808482945 
0.898144 1.5 0.28474295139 0.898144 1.3125 0.28480017185 0.898144 1.125 0.28481325507 
0.898144 0.9375 0.28535923362 0.898144 0.75 0.28542524576 0.898144 0.5625 0.28530728817 
0.898144 0.375 0.28527057171 0.898144 0.1875 0.28495153785 0.898144 0 0.28482493758 
1.09728 1.5 0.28700000048 1.09728 1.3125 0.28699988127 1.09728 1.125 0.28700000048 
1.09728 0.9375 0.28700000048 1.09728 0.75 0.28700000048 1.09728 0.5625 0.28700000048 
1.09728 0.375 0.28700000048 1.09728 0.1875 0.28700003028 1.09728 0 0.28700000048 
1.296416 1.5 0.28700000048 1.296416 1.3125 0.28699988127 1.296416 1.125 0.28700000048 
1.296416 0.9375 0.28700000048 1.296416 0.75 0.28700000048 1.296416 0.5625 0.28700000048 
1.296416 0.375 0.28700000048 1.296416 0.1875 0.28700003028 1.296416 0 0.28700000048 
1.495552 1.5 0.28700000048 1.495552 1.3125 0.28699991107 1.495552 1.125 0.28700000048 
1.495552 0.9375 0.28700000048 1.495552 0.75 0.28700000048 1.495552 0.5625 0.28700000048 
1.495552 0.375 0.28700000048 1.495552 0.1875 0.28700000048 1.495552 0 0.28700000048 
1.694688 1.5 0.28700000048 1.694688 1.3125 0.28699994087 1.694688 1.125 0.28700000048 
1.694688 0.9375 0.28700000048 1.694688 0.75 0.28700000048 1.694688 0.5625 0.28700000048 
1.694688 0.375 0.28700000048 1.694688 0.1875 0.28700000048 1.694688 0 0.28700000048 
1.893824 1.5 0.28700000048 1.893824 1.3125 0.28699994087 1.893824 1.125 0.28700000048 
1.893824 0.9375 0.28700000048 1.893824 0.75 0.28700000048 1.893824 0.5625 0.28700000048 
1.893824 0.375 0.28700000048 1.893824 0.1875 0.28700000048 1.893824 0 0.28700000048 
2.09296 1.5 0.28700000048 2.09296 1.3125 0.28699994087 2.09296 1.125 0.28700000048 
2.09296 0.9375 0.28700000048 2.09296 0.75 0.28700000048 2.09296 0.5625 0.28700000048 
2.09296 0.375 0.28700000048 2.09296 0.1875 0.28700000048 2.09296 0 0.28700000048 
2.292096 1.5 0.28700000048 2.292096 1.3125 0.28699994087 2.292096 1.125 0.28700000048 
2.292096 0.9375 0.28700000048 2.292096 0.75 0.28700000048 2.292096 0.5625 0.28700000048 
2.292096 0.375 0.28700000048 2.292096 0.1875 0.28700000048 2.292096 0 0.28700000048 
2.491232 1.5 0.28700000048 2.491232 1.3125 0.28699994087 2.491232 1.125 0.28700000048 
2.491232 0.9375 0.28700000048 2.491232 0.75 0.28700000048 2.491232 0.5625 0.28700000048 
2.491232 0.375 0.28700000048 2.491232 0.1875 0.28700000048 2.491232 0 0.28700000048 
2.690368 1.5 0.28700000048 2.690368 1.3125 0.28699994087 2.690368 1.125 0.28700000048 
2.690368 0.9375 0.28700000048 2.690368 0.75 0.28700000048 2.690368 0.5625 0.28700000048 
2.690368 0.375 0.28700000048 2.690368 0.1875 0.28700000048 2.690368 0 0.28700000048 
2.889504 1.5 0.28700000048 2.889504 1.3125 0.28699994087 2.889504 1.125 0.28700000048 
2.889504 0.9375 0.28700000048 2.889504 0.75 0.28700000048 2.889504 0.5625 0.28700000048 
2.889504 0.375 0.28700000048 2.889504 0.1875 0.28700000048 2.889504 0 0.28700000048 
3.08864 1.5 0.28700000048 3.08864 1.3125 0.28699997067 3.08864 1.125 0.28700000048 
3.08864 0.9375 0.28700000048 3.08864 0.75 0.28700000048 3.08864 0.5625 0.28700000048 
3.08864 0.375 0.28700000048 3.08864 0.1875 0.28700000048 3.08864 0 0.28700000048 
3.287776 1.5 0.28700000048 3.287776 1.3125 0.28699997067 3.287776 1.125 0.28700000048 
3.287776 0.9375 0.28700000048 3.287776 0.75 0.28700000048 3.287776 0.5625 0.28700000048 
3.287776 0.375 0.28700000048 3.287776 0.1875 0.28700000048 3.287776 0 0.28700000048 
3.486912 1.5 0.28700000048 3.486912 1.3125 0.28699997067 3.486912 1.125 0.28700000048 
3.486912 0.9375 0.28700000048 3.486912 0.75 0.28700000048 3.486912 0.5625 0.28700000048 
3.486912 0.375 0.28700000048 3.486912 0.1875 0.28700000048 3.486912 0 0.28700000048 
3.686048 1.5 0.28700000048 3.686048 1.3125 0.28699997067 3.686048 1.125 0.28700000048 
3.686048 0.9375 0.28700000048 3.686048 0.75 0.28700000048 3.686048 0.5625 0.28700000048 
3.686048 0.375 0.28700000048 3.686048 0.1875 0.28700000048 3.686048 0 0.28700000048 
3.885184 1.5 0.28700000048 3.885184 1.3125 0.28699997067 3.885184 1.125 0.28700000048 
3.885184 0.9375 0.28700000048 3.885184 0.75 0.28700000048 3.885184 0.5625 0.28700000048 
3.885184 0.375 0.28700000048 3.885184 0.1875 0.28700000048 3.885184 0 0.28700000048 
4.08432 1.5 0.28700000048 4.08432 1.3125 0.28699997067 4.08432 1.125 0.28700000048 
4.08432 0.9375 0.28700000048 4.08432 0.75 0.28700000048 4.08432 0.5625 0.28700000048 
4.08432 0.375 0.28700000048 4.08432 0.1875 0.28700000048 4.08432 0 0.28700000048 
4.283456 1.5 0.28700000048 4.283456 1.3125 0.28700000048 4.283456 1.125 0.28700000048 
4.283456 0.9375 0.28700000048 4.283456 0.75 0.28700000048 4.283456 0.5625 0.28700000048 
4.283456 0.375 0.28700000048 4.283456 0.1875 0.28700000048 4.283456 0 0.28700000048 
4.482592 1.5 0.28700000048 4.482592 1.3125 0.28700000048 4.482592 1.125 0.28700000048 
4.482592 0.9375 0.28700000048 4.482592 0.75 0.28700000048 4.482592 0.5625 0.28700000048 
4.482592 0.375 0.28700000048 4.482592 0.1875 0.28700000048 4.482592 0 0.28700000048 
4.681728 1.5 0.28700000048 4.681728 1.3125 0.28700000048 4.681728 1.125 0.28700000048 
4.681728 0.9375 0.28700000048 4.681728 0.75 0.28700000048 4.681728 0.5625 0.28700000048 
4.681728 0.375 0.28700000048 4.681728 0.1875 0.28700000048 4.681728 0 0.28700000048 
4.880864 1.5 0.28700000048 4.880864 1.3125 0.28700000048 4.880864 1.125 0.28700000048 
4.880864 0.9375 0.28700000048 4.880864 0.75 0.28700000048 4.880864 0.5625 0.28700000048 
4.880864 0.375 0.28700000048 4.880864 0.1875 0.28700000048 4.880864 0 0.28700000048 
-0.1 1.5 0.12513391674 -0.1 1.3125 0.097646377981 -0.1 1.125 0.0069025200792 
-0.1 0.9375 -6.4758249209e-05 -0.1 0.75 -0.00020060798852 -0.1 0.5625 0.15258419514 
-0.1 0.375 0.25206366181 -0.1 0.1875 0.28200760484 -0.1 0 0.27514004707 
-10.16 1.5 3.4180752324e-22 -10.16 1.3125 -6.3734766798e-08 -10.16 1.125 -7.2232289483e-08 
-10.16 0.9375 -3.0702832277e-08 -10.16 0.75 -6.267088501e-24 -10.16 0.5625 -2.754597439e-08 
-10.16 0.375 -5.6747229138e-08 -10.16 0.1875 -3.8738217967e-08 -10.16 0 0 
-9.9588 1.5 -3.0990227743e-22 -9.9588 1.3125 -1.2778509806e-08 -9.9588 1.125 -1.5967345501e-10 
-9.9588 0.9375 3.1973826364e-11 -9.9588 0.75 1.1976343282e-25 -9.9588 0.5625 1.7098544802e-12 
-9.9588 0.375 -5.5833511425e-11 -9.9588 0.1875 -4.875580828e-09 -9.9588 0 0 
-9.7576 1.5 2.6216733218e-22 -9.7576 1.3125 -1.0496587599e-08 -9.7576 1.125 -1.0783942489e-10 
-9.7576 0.9375 -1.6308166623e-11 -9.7576 0.75 -5.6787877896e-27 -9.7576 0.5625 2.3537727323e-11 
-9.7576 0.375 -3.250175129e-11 -9.7576 0.1875 -4.2115280152e-09 -9.7576 0 0 
-9.5564 1.5 1.2111004087e-22 -9.5564 1.3125 -9.7926386999e-09 -9.5564 1.125 -1.4961888672e-10 
-9.5564 0.9375 -1.1166298788e-11 -9.5564 0.75 -1.499264663e-26 -9.5564 0.5625 2.6266211428e-11 
-9.5564 0.375 -3.3719183695e-11 -9.5564 0.1875 -4.1252694594e-09 -9.5564 0 0 
-9.3552 1.5 2.3459410657e-22 -9.3552 1.3125 -9.484319996e-09 -9.3552 1.125 -8.4908698128e-11 
-9.3552 0.9375 1.0948028942e-11 -9.3552 0.75 6.2361673229e-27 -9.3552 0.5625 -2.1937007766e-11 
-9.3552 0.375 -7.2720038324e-11 -9.3552 0.1875 -4.274061105e-09 -9.3552 0 0 
-9.154 1.5 1.1643735898e-22 -9.154 1.3125 -9.4488497027e-09 -9.154 1.125 -5.2009337809e-11 
-9.154 0.9375 -1.5069247933e-11 -9.154 0.75 3.9905021929e-27 -9.154 0.5625 -1.1932566046e-11 
-9.154 0.375 -6.0961055648e-11 -9.154 0.1875 -4.5202117605e-09 -9.154 0 0 
-8.9528 1.5 2.3455815975e-22 -8.9528 1.3125 -9.5352516993e-09 -8.9528 1.125 -1.0514674548e-10 
-8.9528 0.9375 -4.1365820491e-11 -8.9528 0.75 6.2361673229e-27 -8.9528 0.5625 9.8953067962e-12 
-8.9528 0.375 -7.1075133626e-12 -8.9528 0.1875 -4.8315458301e-09 -8.9528 0 0 
-8.7516 1.5 2.3878534349e-22 -8.7516 1.3125 -9.756015551e-09 -8.7516 1.125 -1.0096450065e-10 
-8.7516 0.9375 7.1668226909e-12 -8.7516 0.75 -1.2601559923e-27 -8.7516 0.5625 9.2651060435e-12 
-8.7516 0.375 -5.8583478346e-11 -8.7516 0.1875 -5.2060569189e-09 -8.7516 0 -3.2389177264e-23 
-8.5504 1.5 1.225150968e-22 -8.5504 1.3125 -9.9733270531e-09 -8.5504 1.125 -8.6068839555e-11 
-8.5504 0.9375 1.2551071293e-12 -8.5504 0.75 -1.2601559923e-27 -8.5504 0.5625 5.171804391e-12 
-8.5504 0.375 -5.0691645326e-11 -8.5504 0.1875 -5.6198770082e-09 -8.5504 0 -3.5103161701e-23 
-8.3492 1.5 -2.5300331806e-22 -8.3492 1.3125 -1.0290611918e-08 -8.3492 1.125 -8.74223402e-11 
-8.3492 0.9375 8.0035977845e-13 -8.3492 0.75 -9.8470055532e-27 -8.3492 0.5625 2.4868637965e-12 
-8.3492 0.375 -4.0343457741e-11 -8.3492 0.1875 -6.184698087e-09 -8.3492 0 0 
-8.148 1.5 1.3131095901e-22 -8.148 1.3125 -1.0700744291e-08 -8.148 1.125 -1.0285510638e-10 
-8.148 0.9375 3.4451663744e-11 -8.148 0.75 3.7885538011e-27 -8.148 0.5625 1.4054960537e-12 
[...]
CELL_DATA 608
FIELD FieldData 7
B_Stress_n_p_m2 1 608 float
0.528216 0.507329 0.458835 0.316406 0.0928457 0.041793 0.064186 0.0740815 0.533576 
0.479237 0.405566 0.329893 0.235818 0.164029 0.119282 0.132505 0.581333 0.534372 
0.462356 0.377243 0.293645 0.252762 0.222847 0.222071 0.549372 0.561381 0.54349 
0.490204 0.431737 0.373791 0.324681 0.311003 0.523131 0.531283 0.530214 0.510505 
0.470573 0.42838 0.38553 0.363813 0.501718 0.509501 0.504594 0.487992 0.462435 
0.435301 0.4087 0.393457 0.485213 0.493576 0.490485 0.47943 0.462863 0.444699 
0.426269 0.41297 0.474025 0.48275 0.481455 0.474263 0.463379 0.451096 0.437832 
0.425808 0.466481 0.475436 0.475642 0.471152 0.463966 0.4555 0.445518 0.434359 
0.461465 0.470526 0.471809 0.469154 0.464396 0.458443 0.45062 0.440091 0.458183 
0.467242 0.469223 0.467778 0.464625 0.460353 0.45401 0.443976 0.456087 0.465052 
0.467433 0.466761 0.464671 0.461548 0.456264 0.446655 0.454803 0.463596 0.466152 
0.465954 0.464569 0.462252 0.457766 0.44855 0.454075 0.462628 0.465198 0.465269 
0.464353 0.462617 0.458768 0.449938 0.453736 0.461986 0.464452 0.464655 0.464051 
0.462748 0.459436 0.451006 0.453672 0.461557 0.463835 0.46408 0.463683 0.462715 
0.45988 0.451878 0.453812 0.461267 0.463296 0.463524 0.463264 0.462564 0.460171 
0.452639 0.454107 0.461063 0.462798 0.462974 0.462806 0.462325 0.460352 0.453348 
0.45453 0.460905 0.462319 0.462424 0.462317 0.462017 0.460451 0.454046 0.455064 
0.460766 0.461843 0.461872 0.461805 0.461655 0.460482 0.454762 0.455699 0.46062 
0.46136 0.461319 0.461279 0.461247 0.46045 0.455519 0.456432 0.460446 0.460864 
0.460768 0.460745 0.460801 0.46035 0.456331 0.457256 0.460216 0.460347 0.460223 
0.460212 0.460316 0.460167 0.457207 0.45812 0.459911 0.45984 0.459731 0.459727 
0.459828 0.459892 0.458102 0.458833 0.4596 0.459488 0.459429 0.459428 0.459485 
0.459595 0.458829 0.593014 0.557383 0.450603 0.135327 434.535 200.096 175.522 
92.8874 0.153761 0.151297 0.142869 0.130227 0.115325 0.100486 0.0879547 0.0799789 
0.1554 0.152658 0.143834 0.130638 0.115158 0.0997694 0.0868409 0.0785859 0.15661 
0.153686 0.144549 0.130945 0.115035 0.0992532 0.0860302 0.0775982 0.157978 0.154861 
0.145365 0.131292 0.114888 0.098656 0.0850925 0.0764729 0.159421 0.156101 0.14622 
0.131653 0.11473 0.0980328 0.0841216 0.0753164 0.160941 0.157408 0.147118 0.132027 
0.114559 0.0973789 0.0831107 0.0741192 0.162537 0.158778 0.148056 0.132412 0.114375 
0.0966967 0.0820655 0.0728881 0.164209 0.160212 0.149032 0.132808 0.114178 0.0959866 
0.0809882 0.0716259 0.165959 0.161711 0.150047 0.133213 0.113965 0.0952484 0.0798805 
0.0703357 0.167788 0.163275 0.151101 0.133626 0.113735 0.0944816 0.0787438 0.0690202 
0.1697 0.164906 0.152194 0.134045 0.113486 0.0936853 0.0775792 0.0676821 0.171697 
0.166608 0.153327 0.13447 0.113217 0.0928581 0.0763877 0.0663244 0.173782 0.168383 
0.1545 0.134897 0.112923 0.0919986 0.0751708 0.0649505 0.175959 0.170233 0.155714 
0.135325 0.112603 0.0911054 0.0739301 0.0635643 0.178229 0.172161 0.156969 0.135752 
0.112251 0.0901769 0.0726676 0.0621705 0.180596 0.17417 0.158265 0.136172 0.111864 
0.0892116 0.0713864 0.0607745 0.183059 0.176261 0.1596 0.136583 0.111437 0.0882086 
0.0700902 0.0593831 0.185616 0.178435 0.160972 0.136978 0.110965 0.0871672 0.0687846 
0.0580039 0.188262 0.180693 0.162379 0.137351 0.110443 0.086088 0.0674768 0.0566465 
0.190986 0.183031 0.163814 0.137693 0.109863 0.084973 0.0661771 0.055322 0.193771 
0.185442 0.165267 0.137994 0.109222 0.0838268 0.0648997 0.0540443 0.196585 0.187914 
0.166723 0.138239 0.108513 0.0826576 0.0636645 0.0528303 0.199381 0.190426 0.16816 
0.13841 0.107733 0.0814789 0.0624993 0.0517012 0.202091 0.192945 0.169546 0.138487 
0.106883 0.0803124 0.0614433 0.0506845 0.20461 0.195419 0.170833 0.138444 0.105968 
0.0791929 0.0605529 0.0498185 0.206752 0.197735 0.171929 0.138235 0.105001 0.0781707 
0.0599066 0.0491575 0.208239 0.1997 0.172672 0.137773 0.103981 0.0773027 0.0596014 
0.0487753 0.209015 0.201323 0.173074 0.137103 0.102981 0.0767024 0.0597977 0.0488099 
0.209157 0.202788 0.173422 0.136573 0.102473 0.07675 0.0607841 0.0495534 0.205803 
0.20142 0.171735 0.135069 0.101873 0.0773643 0.0628559 0.0514826 0.192946 0.19051 
0.161748 0.127671 0.0980313 0.0768787 0.0653097 0.0547915 0.189625 0.188247 0.159793 
0.12698 0.0992416 0.0799927 0.0697706 0.0606292 0.265223 0.27038 0.241935 0.194441 
0.147201 0.112508 0.0919839 0.0804439 0.546232 0.573291 0.555028 0.458567 0.329796 
0.222081 0.159334 0.134955 1.0806 1.05079 0.980481 0.841307 0.653444 0.435461 
0.281951 0.23031 1.45809 1.30265 1.11546 0.966067 0.840677 0.66248 0.436705 
0.337361 1.39015 1.22556 1.04159 0.899283 0.817012 0.749536 0.55358 0.42153 
1.21716 1.09565 0.954322 0.826098 0.738975 0.699061 0.581812 0.454902 1.07951 
1.0064 0.89226 0.778079 0.68446 0.615729 0.530313 0.413687 0.960265 0.919916 
0.809984 0.696827 0.606436 0.545441 0.448113 0.33717 0.928822 0.848485 0.724179 
0.597958 0.500378 0.445966 0.369616 0.268885 0.901421 0.798097 0.654145 0.506187 
0.403957 0.338537 0.276783 0.200331 0.830403 0.734056 0.580571 0.427477 0.312114 
0.238537 0.181774 0.131303 0.772991 0.675646 0.511729 0.351679 0.234695 0.158929 
0.101304 0.0753084 0.735556 0.635475 0.465378 0.29202 0.172913 0.103067 0.0556293 
0.0438328 0.705393 0.603548 0.431014 0.248514 0.126316 0.0628591 0.0322963 0.0341112 
0.674562 0.572759 0.400055 0.201719 0.0837923 0.0374798 0.0198415 0.0327489 0.656688 
0.557927 0.382534 0.16336 0.0473498 0.0247225 0.0172681 0.0351501 0.651699 0.55744 
0.383832 0.149369 0.0378722 0.0400024 0.0363919 0.0530617 0.637991 0.568547 0.413556 
0.175074 0.0259574 0.0247439 0.0777828 0.0627659 
Froude 1 608 float
0.148145 0.139913 0.129617 0.105365 0.0572396 0.0394165 0.051471 0.0590245 0.15466 
0.140329 0.123723 0.110547 0.0938911 0.0802059 0.0718097 0.0791136 0.172088 0.157256 
0.139821 0.124306 0.109574 0.104598 0.102304 0.105602 0.167855 0.169361 0.163647 
0.152748 0.143577 0.133961 0.12652 0.126055 0.164192 0.165467 0.165285 0.162194 
0.155683 0.148492 0.140831 0.136782 0.160933 0.162174 0.161378 0.15868 0.154442 
0.149816 0.145143 0.142407 0.15824 0.159596 0.159085 0.157268 0.154509 0.15143 
0.148244 0.145911 0.156388 0.157819 0.1576 0.156409 0.154592 0.152518 0.15025 
0.14817 0.155126 0.156607 0.156635 0.155888 0.154686 0.153261 0.151567 0.149655 
0.154279 0.155786 0.155994 0.15555 0.154755 0.153755 0.152433 0.150641 0.153721 
0.155233 0.155559 0.155317 0.154789 0.154072 0.153005 0.151304 0.153362 0.154862 
0.155256 0.155142 0.154792 0.154269 0.153382 0.151758 0.15314 0.154613 0.155038 
0.155003 0.154771 0.154383 0.153631 0.152077 0.153012 0.154446 0.154874 0.154885 
0.154731 0.154441 0.153796 0.152309 0.152949 0.154334 0.154744 0.154778 0.154676 
0.154459 0.153904 0.152486 0.152934 0.154257 0.154637 0.154677 0.154611 0.154449 
0.153975 0.152629 0.152952 0.154204 0.154542 0.15458 0.154536 0.154419 0.154019 
0.152753 0.152998 0.154165 0.154455 0.154484 0.154455 0.154375 0.154045 0.152869 
0.153064 0.154134 0.15437 0.154387 0.154369 0.154319 0.154057 0.152982 0.153149 
0.154106 0.154286 0.154291 0.154279 0.154254 0.154058 0.153098 0.153252 0.154077 
0.154201 0.154194 0.154187 0.154182 0.154048 0.153221 0.15337 0.154043 0.154113 
0.154097 0.154093 0.154103 0.154027 0.153353 0.153504 0.154 0.154022 0.154002 
0.154 0.154017 0.153992 0.153496 0.153644 0.153945 0.153933 0.153915 0.153914 
0.153931 0.153942 0.153641 0.153759 0.153888 0.15387 0.153861 0.15386 0.15387 
0.153887 0.153758 0.154034 0.145079 0.125766 0.068804 0.0266685 0.0192934 0.0193301 
0.0146979 0.0733612 0.0727708 0.0707147 0.0675136 0.0635334 0.059305 0.0554841 0.0529086 
0.0737507 0.0730972 0.0709531 0.06762 0.0634873 0.0590933 0.0551317 0.0524459 0.074037 
0.0733425 0.0711292 0.0676992 0.0634533 0.0589401 0.0548737 0.0521152 0.0743598 0.0736224 
0.0713294 0.0677888 0.0634127 0.0587624 0.0545738 0.0517358 0.0746984 0.0739165 0.0715389 
0.0678817 0.063369 0.0585765 0.0542615 0.0513431 0.0750536 0.0742251 0.071758 0.0679779 
0.0633217 0.0583807 0.0539344 0.0509334 0.0754247 0.0745474 0.0719863 0.068077 0.0632708 
0.0581758 0.0535941 0.0505085 0.0758117 0.0748832 0.0722232 0.0681787 0.063216 0.0579617 
0.0532411 0.0500692 0.0762144 0.0752325 0.0724687 0.0682825 0.0631569 0.0577384 0.0528757 
0.0496162 0.0766332 0.0755954 0.0727227 0.0683881 0.0630932 0.0575055 0.0524981 0.04915 
0.0770684 0.0759721 0.0729852 0.0684953 0.0630242 0.0572626 0.0521084 0.0486712 0.0775205 
0.0763631 0.0732563 0.0686037 0.0629493 0.0570092 0.0517067 0.0481805 0.0779898 0.0767686 
0.073536 0.0687126 0.0628676 0.0567448 0.0512932 0.0476789 0.0784767 0.0771892 0.0738244 
0.0688216 0.0627783 0.0564686 0.0508681 0.0471673 0.0789815 0.0776251 0.0741212 0.0689299 
0.0626802 0.0561801 0.0504319 0.0466473 0.0795041 0.0780766 0.0744264 0.0690366 0.0625721 
0.0558786 0.0499854 0.0461207 0.0800444 0.0785439 0.0747397 0.0691406 0.0624526 0.0555636 
0.0495296 0.0455897 0.0806016 0.079027 0.0750604 0.0692406 0.0623203 0.0552347 0.0490661 
0.0450572 0.081174 0.0795253 0.0753877 0.0693349 0.0621734 0.0548918 0.0485975 0.0445269 
0.0817593 0.0800381 0.07572 0.0694212 0.0620102 0.0545352 0.0481272 0.0440033 0.0823531 
0.0805636 0.0760551 0.069497 0.0618289 0.0541662 0.0476606 0.0434923 0.0829489 0.0810989 
0.0763896 0.0695587 0.0616281 0.0537873 0.0472049 0.0430011 0.0835366 0.081639 0.0767181 
0.0696019 0.0614064 0.0534025 0.0467711 0.0425392 0.0841021 0.082177 0.0770334 0.0696212 
0.0611635 0.053019 0.0463744 0.0421191 0.0846245 0.0827019 0.0773252 0.0696104 0.0609015 
0.0526484 0.0460374 0.0417579 0.0850656 0.0831899 0.0775725 0.0695577 0.060623 0.0523077 
0.0457913 0.0414802 0.08537 0.0836013 0.0777394 0.0694414 0.060328 0.0520167 0.0456748 
0.0413189 0.0855276 0.0839392 0.0778291 0.0692719 0.0600372 0.0518146 0.0457503 0.041334 
0.0855551 0.0842425 0.0779068 0.0691376 0.0598891 0.0518312 0.0461267 0.0416483 0.0848613 
0.083953 0.0775238 0.0687544 0.0597133 0.0520387 0.0469071 0.0424524 0.0821567 0.0816354 
0.0752265 0.0668391 0.0585737 0.0518746 0.0478144 0.0437967 0.0814535 0.0811542 0.0747758 
0.0666617 0.0589368 0.052917 0.049422 0.046073 0.099252 0.100609 0.0952649 0.0853349 
0.0737805 0.0638953 0.0571388 0.0530031 0.154863 0.161308 0.160089 0.144929 0.120625 
0.0961556 0.078564 0.0699003 0.243174 0.241868 0.236945 0.220566 0.191283 0.149096 
0.112754 0.0958018 0.309589 0.286717 0.261346 0.245033 0.231747 0.201428 0.151834 
0.122791 0.307502 0.278138 0.24959 0.233083 0.229422 0.2253 0.182346 0.144135 
0.279843 0.256017 0.233386 0.217781 0.213694 0.220163 0.193614 0.156441 0.256819 
0.239457 0.222019 0.208858 0.202427 0.203048 0.189183 0.152921 0.233167 0.224789 
0.207727 0.19418 0.188623 0.189902 0.173479 0.138684 0.224227 0.210092 0.191362 
0.175599 0.166406 0.169912 0.158127 0.123948 0.218942 0.199612 0.177463 0.156228 
0.145616 0.144477 0.1359 0.107735 0.205159 0.187107 0.162955 0.139477 0.124044 
0.117892 0.108479 0.0869225 0.192983 0.175039 0.148203 0.122834 0.104146 0.0927652 
0.0779504 0.0651852 0.183728 0.16541 0.137342 0.108197 0.0869072 0.0730729 0.0552013 
0.0487614 0.176155 0.157804 0.129083 0.097746 0.0724895 0.055484 0.0418023 0.0421907 
0.168661 0.149976 0.121702 0.0864323 0.0583327 0.0423122 0.0323008 0.0413444 0.163293 
0.145483 0.117112 0.0761383 0.0429349 0.0338501 0.0298573 0.0426921 0.161146 0.143639 
0.116324 0.0727543 0.0380156 0.0423575 0.043079 0.0534983 0.158753 0.145011 0.120284 
0.078358 0.0316482 0.0332161 0.0627669 0.0567883 
Vel_Mag_m_p_s 1 608 float
0.326351 0.325805 0.313929 0.263485 0.142525 0.094386 0.113951 0.118491 0.321831 
0.311715 0.292913 0.265415 0.223892 0.184504 0.153553 0.158295 0.32536 0.31952 
0.303994 0.276783 0.244305 0.223456 0.205579 0.201814 0.315757 0.319489 0.317219 
0.303889 0.284965 0.26479 0.245151 0.237801 0.307753 0.310141 0.309843 0.30402 
0.291924 0.278574 0.26431 0.256782 0.301261 0.303591 0.302138 0.297145 0.289285 
0.280694 0.272004 0.266887 0.296286 0.29883 0.297902 0.294539 0.289422 0.283703 
0.277775 0.273411 0.292866 0.29555 0.295161 0.292957 0.289587 0.285733 0.28151 
0.277619 0.290539 0.293315 0.293383 0.292002 0.289773 0.287124 0.283966 0.280389 
0.288982 0.291806 0.292207 0.291388 0.289911 0.288051 0.285587 0.282231 0.28796 
0.290793 0.291411 0.290965 0.289986 0.288653 0.28666 0.283475 0.287307 0.290118 
0.290861 0.290654 0.290004 0.28903 0.287372 0.284331 0.286908 0.289669 0.290467 
0.290407 0.289976 0.289254 0.287848 0.284935 0.286684 0.289372 0.290175 0.290198 
0.289913 0.289371 0.288166 0.285379 0.286582 0.289175 0.289947 0.290011 0.289823 
0.289416 0.288379 0.285721 0.286566 0.289046 0.289759 0.289835 0.289712 0.28941 
0.288522 0.286001 0.286615 0.28896 0.289594 0.289666 0.289585 0.289366 0.288617 
0.286245 0.286712 0.2889 0.289443 0.289498 0.289446 0.289296 0.288678 0.286473 
0.28685 0.288855 0.289298 0.289331 0.289297 0.289203 0.288713 0.286698 0.287023 
0.288816 0.289153 0.289162 0.289141 0.289094 0.288727 0.286928 0.287227 0.288774 
0.289006 0.288993 0.288981 0.288971 0.288721 0.287171 0.287462 0.288724 0.288855 
0.288825 0.288818 0.288835 0.288694 0.287431 0.287726 0.288656 0.288697 0.288658 
0.288654 0.288687 0.288641 0.287711 0.288002 0.288565 0.288542 0.288508 0.288506 
0.288538 0.288559 0.287997 0.288231 0.288471 0.288435 0.288416 0.288416 0.288434 
0.288469 0.28823 0.349067 0.343346 0.3144 0.172445 0.0661339 0.043464 0.0393582 
0.0280056 0.18379 0.182311 0.177161 0.169141 0.15917 0.148577 0.139005 0.132552 
0.184767 0.18313 0.177758 0.169408 0.159055 0.148047 0.138122 0.131393 0.185485 
0.183745 0.1782 0.169607 0.15897 0.147663 0.137476 0.130565 0.186294 0.184447 
0.178702 0.169832 0.158869 0.147218 0.136724 0.129615 0.187143 0.185184 0.179227 
0.170065 0.158759 0.146753 0.135942 0.128631 0.188033 0.185958 0.179777 0.170307 
0.158641 0.146263 0.135123 0.127605 0.188963 0.186765 0.180349 0.170555 0.158514 
0.145749 0.134271 0.12654 0.189933 0.187607 0.180943 0.17081 0.158377 0.145213 
0.133387 0.12544 0.190942 0.188482 0.181558 0.17107 0.158229 0.144654 0.132471 
0.124305 0.191991 0.189392 0.182195 0.171335 0.15807 0.144071 0.131525 0.123137 
0.193082 0.190336 0.182852 0.171604 0.157897 0.143462 0.130549 0.121938 0.194215 
0.191315 0.183532 0.171875 0.157709 0.142827 0.129543 0.120709 0.195391 0.192332 
0.184233 0.172148 0.157505 0.142165 0.128507 0.119452 0.19661 0.193385 0.184955 
0.172421 0.157281 0.141473 0.127442 0.11817 0.197875 0.194477 0.185699 0.172693 
0.157035 0.14075 0.126349 0.116868 0.199185 0.195609 0.186464 0.17296 0.156764 
0.139995 0.12523 0.115548 0.200538 0.196779 0.187248 0.173221 0.156465 0.139206 
0.124088 0.114218 0.201934 0.19799 0.188052 0.173471 0.156133 0.138381 0.122927 
0.112883 0.203368 0.199238 0.188872 0.173707 0.155765 0.137522 0.121753 0.111555 
0.204834 0.200523 0.189704 0.173923 0.155356 0.136629 0.120574 0.110243 0.206322 
0.201839 0.190543 0.174113 0.154902 0.135704 0.119405 0.108962 0.207815 0.20318 
0.191381 0.174267 0.154398 0.134754 0.118263 0.107731 0.209288 0.204534 0.192204 
0.174375 0.153842 0.13379 0.117175 0.106574 0.210705 0.205883 0.192995 0.174424 
0.153233 0.132828 0.116181 0.10552 0.212015 0.207199 0.193726 0.174396 0.152576 
0.131899 0.115336 0.104615 0.213123 0.208423 0.194347 0.174265 0.151878 0.131045 
0.114719 0.103918 0.213889 0.209458 0.194767 0.173974 0.151139 0.130315 0.114426 
0.103513 0.214289 0.210309 0.194994 0.17355 0.15041 0.129808 0.114613 0.103549 
0.214364 0.211074 0.195191 0.173215 0.150038 0.129847 0.115554 0.104334 0.212644 
0.210367 0.194243 0.172261 0.149599 0.130365 0.117506 0.106344 0.205909 0.204606 
0.188522 0.167484 0.146755 0.129956 0.119777 0.109707 0.20412 0.203381 0.187373 
0.167026 0.147654 0.132559 0.123798 0.1154 0.237825 0.239652 0.226583 0.203211 
0.17737 0.155802 0.141657 0.133011 0.327325 0.332563 0.325818 0.296752 0.254029 
0.211502 0.182406 0.170735 0.435722 0.427828 0.41037 0.379199 0.33689 0.281449 
0.233606 0.217755 0.483467 0.461652 0.430431 0.399083 0.36973 0.331696 0.279497 
0.256099 0.468051 0.447755 0.418387 0.387782 0.363726 0.34406 0.304689 0.279355 
0.444093 0.429081 0.405186 0.376429 0.34954 0.33032 0.30693 0.283911 0.423668 
0.416279 0.394997 0.367505 0.339076 0.312725 0.289654 0.267418 0.407268 0.401647 
0.379779 0.350883 0.320783 0.295269 0.266586 0.240876 0.405065 0.39102 0.363812 
0.328974 0.295672 0.268401 0.241674 0.215018 0.400822 0.383149 0.350043 0.307803 
0.269195 0.236715 0.209853 0.18495 0.389351 0.371682 0.334024 0.286981 0.240362 
0.201532 0.171354 0.14999 0.380444 0.361111 0.318618 0.264162 0.211825 0.167545 
0.130386 0.114151 0.375659 0.354783 0.308229 0.244833 0.184401 0.136421 0.0988378 
0.087949 0.371788 0.349458 0.30016 0.228236 0.159542 0.108047 0.0755412 0.0783402 
0.367434 0.344657 0.292322 0.207559 0.130727 0.0839527 0.0596342 0.0767553 0.365979 
0.34312 0.288152 0.188789 0.0993123 0.0687003 0.0558891 0.079651 0.366307 0.345089 
0.289861 0.180586 0.0892647 0.0881087 0.0813843 0.0969026 0.363219 0.348573 0.301451 
0.196017 0.0736955 0.0693979 0.119184 0.10668 
Water_Depth_m 1 608 float
0.494836 0.55292 0.598145 0.637655 0.632201 0.584686 0.499777 0.410933 0.44153 
0.503136 0.571529 0.587786 0.579821 0.539591 0.466247 0.408224 0.364496 0.420964 
0.482001 0.505544 0.506894 0.465374 0.411757 0.372409 0.360831 0.362867 0.383149 
0.403592 0.401677 0.398393 0.382835 0.362887 0.358231 0.358227 0.358329 0.358259 
0.358526 0.35887 0.359164 0.359368 0.357322 0.357338 0.357427 0.357565 0.357755 
0.357941 0.358115 0.358146 0.35748 0.357492 0.357562 0.357659 0.357783 0.357903 
0.358011 0.35803 0.357598 0.357607 0.357658 0.357725 0.357806 0.357884 0.357952 
0.357965 0.357688 0.357695 0.357731 0.357776 0.35783 0.35788 0.357924 0.357932 
0.357759 0.357764 0.357789 0.357819 0.357855 0.357888 0.357917 0.357922 0.357817 
0.35782 0.357837 0.357858 0.357882 0.357903 0.357922 0.357925 0.357866 0.357868 
0.35788 0.357894 0.357909 0.357924 0.357936 0.357938 0.357909 0.357911 0.357919 
0.357928 0.357938 0.357948 0.357956 0.357957 0.357948 0.35795 0.357955 0.357961 
0.357968 0.357974 0.35798 0.35798 0.357985 0.357986 0.357989 0.357994 0.357998 
0.358002 0.358006 0.358006 0.35802 0.358021 0.358023 0.358026 0.358029 0.358031 
0.358034 0.358034 0.358053 0.358054 0.358055 0.358057 0.358059 0.358061 0.358063 
0.358063 0.358086 0.358087 0.358088 0.358089 0.35809 0.358091 0.358093 0.358092 
0.358118 0.358119 0.35812 0.35812 0.358121 0.358122 0.358123 0.358123 0.35815 
0.358151 0.358151 0.358152 0.358152 0.358153 0.358154 0.358153 0.358182 0.358183 
0.358183 0.358183 0.358183 0.358184 0.358185 0.358184 0.358214 0.358215 0.358214 
0.358214 0.358214 0.358215 0.358216 0.358215 0.358246 0.358246 0.358245 0.358245 
0.358245 0.358246 0.358247 0.358247 0.358279 0.358278 0.358276 0.358275 0.358275 
0.358276 0.358279 0.35828 0.358317 0.358308 0.358303 0.358302 0.358302 0.358304 
0.358308 0.358317 0.523656 0.57111 0.637239 0.640527 0.627069 0.517493 0.422733 
0.370206 0.639993 0.639995 0.639997 0.64 0.640003 0.640006 0.640008 0.64001 
0.640001 0.640003 0.640003 0.640004 0.640005 0.640006 0.640006 0.640008 0.640004 
0.640006 0.640006 0.640007 0.640008 0.640009 0.640009 0.640011 0.640007 0.640009 
0.640009 0.64001 0.640011 0.640012 0.640011 0.640013 0.64001 0.640012 0.640012 
0.640013 0.640013 0.640014 0.640014 0.640016 0.640013 0.640015 0.640014 0.640015 
0.640015 0.640016 0.640016 0.640018 0.640015 0.640017 0.640017 0.640018 0.640018 
0.640018 0.640018 0.64002 0.640017 0.640019 0.640019 0.640019 0.640019 0.64002 
0.64002 0.640022 0.640019 0.640021 0.64002 0.640021 0.640021 0.640022 0.640021 
0.640023 0.64002 0.640023 0.640022 0.640023 0.640023 0.640023 0.640022 0.640025 
0.640021 0.640024 0.640023 0.640024 0.640024 0.640024 0.640024 0.640026 0.640022 
0.640025 0.640024 0.640025 0.640025 0.640025 0.640024 0.640027 0.640023 0.640026 
0.640025 0.640025 0.640025 0.640026 0.640025 0.640027 0.640023 0.640026 0.640025 
0.640026 0.640025 0.640026 0.640025 0.640027 0.640023 0.640027 0.640025 0.640026 