# vtk DataFile Version 5.1
vtk output
ASCII
DATASET UNSTRUCTURED_GRID
POINTS 9424 double
0.1016 1.5 0.1439999938 0.1016 1.45 0.16599999368 0.1016 1.4 0.15700000525 
0.1016 1.35 0.13199999928 0.1016 1.3 0.10700000077 0.1016 1.25 0.090000003576 
0.1016 1.2 0.075999997556 0.1016 1.15 0.059999998659 0.1016 1.1 0.0270000007 
0.1016 1.05 0 0.1016 1 -1.4520933349e-19 0.1016 0.95 -1.9172115972e-20 
0.1016 0.9 -1.9935036607e-21 0.1016 0.85 1.2043517074e-19 0.1016 0.8 2.5499320644e-20 
0.1016 0.75 -2.7692611041e-19 0.1016 0.7 0.0017266095383 0.1016 0.65 0.006275348831 
0.1016 0.6 0.015275382437 0.1016 0.55 0.034349132329 0.1016 0.5 0.057032302022 
0.1016 0.45 0.069950312376 0.1016 0.4 0.088548511267 0.1016 0.35 0.1118433848 
0.1016 0.3 0.13683372736 0.1016 0.25 0.16178821027 0.1016 0.2 0.18516084552 
0.1016 0.15 0.20709982514 0.1016 0.1 0.23110230267 0.1016 0.05 0.2536047399 
0.1016 0 0.2658187151 5.08 1.5 0.28700000048 5.08 1.45 0.28700000048 
5.08 1.4 0.28700000048 5.08 1.35 0.28700000048 5.08 1.3 0.28700000048 
5.08 1.25 0.28700000048 5.08 1.2 0.28700000048 5.08 1.15 0.28700000048 
5.08 1.1 0.28700000048 5.08 1.05 0.28700000048 5.08 1 0.28700000048 
5.08 0.95 0.28700000048 5.08 0.9 0.28700000048 5.08 0.85 0.28700000048 
5.08 0.8 0.28700000048 5.08 0.75 0.28700000048 5.08 0.7 0.28700000048 
5.08 0.65 0.28700000048 5.08 0.6 0.28700000048 5.08 0.55 0.28700000048 
5.08 0.5 0.28700000048 5.08 0.45 0.28700000048 5.08 0.4 0.28700000048 
5.08 0.35 0.28700000048 5.08 0.3 0.28700000048 5.08 0.25 0.28700000048 
5.08 0.2 0.28700000048 5.08 0.15 0.28700000048 5.08 0.1 0.28700000048 
5.08 0.05 0.28700000048 5.08 0 0.28700000048 0.151384 1.5 0.1567479223 
0.151384 1.45 0.17286509275 0.151384 1.4 0.17073737085 0.151384 1.35 0.14572574198 
0.151384 1.3 0.11582919955 0.151384 1.25 0.092948384583 0.151384 1.2 0.07700818032 
0.151384 1.15 0.068851865828 0.151384 1.1 0.049543965608 0.151384 1.05 0.021516673267 
0.151384 1 -3.315127833e-05 0.151384 0.95 7.8876604448e-07 0.151384 0.9 1.059683018e-05 
0.151384 0.85 9.8040231933e-07 0.151384 0.8 -2.1849093628e-06 0.151384 0.75 -3.5226723867e-06 
0.151384 0.7 1.8499395082e-05 0.151384 0.65 7.9339341028e-05 0.151384 0.6 0.00023758161115 
0.151384 0.55 0.014358749613 0.151384 0.5 0.042242851108 0.151384 0.45 0.043471399695 
0.151384 0.4 0.067320547998 0.151384 0.35 0.092297673225 0.151384 0.3 0.11927485466 
0.151384 0.25 0.14625304937 0.151384 0.2 0.17221662402 0.151384 0.15 0.19618578255 
0.151384 0.1 0.22608478367 0.151384 0.05 0.25985249877 0.151384 0 0.27087309957 
0.201168 1.5 0.16561856866 0.201168 1.45 0.17871999741 0.201168 1.4 0.17676354945 
0.201168 1.35 0.15559522808 0.201168 1.3 0.11983888596 0.201168 1.25 0.094892024994 
0.201168 1.2 0.078920572996 0.201168 1.15 0.070950694382 0.201168 1.1 0.057784538716 
0.201168 1.05 0.041227802634 0.201168 1 0.013341243379 0.201168 0.95 0.00081337126903 
0.201168 0.9 -9.6729381767e-05 0.201168 0.85 4.3826066758e-06 0.201168 0.8 2.196150308e-05 
0.201168 0.75 1.559098564e-05 0.201168 0.7 8.7562120825e-06 0.201168 0.65 -2.372284689e-05 
0.201168 0.6 0.00089719501557 0.201168 0.55 0.010063622147 0.201168 0.5 0.024555742741 
0.201168 0.45 0.041900422424 0.201168 0.4 0.064939498901 0.201168 0.35 0.092852219939 
0.201168 0.3 0.11602818966 0.201168 0.25 0.14302745461 0.201168 0.2 0.16709972918 
0.201168 0.15 0.19493468106 0.201168 0.1 0.22787478566 0.201168 0.05 0.26000612974 
0.201168 0 0.28352585435 0.250952 1.5 0.18197776377 0.250952 1.45 0.19118845463 
0.250952 1.4 0.18549700081 0.250952 1.35 0.16912814975 0.250952 1.3 0.13124585152 
0.250952 1.25 0.10149205476 0.250952 1.2 0.082699075341 0.250952 1.15 0.071913905442 
0.250952 1.1 0.063713997602 0.250952 1.05 0.053379669785 0.250952 1 0.037508849055 
0.250952 0.95 0.021492445841 0.250952 0.9 0.01854711771 0.250952 0.85 -0.00016757083358 
0.250952 0.8 -0.00013697004761 0.250952 0.75 -9.2888512881e-05 0.250952 0.7 -9.8218530184e-05 
0.250952 0.65 -9.6964897239e-05 0.250952 0.6 0.00091851141769 0.250952 0.55 0.013585589826 
0.250952 0.5 0.031274244189 0.250952 0.45 0.049358397722 0.250952 0.4 0.068670272827 
0.250952 0.35 0.094783261418 0.250952 0.3 0.11963667721 0.250952 0.25 0.14563524723 
0.250952 0.2 0.17340396345 0.250952 0.15 0.20428460836 0.250952 0.1 0.23357948661 
0.250952 0.05 0.26278209686 0.250952 0 0.28313687444 0.300736 1.5 0.19399508834 
0.300736 1.45 0.20023547113 0.300736 1.4 0.18880701065 0.300736 1.35 0.17733044922 
0.300736 1.3 0.14392086864 0.300736 1.25 0.11291036755 0.300736 1.2 0.093017399311 
0.300736 1.15 0.074714794755 0.300736 1.1 0.063125863671 0.300736 1.05 0.056883025914 
0.300736 1 0.049352236092 0.300736 0.95 0.048999961466 0.300736 0.9 0.037454549223 
0.300736 0.85 0.024520553648 0.300736 0.8 0.014218471944 0.300736 0.75 0.013365014456 
0.300736 0.7 0.013428580947 0.300736 0.65 0.012509510852 0.300736 0.6 0.016264114529 
0.300736 0.55 0.030294796452 0.300736 0.5 0.046519454569 0.300736 0.45 0.068144336343 
0.300736 0.4 0.084360465407 0.300736 0.35 0.10757743567 0.300736 0.3 0.13541725278 
0.300736 0.25 0.16240039468 0.300736 0.2 0.19048757851 0.300736 0.15 0.2160332799 
0.300736 0.1 0.24226686358 0.300736 0.05 0.26937404275 0.300736 0 0.28301364183 
0.35052 1.5 0.21993134916 0.35052 1.45 0.21074354649 0.35052 1.4 0.20069882274 
0.35052 1.35 0.18513572216 0.35052 1.3 0.16299076378 0.35052 1.25 0.1328061223 
0.35052 1.2 0.10550812632 0.35052 1.15 0.082031287253 0.35052 1.1 0.065586566925 
0.35052 1.05 0.056990623474 0.35052 1 0.056517597288 0.35052 0.95 0.054931458086 
0.35052 0.9 0.054607693106 0.35052 0.85 0.05337350443 0.35052 0.8 0.050241623074 
0.35052 0.75 0.045401591808 0.35052 0.7 0.041764829308 0.35052 0.65 0.038181420416 
0.35052 0.6 0.049359682947 0.35052 0.55 0.053449429572 0.35052 0.5 0.075672745705 
0.35052 0.45 0.094206869602 0.35052 0.4 0.11205533147 0.35052 0.35 0.13232547045 
0.35052 0.3 0.15671758354 0.35052 0.25 0.18109157681 0.35052 0.2 0.20635579526 
0.35052 0.15 0.22770810127 0.35052 0.1 0.2528437674 0.35052 0.05 0.2771576643 
0.35052 0 0.27940580249 0.400304 1.5 0.25204959512 0.400304 1.45 0.22509554029 
0.400304 1.4 0.20716628432 0.400304 1.35 0.1947825104 0.400304 1.3 0.17563907802 
0.400304 1.25 0.15354906023 0.400304 1.2 0.12714186311 0.400304 1.15 0.096911147237 
0.400304 1.1 0.071960628033 0.400304 1.05 0.060326248407 0.400304 1 0.054314594716 
0.400304 0.95 0.055935770273 0.400304 0.9 0.058099273592 0.400304 0.85 0.061934642494 
0.400304 0.8 0.06638301909 0.400304 0.75 0.073563411832 0.400304 0.7 0.06918977201 
0.400304 0.65 0.065876871347 0.400304 0.6 0.074191533029 0.400304 0.55 0.084406323731 
0.400304 0.5 0.10563553125 0.400304 0.45 0.11836013198 0.400304 0.4 0.13537698984 
0.400304 0.35 0.15452240407 0.400304 0.3 0.17936818302 0.400304 0.25 0.20155282319 
0.400304 0.2 0.225516662 0.400304 0.15 0.24568809569 0.400304 0.1 0.26810437441 
0.400304 0.05 0.28067526221 0.400304 0 0.28164991736 0.450088 1.5 0.27532985806 
0.450088 1.45 0.24766290188 0.450088 1.4 0.22488152981 0.450088 1.35 0.20526823401 
0.450088 1.3 0.19068862498 0.450088 1.25 0.17153072357 0.450088 1.2 0.14720769227 
0.450088 1.15 0.11596622318 0.450088 1.1 0.088109925389 0.450088 1.05 0.073329091072 
0.450088 1 0.061301834881 0.450088 0.95 0.058133840561 0.450088 0.9 0.056976977736 
0.450088 0.85 0.058463647962 0.450088 0.8 0.059413637966 0.450088 0.75 0.069595433772 
0.450088 0.7 0.078614637256 0.450088 0.65 0.086750224233 0.450088 0.6 0.097102992237 
0.450088 0.55 0.10639892519 0.450088 0.5 0.12029942125 0.450088 0.45 0.13905635476 
0.450088 0.4 0.15688975155 0.450088 0.35 0.17588445544 0.450088 0.3 0.19478820264 
0.450088 0.25 0.2194506973 0.450088 0.2 0.24432092905 0.450088 0.15 0.26188328862 
0.450088 0.1 0.27877542377 0.450088 0.05 0.2811152637 0.450088 0 0.28121048212 
0.499872 1.5 0.28093001246 0.499872 1.45 0.26895985007 0.499872 1.4 0.24557968974 
0.499872 1.35 0.22204914689 0.499872 1.3 0.20475672185 0.499872 1.25 0.18913467228 
0.499872 1.2 0.16759927571 0.499872 1.15 0.14318850636 0.499872 1.1 0.11431179196 
0.499872 1.05 0.10151998699 0.499872 1 0.078661836684 0.499872 0.95 0.07907731086 
0.499872 0.9 0.066150352359 0.499872 0.85 0.064533278346 0.499872 0.8 0.06694290787 
0.499872 0.75 0.067907102406 0.499872 0.7 0.081052526832 0.499872 0.65 0.09312158078 
0.499872 0.6 0.10833848268 0.499872 0.55 0.12406221777 0.499872 0.5 0.14032669365 
0.499872 0.45 0.16283677518 0.499872 0.4 0.17921827734 0.499872 0.35 0.19811299443 
0.499872 0.3 0.22109375894 0.499872 0.25 0.24196755886 0.499872 0.2 0.26218613982 
0.499872 0.15 0.27862411737 0.499872 0.1 0.28106892109 0.499872 0.05 0.28105315566 
0.499872 0 0.28098458052 0.549656 1.5 0.28194096684 0.549656 1.45 0.27982598543 
0.549656 1.4 0.26969575882 0.549656 1.35 0.24034294486 0.549656 1.3 0.2213806957 
0.549656 1.25 0.2057915777 0.549656 1.2 0.18980820477 0.549656 1.15 0.1675965488 
0.549656 1.1 0.14790244401 0.549656 1.05 0.1315792501 0.549656 1 0.10592649877 
0.549656 0.95 0.11231791973 0.549656 0.9 0.10229380429 0.549656 0.85 0.093455515802 
0.549656 0.8 0.098017551005 0.549656 0.75 0.092814289033 0.549656 0.7 0.098240911961 
0.549656 0.65 0.11210730672 0.549656 0.6 0.13140699267 0.549656 0.55 0.14442101121 
0.549656 0.5 0.16404305398 0.549656 0.45 0.18717969954 0.549656 0.4 0.20648564398 
0.549656 0.35 0.22647382319 0.549656 0.3 0.24663420022 0.549656 0.25 0.26602104306 
0.549656 0.2 0.27693924308 0.549656 0.15 0.27970176935 0.549656 0.1 0.28026017547 
0.549656 0.05 0.28016328812 0.549656 0 0.28018698096 0.59944 1.5 0.28204590082 
0.59944 1.45 0.28057417274 0.59944 1.4 0.27947312593 0.59944 1.35 0.26847994328 
0.59944 1.3 0.24638035893 0.59944 1.25 0.22713595629 0.59944 1.2 0.21167001128 
0.59944 1.15 0.19623626769 0.59944 1.1 0.17745691538 0.59944 1.05 0.1536591202 
0.59944 1 0.13844637573 0.59944 0.95 0.14289885759 0.59944 0.9 0.13580177724 
0.59944 0.85 0.13281977177 0.59944 0.8 0.1312892884 0.59944 0.75 0.13088361919 
0.59944 0.7 0.13225881755 0.59944 0.65 0.14174735546 0.59944 0.6 0.16041781008 
[...]
CELL_DATA 9090
FIELD FieldData 7
B_Stress_n_p_m2 1 9090 float
0.429172 0.442108 0.447768 0.448555 0.451014 0.456311 0.464039 0.469144 0.466638 
0.457241 0.44758 0.432916 0.407477 0.358983 0.2609 0.134256 0.0740516 0.0678951 
0.0534542 0.0404092 0.0338977 0.0293296 0.0260138 0.0238921 0.0225076 0.0225586 0.020602 
0.0164039 0.0265382 0.0247305 0.416482 0.428393 0.435173 0.432205 0.430113 0.432126 
0.437643 0.444614 0.447114 0.439219 0.424908 0.411713 0.390165 0.357021 0.304146 
0.240896 0.183339 0.138699 0.110638 0.0912642 0.0763433 0.0642782 0.0559123 0.048754 
0.042324 0.0371376 0.0334817 0.0268537 0.0227257 0.0464426 0.405037 0.415923 0.421694 
0.417333 0.410413 0.409162 0.411265 0.415298 0.417345 0.414307 0.402532 0.385079 
0.360463 0.327974 0.284314 0.233173 0.187945 0.152334 0.125962 0.106155 0.0905596 
0.0784933 0.0690229 0.0609595 0.0538195 0.0481062 0.0432685 0.0386943 0.0369375 0.0417978 
0.394246 0.406058 0.409799 0.406863 0.397581 0.391675 0.388633 0.387181 0.386594 
0.384568 0.377894 0.361604 0.338725 0.306358 0.270744 0.231056 0.194499 0.16431 
0.140031 0.12163 0.106528 0.0939816 0.0838396 0.07555 0.0685207 0.0629384 0.0585985 
0.05574 0.0549978 0.0560911 0.390173 0.401421 0.402356 0.400403 0.391629 0.381208 
0.37238 0.364343 0.358756 0.354665 0.34813 0.337719 0.318734 0.294594 0.264874 
0.232355 0.201428 0.175096 0.153618 0.13721 0.122668 0.110636 0.100471 0.0924941 
0.0860581 0.0810381 0.0775153 0.075729 0.0752545 0.0755139 0.407503 0.405802 0.402315 
0.397602 0.39048 0.378026 0.362782 0.348754 0.33831 0.329507 0.321455 0.310366 
0.296539 0.279285 0.258161 0.232688 0.207698 0.18577 0.16831 0.152829 0.140173 
0.128762 0.11949 0.112151 0.106708 0.10296 0.100659 0.0995289 0.0983804 0.0984142 
0.444681 0.425427 0.409632 0.401139 0.391901 0.378872 0.361662 0.34353 0.329167 
0.31584 0.303467 0.289963 0.275929 0.26083 0.244638 0.228303 0.210738 0.194707 
0.18074 0.16848 0.158296 0.148277 0.140522 0.134682 0.131192 0.12934 0.128385 
0.126467 0.123647 0.122058 0.480703 0.456898 0.430749 0.412099 0.399854 0.386008 
0.368863 0.350377 0.333999 0.316963 0.302104 0.285209 0.26896 0.254199 0.238663 
0.225659 0.214395 0.204536 0.194906 0.186562 0.179463 0.173204 0.167893 0.164405 
0.162187 0.16102 0.158924 0.154029 0.1486 0.145095 0.497526 0.489048 0.464656 
0.436795 0.4164 0.401014 0.384249 0.367299 0.348526 0.331346 0.3149 0.299103 
0.280945 0.265621 0.251168 0.237883 0.229276 0.223107 0.217804 0.214061 0.210753 
0.208597 0.205177 0.202863 0.20043 0.195374 0.187979 0.179857 0.171337 0.166991 
0.499427 0.50331 0.500362 0.476476 0.448533 0.42523 0.407233 0.388694 0.36942 
0.351948 0.336505 0.323495 0.307603 0.291251 0.277981 0.265252 0.256802 0.25272 
0.25166 0.250372 0.248525 0.247175 0.244916 0.241594 0.235017 0.224898 0.212836 
0.201374 0.192695 0.188161 0.497593 0.502901 0.510656 0.51121 0.491853 0.463744 
0.438618 0.417035 0.396656 0.377349 0.363764 0.352721 0.339486 0.325886 0.311937 
0.301028 0.29202 0.285485 0.282745 0.281177 0.278041 0.271706 0.268459 0.262604 
0.255555 0.244716 0.232116 0.221516 0.213609 0.209104 0.498125 0.503023 0.509438 
0.517672 0.521495 0.508785 0.484648 0.458486 0.434455 0.414624 0.398577 0.386647 
0.376143 0.366463 0.354807 0.34399 0.332615 0.320779 0.309833 0.301017 0.294518 
0.285349 0.277923 0.272147 0.26634 0.259187 0.249814 0.240869 0.233656 0.229062 
0.499471 0.505316 0.510824 0.517054 0.525074 0.530379 0.526496 0.509919 0.487466 
0.465285 0.450677 0.434924 0.423804 0.416085 0.408003 0.396543 0.381506 0.365171 
0.347162 0.32848 0.315099 0.307177 0.299 0.291848 0.284292 0.276145 0.268123 
0.2592 0.25197 0.247104 0.499012 0.50583 0.511726 0.517179 0.522987 0.530268 
0.536895 0.539478 0.532958 0.520129 0.505826 0.495715 0.482429 0.4711 0.461857 
0.449598 0.434711 0.415728 0.396663 0.376994 0.356063 0.342927 0.33406 0.323165 
0.310608 0.298604 0.286684 0.276913 0.269624 0.264677 0.500606 0.50701 0.513516 
0.519581 0.525325 0.531219 0.537095 0.543896 0.549248 0.550278 0.543979 0.537008 
0.527379 0.515239 0.501628 0.487403 0.472588 0.456985 0.440868 0.423764 0.40505 
0.386556 0.369507 0.35445 0.336835 0.321045 0.307453 0.297321 0.289727 0.285065 
0.507789 0.51366 0.520219 0.526635 0.532582 0.538086 0.542983 0.54742 0.551953 
0.55537 0.555333 0.550304 0.543105 0.53293 0.519871 0.505831 0.491474 0.477689 
0.463098 0.447866 0.432853 0.415608 0.3964 0.377565 0.359709 0.343857 0.33093 
0.320688 0.312831 0.308361 0.513038 0.518446 0.52464 0.530605 0.536001 0.540717 
0.544782 0.547924 0.550076 0.551047 0.550317 0.546267 0.539576 0.530662 0.519897 
0.507851 0.495073 0.481868 0.468128 0.454097 0.439869 0.424829 0.408647 0.391545 
0.376096 0.362237 0.350376 0.340494 0.332784 0.328506 0.510889 0.516282 0.522061 
0.527382 0.532028 0.535941 0.539072 0.541281 0.542409 0.54218 0.540234 0.536132 
0.530062 0.522219 0.512871 0.502393 0.491128 0.479289 0.46692 0.45413 0.440981 
0.427385 0.413418 0.399378 0.386114 0.373961 0.363263 0.354145 0.346829 0.342397 
0.506284 0.512076 0.517542 0.522375 0.526462 0.529757 0.532204 0.533708 0.534146 
0.533332 0.531046 0.527112 0.521601 0.514642 0.506427 0.497209 0.487226 0.476651 
0.465574 0.454092 0.44228 0.430171 0.4179 0.405741 0.394124 0.383354 0.373693 
0.365287 0.358338 0.353526 0.501952 0.507967 0.513221 0.5177 0.521369 0.524199 
0.526148 0.527155 0.527136 0.525981 0.523574 0.519835 0.514801 0.508569 0.501281 
0.493113 0.484237 0.474793 0.464885 0.454609 0.444051 0.43329 0.422458 0.411766 
0.401491 0.391864 0.383085 0.375291 0.368644 0.363605 0.497829 0.503873 0.508976 
0.513205 0.516567 0.519056 0.520654 0.521327 0.521027 0.519696 0.51728 0.513751 
0.509143 0.503531 0.497024 0.48975 0.48184 0.47341 0.464558 0.455377 0.445954 
0.436379 0.426773 0.417295 0.408134 0.399462 0.39143 0.384152 0.377763 0.372634 
0.493857 0.499866 0.504852 0.5089 0.512042 0.514291 0.515651 0.516111 0.515655 
0.514261 0.511912 0.50861 0.504393 0.499325 0.493491 0.486992 0.479931 0.472404 
0.464499 0.4563 0.44789 0.439355 0.430796 0.422334 0.414105 0.406232 0.398833 
0.391995 0.385832 0.380661 0.490062 0.496023 0.500915 0.504831 0.507818 0.509905 
0.511112 0.51145 0.510925 0.50954 0.507306 0.504242 0.500389 0.495805 0.490563 
0.484743 0.47843 0.471704 0.464642 0.457318 0.449804 0.442176 0.434516 0.426917 
0.419473 0.412278 0.405415 0.398955 0.392987 0.387788 0.486467 0.49238 0.497197 
0.501019 0.503902 0.505885 0.507003 0.507283 0.506749 0.505423 0.503332 0.500508 
0.496996 0.492849 0.488132 0.482913 0.477262 0.471246 0.464932 0.458382 0.451657 
0.44482 0.437936 0.431073 0.424299 0.417679 0.411275 0.405138 0.399339 0.394117 
0.483086 0.488955 0.493715 0.497471 0.500286 0.502209 0.503285 0.503554 0.503052 
0.501817 0.499886 0.4973 0.494106 0.490357 0.48611 0.481424 0.47636 0.470974 
0.465321 0.459454 0.453424 0.447278 0.441065 0.434835 0.428635 0.422508 0.416497 
0.410637 0.404984 0.39974 0.479929 0.485758 0.490475 0.494187 0.496963 0.498858 
0.499925 0.500215 0.499774 0.498648 0.496885 0.49453 0.491634 0.488247 0.484422 
0.480213 0.47567 0.470842 0.465775 0.460511 0.45509 0.449547 0.443918 0.438236 
0.432529 0.426827 0.421154 0.415532 0.410004 0.40474 0.476997 0.482791 0.487475 
0.49116 0.493917 0.495807 0.49689 0.497222 0.49686 0.495855 0.494261 0.492129 
0.489509 0.486453 0.483009 0.479226 0.475147 0.470815 0.466266 0.461534 0.456648 
0.451634 0.446513 0.441306 0.436028 0.430691 0.425311 0.419895 0.414474 0.409191 
0.474289 0.48005 0.48471 0.48838 0.491134 0.493035 0.494149 0.494539 0.494265 
0.493386 0.491959 0.490038 0.487676 0.484921 0.481821 0.478419 0.474755 0.470862 
0.466772 0.46251 0.458095 0.453544 0.448869 0.444075 0.439169 0.434151 0.429024 
0.423786 0.418458 0.413157 0.471797 0.477528 0.482171 0.485835 0.488596 0.490519 
0.491676 0.492131 0.491951 0.491198 0.489933 0.488211 0.486087 0.483607 0.480818 
0.477758 0.474463 0.470962 0.467279 0.463431 0.459432 0.455289 0.451003 0.446572 
0.441991 0.43725 0.432344 0.427261 0.422013 0.416697 0.469512 0.475217 0.479848 
0.483512 0.486286 0.488239 0.489443 0.489969 0.489884 0.489255 0.488144 0.486609 
0.484703 0.482474 0.479965 0.477213 0.474249 0.471096 0.467774 0.464294 0.460662 
0.456877 0.452934 0.448822 0.444525 0.440028 0.435314 0.430368 0.425189 0.419858 
0.467424 0.473105 0.477727 0.481396 0.484187 0.486174 0.487429 0.488026 0.488035 
0.487525 0.486559 0.485198 0.483493 0.481492 0.479237 0.476761 0.474092 0.47125 
0.468249 0.465095 0.461788 0.458321 0.45468 0.450848 0.446802 0.442519 0.437975 
0.433147 0.42803 0.422686 0.465522 0.47118 0.475796 0.479472 0.482284 0.484306 
0.485613 0.486279 0.486379 0.485981 0.485152 0.48395 0.48243 0.480637 0.47861 
0.476383 0.473978 0.471414 0.468699 0.465835 0.462816 0.459629 0.456256 0.452672 
0.448848 0.444753 0.440359 0.435637 0.430574 0.425219 0.463793 0.469431 0.474042 
0.477726 0.48056 0.482617 0.483974 0.484708 0.484894 0.484602 0.483898 0.482844 
0.481491 0.479886 0.478067 0.476062 0.473895 0.471579 0.469119 0.466513 0.46375 
0.460814 0.457678 0.454314 0.450687 0.44676 0.442499 0.43787 0.432854 0.42749 
0.462226 0.467845 0.472452 0.476145 0.479 0.481091 0.482497 0.483294 0.48356 
0.483366 0.482779 0.481859 0.480659 0.479225 0.477592 0.475788 0.473834 0.47174 
0.469508 0.467132 0.464598 0.461884 0.45896 0.455792 0.45234 0.448563 0.44442 
0.439875 0.434902 0.429529 0.460808 0.46641 0.471014 0.474716 0.477591 0.479714 
0.481164 0.482021 0.482361 0.482256 0.481776 0.480979 0.479918 0.478638 0.477173 
0.47555 0.473787 0.471892 0.469864 0.467694 0.465365 0.462849 0.460115 0.457122 
0.453827 0.450183 0.446147 0.441676 0.436742 0.431362 0.459529 0.465114 0.469716 
0.473425 0.476318 0.478471 0.479963 0.480873 0.481281 0.481259 0.480875 0.48019 
0.479255 0.478114 0.476801 0.47534 0.473749 0.472032 0.470187 0.468202 0.466056 
0.463719 0.461154 0.458319 0.455164 0.451641 0.447701 0.443298 0.438398 0.433012 
0.458376 0.463947 0.468546 0.472262 0.475171 0.47735 0.478879 0.479839 0.480308 
0.48036 0.480064 0.479479 0.478658 0.477643 0.476466 0.475152 0.473715 0.472158 
0.470478 0.468659 0.466677 0.464501 0.462089 0.459395 0.456368 0.452954 0.449101 
0.444759 0.439891 0.4345 0.457341 0.462897 0.467493 0.471215 0.474139 0.476341 
0.477902 0.478906 0.479429 0.479549 0.479331 0.478837 0.478119 0.477216 0.476163 
0.474981 0.473682 0.47227 0.470737 0.469067 0.467234 0.465202 0.462929 0.460364 
0.457452 0.454137 0.450363 0.446077 0.441239 0.435844 0.456413 0.461956 0.466548 
0.470274 0.473209 0.475431 0.477022 0.478063 0.478636 0.478814 0.478668 0.478255 
0.477628 0.476828 0.475885 0.474821 0.473648 0.472365 0.470966 0.469431 0.467732 
0.465831 0.463683 0.461235 0.458428 0.455204 0.451502 0.447267 0.442456 0.437059 
0.455583 0.461113 0.465702 0.46943 0.472374 0.474612 0.476227 0.477302 0.477917 
0.478149 0.478065 0.477725 0.477181 0.476472 0.475629 0.474671 0.47361 0.472445 
0.471166 0.469753 0.468175 0.466394 0.46436 0.462018 0.459308 0.456166 0.452531 
0.448344 0.443559 0.43816 0.454842 0.460361 0.464945 0.468674 0.471625 0.473876 
0.475511 0.476614 0.477266 0.477544 0.477516 0.477241 0.47677 0.476143 0.475389 
0.474528 0.473568 0.472509 0.471339 0.470036 0.468569 0.466896 0.464966 0.462722 
0.460101 0.457036 0.453463 0.44932 0.444559 0.439159 0.454184 0.459691 0.46427 
0.467999 0.470953 0.473214 0.474865 0.475991 0.476675 0.476993 0.477014 0.476797 
0.476392 0.475838 0.475164 0.474389 0.473521 0.472558 0.471486 0.470284 0.468917 
0.467343 0.465509 0.463355 0.460816 0.457822 0.454307 0.450206 0.445468 0.440067 
0.453601 0.459097 0.463669 0.467396 0.470352 0.472619 0.474282 0.475428 0.476138 
0.47649 0.476554 0.476387 0.47604 0.475552 0.474951 0.474253 0.473468 0.472591 
0.471609 0.470498 0.469224 0.467741 0.465995 0.463924 0.461461 0.458534 0.455072 
0.451011 0.446295 0.440894 0.453086 0.458571 0.463137 0.466859 0.469814 0.472085 
0.473756 0.474917 0.475649 0.47603 0.47613 0.476008 0.475713 0.475284 0.474747 
0.474119 0.473408 0.47261 0.47171 0.470682 0.469492 0.468093 0.466429 0.464436 
0.462044 0.459179 0.455768 0.451744 0.447049 0.44165 0.452633 0.458108 0.462666 
0.466383 0.469335 0.471605 0.473282 0.474453 0.475202 0.475608 0.47574 0.475657 
0.475407 0.47503 0.47455 0.473986 0.473343 0.472615 0.471789 0.470838 0.469725 
0.468404 0.466816 0.464895 0.46257 0.459764 0.456402 0.452414 0.447739 0.442341 
0.452237 0.457702 0.462252 0.465961 0.468907 0.471175 0.472854 0.474032 0.474794 
0.475219 0.475378 0.475328 0.475119 0.474788 0.47436 0.473853 0.47327 0.472608 
0.471849 0.470968 0.469927 0.468678 0.46716 0.465308 0.463045 0.460295 0.45698 
0.453026 0.448371 0.442976 0.451892 0.457348 0.461889 0.465589 0.468528 0.47079 
0.472467 0.473648 0.47442 0.474861 0.475041 0.475021 0.474847 0.474556 0.474175 
0.473719 0.473191 0.472588 0.471891 0.471075 0.4701 0.468917 0.467466 0.465678 
0.463475 0.460779 0.457508 0.453587 0.448952 0.44356 0.451595 0.457041 0.461572 
0.465262 0.468191 0.470446 0.472118 0.473299 0.474076 0.474529 0.474728 0.474732 
0.474588 0.474334 0.473994 0.473584 0.473106 0.472556 0.471917 0.47116 0.470247 
0.469126 0.467738 0.46601 0.463865 0.461219 0.457992 0.454103 0.449487 0.444098 
0.451342 0.456778 0.461298 0.464976 0.467893 0.470137 0.471802 0.47298 0.473759 
0.474221 0.474434 0.474458 0.474342 0.474119 0.473816 0.473447 0.473015 0.472514 
0.471927 0.471225 0.470369 0.469308 0.467978 0.466308 0.464218 0.461622 0.458436 
0.454579 0.449982 0.444597 0.451127 0.456554 0.461063 0.464727 0.46763 0.469862 
0.471517 0.472688 0.473467 0.473933 0.474158 0.474199 0.474105 0.473911 0.473641 
0.473309 0.472918 0.472462 0.471923 0.471272 0.470469 0.469463 0.46819 0.466575 
0.464537 0.461989 0.458844 0.455018 0.450441 0.44506 0.450949 0.456366 0.460862 
0.464513 0.4674 0.469616 0.471258 0.472421 0.473196 0.473664 0.473897 0.473952 
0.473878 0.473708 0.473468 0.473169 0.472816 0.4724 0.471905 0.471302 0.47055 
0.469596 0.468376 0.466814 0.464827 0.462326 0.459221 0.455426 0.450868 0.445492 
0.450804 0.456211 0.460694 0.464328 0.467198 0.469397 0.471024 0.472176 0.472945 
0.473412 0.47365 0.473716 0.473658 0.47351 0.473296 0.473027 0.472708 0.47233 
0.471876 0.471317 0.470612 0.469707 0.468538 0.467028 0.465091 0.462635 0.459569 
0.455805 0.451267 0.445896 0.450689 0.456087 0.460556 0.464172 0.467023 0.469202 
0.470812 0.47195 0.47271 0.473174 0.473415 0.47349 0.473445 0.473316 0.473124 
0.472883 0.472594 0.472251 0.471835 0.471317 0.470657 0.4698 0.46868 0.467219 
0.46533 0.46292 0.459893 0.45616 0.45164 0.446276 0.450601 0.45599 0.460444 
0.464042 0.466871 0.469029 0.470619 0.471742 0.472491 0.472949 0.47319 0.473271 
0.473238 0.473125 0.472954 0.472737 0.472477 0.472165 0.471784 0.471305 0.470686 
0.469874 0.468802 0.46739 0.465548 0.463182 0.460194 0.456492 0.451992 0.446634 
0.45054 0.455918 0.460357 0.463934 0.46674 0.468876 0.470444 0.471549 0.472284 
0.472736 0.472975 0.47306 0.473036 0.472937 0.472784 0.472589 0.472354 0.472071 
0.471723 0.471281 0.470702 0.469933 0.468906 0.467541 0.465747 0.463425 0.460476 
0.456804 0.452324 0.446973 0.450502 0.45587 0.460292 0.463848 0.46663 0.46874 
0.470285 0.47137 0.47209 0.472532 0.472767 0.472854 0.472838 0.472751 0.472614 
0.472438 0.472227 0.471971 0.471654 0.471245 0.470705 0.469977 0.468995 0.467676 
0.465928 0.46365 0.46074 0.457099 0.45264 0.447296 0.450485 0.455843 0.460248 
0.463781 0.466536 0.468619 0.470139 0.471202 0.471906 0.472337 0.472567 0.472655 
0.472644 0.472566 0.472443 0.472286 0.472096 0.471865 0.471576 0.4712 0.470695 
0.470008 0.469069 0.467796 0.466093 0.463859 0.460988 0.457379 0.452941 0.447605 
0.450489 0.455837 0.460223 0.463732 0.466459 0.468514 0.470006 0.471046 0.471731 
0.472149 0.472373 0.472459 0.472452 0.472383 0.472273 0.472132 0.471961 0.471753 
0.47149 0.471145 0.470675 0.470026 0.46913 0.467901 0.466244 0.464054 0.461223 
0.457645 0.453229 0.447902 0.450512 0.455848 0.460216 0.463699 0.466397 0.46842 
0.469884 0.470899 0.471564 0.471968 0.472184 0.472268 0.472263 0.472201 0.472102 
0.471975 0.471822 0.471635 0.471398 0.471081 0.470644 0.470033 0.469178 0.467994 
0.466382 0.464237 0.461445 0.457901 0.453506 0.448188 0.450552 0.455878 0.460225 
0.463681 0.466347 0.468339 0.469772 0.47076 0.471404 0.471793 0.471999 0.472079 
0.472076 0.47202 0.47193 0.471817 0.47168 0.471513 0.471298 0.471009 0.470604 
0.47003 0.469215 0.468075 0.466509 0.464408 0.461657 0.458146 0.453774 0.448465 
0.450609 0.455923 0.460249 0.463676 0.46631 0.468267 0.469668 0.470628 0.47125 
0.471622 0.471818 0.471894 0.471891 0.47184 0.471758 0.471656 0.471534 0.471385 
0.471193 0.47093 0.470556 0.470016 0.469242 0.468145 0.466625 0.464569 0.46186 
0.458383 0.454035 0.448735 0.450681 0.455983 0.460287 0.463684 0.466283 0.468205 
0.469572 0.470502 0.4711 0.471455 0.47164 0.47171 0.471707 0.47166 0.471585 
0.471494 0.471386 0.471254 0.471082 0.470843 0.470499 0.469994 0.469259 0.468206 
0.466731 0.464721 0.462054 0.458612 0.454288 0.449 0.450768 0.456057 0.460338 
0.463704 0.466267 0.468151 0.469483 0.470382 0.470955 0.471292 0.471465 0.471529 
0.471524 0.47148 0.471412 0.47133 0.471234 0.471118 0.470965 0.47075 0.470434 
0.469963 0.469267 0.468257 0.466829 0.464866 0.462242 0.458836 0.454537 0.44926 
0.450868 0.456145 0.460402 0.463734 0.466259 0.468104 0.469399 0.470266 0.470813 
0.471131 0.471291 0.471348 0.471342 0.4713 0.471237 0.471164 0.471079 0.470978 
0.470843 0.470651 0.470362 0.469924 0.469266 0.4683 0.466919 0.465003 0.462423 
0.459054 0.454782 0.449516 0.450982 0.456245 0.460476 0.463774 0.466259 0.468063 
0.46932 0.470154 0.470674 0.470972 0.471119 0.471169 0.471161 0.47112 0.471062 
0.470996 0.470922 0.470834 0.470717 0.470545 0.470283 0.469878 0.469258 0.468335 
0.467001 0.465133 0.462599 0.459269 0.455024 0.44977 0.451109 0.456358 0.460562 
0.463823 0.466266 0.468028 0.469245 0.470045 0.470538 0.470815 0.470949 0.470991 
0.470979 0.470939 0.470886 0.470827 0.470763 0.470687 0.470586 0.470435 0.470198 
0.469824 0.469242 0.468363 0.467077 0.465258 0.462771 0.459481 0.455264 0.450023 
0.451248 0.456482 0.460658 0.463881 0.46628 0.467997 0.469173 0.469937 0.470402 
0.470659 0.470779 0.470813 0.470798 0.470759 0.470709 0.470656 0.470601 0.470536 
0.47045 0.470319 0.470107 0.469764 0.46922 0.468384 0.467146 0.465378 0.462939 
0.45969 0.455503 0.450276 0.451399 0.456618 0.460764 0.463947 0.4663 0.467971 
0.469104 0.469832 0.470268 0.470504 0.470609 0.470635 0.470617 0.470578 0.470531 
0.470484 0.470436 0.470383 0.470311 0.470198 0.47001 0.469697 0.46919 0.468398 
0.46721 0.465493 0.463104 0.459898 0.455742 0.450529 0.451562 0.456765 0.460879 
0.464019 0.466325 0.467948 0.469037 0.469728 0.470134 0.470349 0.47044 0.470458 
0.470436 0.470397 0.470353 0.47031 0.47027 0.470227 0.470168 0.470072 0.469907 
0.469624 0.469154 0.468406 0.467268 0.465604 0.463266 0.460105 0.455981 0.450784 
0.451736 0.456922 0.461004 0.464099 0.466355 0.467928 0.468972 0.469624 0.470001 
0.470194 0.47027 0.47028 0.470254 0.470215 0.470173 0.470135 0.470102 0.470068 
0.470021 0.469942 0.469799 0.469545 0.469111 0.468408 0.46732 0.46571 0.463426 
0.460312 0.456222 0.451041 0.451921 0.45709 0.461136 0.464185 0.466389 0.46791 
0.468907 0.46952 0.469867 0.470038 0.470101 0.470102 0.470073 0.470033 0.469993 
0.469959 0.469932 0.469906 0.469871 0.469808 0.469686 0.46946 0.469063 0.468404 
0.467368 0.465814 0.463585 0.460519 0.456465 0.451302 0.452119 0.457268 0.461278 
0.464277 0.466426 0.467893 0.468842 0.469416 0.469732 0.469882 0.46993 0.469923 
0.46989 0.46985 0.469812 0.469782 0.46976 0.469742 0.469718 0.469669 0.469568 
0.46937 0.469008 0.468394 0.46741 0.465914 0.463742 0.460727 0.456711 0.451566 
0.452327 0.457457 0.461427 0.464375 0.466466 0.467878 0.468777 0.46931 0.469596 
0.469724 0.469759 0.469744 0.469708 0.469667 0.469631 0.469604 0.469587 0.469576 
0.469561 0.469527 0.469446 0.469274 0.468948 0.468378 0.467448 0.46601 0.463898 
0.460937 0.456961 0.451835 0.452547 0.457656 0.461585 0.464478 0.466509 0.467863 
0.468711 0.469204 0.469459 0.469566 0.469587 0.469565 0.469525 0.469483 0.469448 