# vtk DataFile Version 5.1
vtk output
ASCII
DATASET UNSTRUCTURED_GRID
POINTS 9610 double
0.1016 1.5 0.1439999938 0.1016 1.45 0.16599999368 0.1016 1.4 0.15700000525 
0.1016 1.35 0.13199999928 0.1016 1.3 0.10700000077 0.1016 1.25 0.090000003576 
0.1016 1.2 0.075999997556 0.1016 1.15 0.059999998659 0.1016 1.1 0.0270000007 
0.1016 1.05 0 0.1016 1 -1.4520933349e-19 0.1016 0.95 -1.9172115972e-20 
0.1016 0.9 -1.9935036607e-21 0.1016 0.85 1.2043517074e-19 0.1016 0.8 2.5499320644e-20 
0.1016 0.75 -2.7692611041e-19 0.1016 0.7 0.0017266095383 0.1016 0.65 0.006275348831 
0.1016 0.6 0.015275382437 0.1016 0.55 0.034349132329 0.1016 0.5 0.057032302022 
0.1016 0.45 0.069950312376 0.1016 0.4 0.088548511267 0.1016 0.35 0.1118433848 
0.1016 0.3 0.13683372736 0.1016 0.25 0.16178821027 0.1016 0.2 0.18516084552 
0.1016 0.15 0.20709982514 0.1016 0.1 0.23110230267 0.1016 0.05 0.2536047399 
0.1016 0 0.2658187151 5.08 1.5 0.28700000048 5.08 1.45 0.28700000048 
5.08 1.4 0.28700000048 5.08 1.35 0.28700000048 5.08 1.3 0.28700000048 
5.08 1.25 0.28700000048 5.08 1.2 0.28700000048 5.08 1.15 0.28700000048 
5.08 1.1 0.28700000048 5.08 1.05 0.28700000048 5.08 1 0.28700000048 
5.08 0.95 0.28700000048 5.08 0.9 0.28700000048 5.08 0.85 0.28700000048 
5.08 0.8 0.28700000048 5.08 0.75 0.28700000048 5.08 0.7 0.28700000048 
5.08 0.65 0.28700000048 5.08 0.6 0.28700000048 5.08 0.55 0.28700000048 
5.08 0.5 0.28700000048 5.08 0.45 0.28700000048 5.08 0.4 0.28700000048 
5.08 0.35 0.28700000048 5.08 0.3 0.28700000048 5.08 0.25 0.28700000048 
5.08 0.2 0.28700000048 5.08 0.15 0.28700000048 5.08 0.1 0.28700000048 
5.08 0.05 0.28700000048 5.08 0 0.28700000048 0.151384 1.5 0.1567479223 
0.151384 1.45 0.17286509275 0.151384 1.4 0.17073737085 0.151384 1.35 0.14572574198 
0.151384 1.3 0.11582919955 0.151384 1.25 0.092948384583 0.151384 1.2 0.07700818032 
0.151384 1.15 0.068851865828 0.151384 1.1 0.049543965608 0.151384 1.05 0.021516673267 
0.151384 1 -3.315127833e-05 0.151384 0.95 7.8876604448e-07 0.151384 0.9 1.059683018e-05 
0.151384 0.85 9.8040231933e-07 0.151384 0.8 -2.1849093628e-06 0.151384 0.75 -3.5226723867e-06 
0.151384 0.7 1.8499395082e-05 0.151384 0.65 7.9339341028e-05 0.151384 0.6 0.00023758161115 
0.151384 0.55 0.014358749613 0.151384 0.5 0.042242851108 0.151384 0.45 0.043471399695 
0.151384 0.4 0.067320547998 0.151384 0.35 0.092297673225 0.151384 0.3 0.11927485466 
0.151384 0.25 0.14625304937 0.151384 0.2 0.17221662402 0.151384 0.15 0.19618578255 
0.151384 0.1 0.22608478367 0.151384 0.05 0.25985249877 0.151384 0 0.27087309957 
0.201168 1.5 0.16561856866 0.201168 1.45 0.17871999741 0.201168 1.4 0.17676354945 
0.201168 1.35 0.15559522808 0.201168 1.3 0.11983888596 0.201168 1.25 0.094892024994 
0.201168 1.2 0.078920572996 0.201168 1.15 0.070950694382 0.201168 1.1 0.057784538716 
0.201168 1.05 0.041227802634 0.201168 1 0.013341243379 0.201168 0.95 0.00081337126903 
0.201168 0.9 -9.6729381767e-05 0.201168 0.85 4.3826066758e-06 0.201168 0.8 2.196150308e-05 
0.201168 0.75 1.559098564e-05 0.201168 0.7 8.7562120825e-06 0.201168 0.65 -2.372284689e-05 
0.201168 0.6 0.00089719501557 0.201168 0.55 0.010063622147 0.201168 0.5 0.024555742741 
0.201168 0.45 0.041900422424 0.201168 0.4 0.064939498901 0.201168 0.35 0.092852219939 
0.201168 0.3 0.11602818966 0.201168 0.25 0.14302745461 0.201168 0.2 0.16709972918 
0.201168 0.15 0.19493468106 0.201168 0.1 0.22787478566 0.201168 0.05 0.26000612974 
0.201168 0 0.28352585435 0.250952 1.5 0.18197776377 0.250952 1.45 0.19118845463 
0.250952 1.4 0.18549700081 0.250952 1.35 0.16912814975 0.250952 1.3 0.13124585152 
0.250952 1.25 0.10149205476 0.250952 1.2 0.082699075341 0.250952 1.15 0.071913905442 
0.250952 1.1 0.063713997602 0.250952 1.05 0.053379669785 0.250952 1 0.037508849055 
0.250952 0.95 0.021492445841 0.250952 0.9 0.01854711771 0.250952 0.85 -0.00016757083358 
0.250952 0.8 -0.00013697004761 0.250952 0.75 -9.2888512881e-05 0.250952 0.7 -9.8218530184e-05 
0.250952 0.65 -9.6964897239e-05 0.250952 0.6 0.00091851141769 0.250952 0.55 0.013585589826 
0.250952 0.5 0.031274244189 0.250952 0.45 0.049358397722 0.250952 0.4 0.068670272827 
0.250952 0.35 0.094783261418 0.250952 0.3 0.11963667721 0.250952 0.25 0.14563524723 
0.250952 0.2 0.17340396345 0.250952 0.15 0.20428460836 0.250952 0.1 0.23357948661 
0.250952 0.05 0.26278209686 0.250952 0 0.28313687444 0.300736 1.5 0.19399508834 
0.300736 1.45 0.20023547113 0.300736 1.4 0.18880701065 0.300736 1.35 0.17733044922 
0.300736 1.3 0.14392086864 0.300736 1.25 0.11291036755 0.300736 1.2 0.093017399311 
0.300736 1.15 0.074714794755 0.300736 1.1 0.063125863671 0.300736 1.05 0.056883025914 
0.300736 1 0.049352236092 0.300736 0.95 0.048999961466 0.300736 0.9 0.037454549223 
0.300736 0.85 0.024520553648 0.300736 0.8 0.014218471944 0.300736 0.75 0.013365014456 
0.300736 0.7 0.013428580947 0.300736 0.65 0.012509510852 0.300736 0.6 0.016264114529 
0.300736 0.55 0.030294796452 0.300736 0.5 0.046519454569 0.300736 0.45 0.068144336343 
0.300736 0.4 0.084360465407 0.300736 0.35 0.10757743567 0.300736 0.3 0.13541725278 
0.300736 0.25 0.16240039468 0.300736 0.2 0.19048757851 0.300736 0.15 0.2160332799 
0.300736 0.1 0.24226686358 0.300736 0.05 0.26937404275 0.300736 0 0.28301364183 
0.35052 1.5 0.21993134916 0.35052 1.45 0.21074354649 0.35052 1.4 0.20069882274 
0.35052 1.35 0.18513572216 0.35052 1.3 0.16299076378 0.35052 1.25 0.1328061223 
0.35052 1.2 0.10550812632 0.35052 1.15 0.082031287253 0.35052 1.1 0.065586566925 
0.35052 1.05 0.056990623474 0.35052 1 0.056517597288 0.35052 0.95 0.054931458086 
0.35052 0.9 0.054607693106 0.35052 0.85 0.05337350443 0.35052 0.8 0.050241623074 
0.35052 0.75 0.045401591808 0.35052 0.7 0.041764829308 0.35052 0.65 0.038181420416 
0.35052 0.6 0.049359682947 0.35052 0.55 0.053449429572 0.35052 0.5 0.075672745705 
0.35052 0.45 0.094206869602 0.35052 0.4 0.11205533147 0.35052 0.35 0.13232547045 
0.35052 0.3 0.15671758354 0.35052 0.25 0.18109157681 0.35052 0.2 0.20635579526 
0.35052 0.15 0.22770810127 0.35052 0.1 0.2528437674 0.35052 0.05 0.2771576643 
0.35052 0 0.27940580249 0.400304 1.5 0.25204959512 0.400304 1.45 0.22509554029 
0.400304 1.4 0.20716628432 0.400304 1.35 0.1947825104 0.400304 1.3 0.17563907802 
0.400304 1.25 0.15354906023 0.400304 1.2 0.12714186311 0.400304 1.15 0.096911147237 
0.400304 1.1 0.071960628033 0.400304 1.05 0.060326248407 0.400304 1 0.054314594716 
0.400304 0.95 0.055935770273 0.400304 0.9 0.058099273592 0.400304 0.85 0.061934642494 
0.400304 0.8 0.06638301909 0.400304 0.75 0.073563411832 0.400304 0.7 0.06918977201 
0.400304 0.65 0.065876871347 0.400304 0.6 0.074191533029 0.400304 0.55 0.084406323731 
0.400304 0.5 0.10563553125 0.400304 0.45 0.11836013198 0.400304 0.4 0.13537698984 
0.400304 0.35 0.15452240407 0.400304 0.3 0.17936818302 0.400304 0.25 0.20155282319 
0.400304 0.2 0.225516662 0.400304 0.15 0.24568809569 0.400304 0.1 0.26810437441 
0.400304 0.05 0.28067526221 0.400304 0 0.28164991736 0.450088 1.5 0.27532985806 
0.450088 1.45 0.24766290188 0.450088 1.4 0.22488152981 0.450088 1.35 0.20526823401 
0.450088 1.3 0.19068862498 0.450088 1.25 0.17153072357 0.450088 1.2 0.14720769227 
0.450088 1.15 0.11596622318 0.450088 1.1 0.088109925389 0.450088 1.05 0.073329091072 
0.450088 1 0.061301834881 0.450088 0.95 0.058133840561 0.450088 0.9 0.056976977736 
0.450088 0.85 0.058463647962 0.450088 0.8 0.059413637966 0.450088 0.75 0.069595433772 
0.450088 0.7 0.078614637256 0.450088 0.65 0.086750224233 0.450088 0.6 0.097102992237 
0.450088 0.55 0.10639892519 0.450088 0.5 0.12029942125 0.450088 0.45 0.13905635476 
0.450088 0.4 0.15688975155 0.450088 0.35 0.17588445544 0.450088 0.3 0.19478820264 
0.450088 0.25 0.2194506973 0.450088 0.2 0.24432092905 0.450088 0.15 0.26188328862 
0.450088 0.1 0.27877542377 0.450088 0.05 0.2811152637 0.450088 0 0.28121048212 
0.499872 1.5 0.28093001246 0.499872 1.45 0.26895985007 0.499872 1.4 0.24557968974 
0.499872 1.35 0.22204914689 0.499872 1.3 0.20475672185 0.499872 1.25 0.18913467228 
0.499872 1.2 0.16759927571 0.499872 1.15 0.14318850636 0.499872 1.1 0.11431179196 
0.499872 1.05 0.10151998699 0.499872 1 0.078661836684 0.499872 0.95 0.07907731086 
0.499872 0.9 0.066150352359 0.499872 0.85 0.064533278346 0.499872 0.8 0.06694290787 
0.499872 0.75 0.067907102406 0.499872 0.7 0.081052526832 0.499872 0.65 0.09312158078 
0.499872 0.6 0.10833848268 0.499872 0.55 0.12406221777 0.499872 0.5 0.14032669365 
0.499872 0.45 0.16283677518 0.499872 0.4 0.17921827734 0.499872 0.35 0.19811299443 
0.499872 0.3 0.22109375894 0.499872 0.25 0.24196755886 0.499872 0.2 0.26218613982 
0.499872 0.15 0.27862411737 0.499872 0.1 0.28106892109 0.499872 0.05 0.28105315566 
0.499872 0 0.28098458052 0.549656 1.5 0.28194096684 0.549656 1.45 0.27982598543 
0.549656 1.4 0.26969575882 0.549656 1.35 0.24034294486 0.549656 1.3 0.2213806957 
0.549656 1.25 0.2057915777 0.549656 1.2 0.18980820477 0.549656 1.15 0.1675965488 
0.549656 1.1 0.14790244401 0.549656 1.05 0.1315792501 0.549656 1 0.10592649877 
0.549656 0.95 0.11231791973 0.549656 0.9 0.10229380429 0.549656 0.85 0.093455515802 
0.549656 0.8 0.098017551005 0.549656 0.75 0.092814289033 0.549656 0.7 0.098240911961 
0.549656 0.65 0.11210730672 0.549656 0.6 0.13140699267 0.549656 0.55 0.14442101121 
0.549656 0.5 0.16404305398 0.549656 0.45 0.18717969954 0.549656 0.4 0.20648564398 
0.549656 0.35 0.22647382319 0.549656 0.3 0.24663420022 0.549656 0.25 0.26602104306 
0.549656 0.2 0.27693924308 0.549656 0.15 0.27970176935 0.549656 0.1 0.28026017547 
0.549656 0.05 0.28016328812 0.549656 0 0.28018698096 0.59944 1.5 0.28204590082 
0.59944 1.45 0.28057417274 0.59944 1.4 0.27947312593 0.59944 1.35 0.26847994328 
0.59944 1.3 0.24638035893 0.59944 1.25 0.22713595629 0.59944 1.2 0.21167001128 
0.59944 1.15 0.19623626769 0.59944 1.1 0.17745691538 0.59944 1.05 0.1536591202 
0.59944 1 0.13844637573 0.59944 0.95 0.14289885759 0.59944 0.9 0.13580177724 
0.59944 0.85 0.13281977177 0.59944 0.8 0.1312892884 0.59944 0.75 0.13088361919 
0.59944 0.7 0.13225881755 0.59944 0.65 0.14174735546 0.59944 0.6 0.16041781008 
[...]
CELL_DATA 9270
FIELD FieldData 7
B_Stress_n_p_m2 1 9270 float
0.296817 0.389539 0.406974 0.401694 0.397078 0.39651 0.399825 0.402138 0.397071 
0.390888 0.395468 0.402047 0.406421 0.407216 0.384679 0.274564 0.187964 0.141629 
0.111711 0.0895123 0.0722028 0.0594277 0.0503441 0.0438478 0.0395896 0.0371056 0.0358499 
0.034605 0.0315551 0.0261389 0.285756 0.37714 0.396828 0.388959 0.38002 0.376016 
0.375413 0.376638 0.374365 0.365943 0.356334 0.352327 0.344868 0.33343 0.304323 
0.244052 0.189477 0.149487 0.120475 0.098661 0.081443 0.0674752 0.0576738 0.0495261 
0.0430176 0.0376994 0.0328229 0.0263564 0.0166553 0.0054531 0.277137 0.369239 0.388462 
0.380485 0.367009 0.360244 0.356882 0.355478 0.352706 0.34722 0.337059 0.32414 
0.308773 0.289527 0.261066 0.220552 0.182834 0.152515 0.129262 0.110874 0.0958924 
0.0847695 0.0759728 0.0689272 0.0625373 0.0566842 0.049641 0.0397572 0.0265872 0.00781605 
0.268603 0.363507 0.381508 0.376031 0.360697 0.349528 0.34207 0.33648 0.332337 
0.32781 0.320818 0.307523 0.290634 0.267162 0.241245 0.210585 0.181301 0.157085 
0.137377 0.122648 0.110449 0.100731 0.092927 0.0867679 0.0810329 0.0745631 0.0655184 
0.0522661 0.0336833 0.0105594 0.265536 0.361637 0.378715 0.374844 0.360887 0.34562 
0.332941 0.321909 0.314162 0.308531 0.301978 0.293516 0.279123 0.261714 0.239141 
0.213641 0.18935 0.16891 0.152574 0.140292 0.129573 0.121337 0.114424 0.109003 
0.103736 0.0969067 0.0864521 0.0704708 0.0471481 0.0185486 0.278141 0.367957 0.382225 
0.376872 0.365165 0.348464 0.329818 0.313384 0.30155 0.292088 0.284603 0.275373 
0.265286 0.252908 0.237777 0.218783 0.199616 0.182759 0.170044 0.158552 0.150206 
0.142535 0.136868 0.132099 0.127744 0.12157 0.110831 0.0926708 0.0641795 0.0295914 
0.305117 0.389176 0.392625 0.384302 0.371478 0.354747 0.334573 0.314255 0.298767 
0.285128 0.273666 0.262058 0.251218 0.240166 0.228409 0.217647 0.205443 0.194177 
0.18431 0.176071 0.169937 0.16375 0.159541 0.156431 0.153952 0.14962 0.139674 
0.118666 0.085296 0.0436111 0.33308 0.421935 0.417107 0.398076 0.3832 0.366541 
0.346669 0.326451 0.308725 0.291643 0.277622 0.262693 0.24903 0.237888 0.226034 
0.217095 0.210625 0.205165 0.199393 0.195076 0.191884 0.189836 0.188009 0.187507 
0.186373 0.182533 0.17071 0.146017 0.107902 0.0593992 0.350848 0.454572 0.45478 
0.425804 0.402397 0.384719 0.366 0.347451 0.327304 0.310232 0.294324 0.280629 
0.264824 0.252335 0.241459 0.231364 0.226742 0.224696 0.223388 0.223592 0.224347 
0.226669 0.226729 0.227306 0.225868 0.217401 0.199818 0.172214 0.130085 0.0760587 
0.35907 0.470262 0.491974 0.469307 0.437555 0.411197 0.391686 0.371834 0.351596 
0.333637 0.319033 0.307663 0.294172 0.280237 0.269872 0.260338 0.25506 0.254684 
0.257904 0.260511 0.262561 0.26491 0.266764 0.265792 0.259558 0.245957 0.224424 
0.194346 0.152117 0.0932611 0.363732 0.473309 0.502578 0.505089 0.484138 0.452902 
0.4254 0.402633 0.381398 0.361519 0.348368 0.338647 0.327675 0.316558 0.304716 
0.296826 0.290601 0.286859 0.287362 0.289616 0.290313 0.286495 0.286698 0.283116 
0.276955 0.263768 0.243133 0.215756 0.174307 0.11107 0.368768 0.477211 0.503954 
0.512018 0.514273 0.500305 0.474544 0.446808 0.42154 0.401096 0.385398 0.373873 
0.365554 0.358293 0.349013 0.340559 0.331501 0.322116 0.31336 0.307021 0.303822 
0.297873 0.292456 0.289173 0.284382 0.276066 0.260707 0.236477 0.196042 0.128763 
0.373302 0.48241 0.507684 0.513605 0.518474 0.521774 0.51701 0.500148 0.476815 
0.453791 0.439511 0.424362 0.414522 0.408765 0.403377 0.394186 0.381421 0.36724 
0.351264 0.334382 0.322717 0.318202 0.312469 0.30722 0.300548 0.291616 0.278792 
0.256172 0.216352 0.145508 0.37591 0.4853 0.510142 0.515313 0.518217 0.522851 
0.527318 0.529231 0.522458 0.509883 0.495118 0.486372 0.474232 0.464267 0.457098 
0.447188 0.434882 0.418097 0.401301 0.384043 0.364252 0.352918 0.34637 0.337286 
0.325385 0.313012 0.29686 0.275128 0.236087 0.162162 0.380199 0.488797 0.513596 
0.519154 0.522166 0.525609 0.529416 0.534551 0.538979 0.539746 0.533743 0.526952 
0.518898 0.508293 0.496316 0.48425 0.471528 0.458461 0.444491 0.42944 0.413115 
0.396035 0.380126 0.36672 0.350048 0.334119 0.317633 0.296922 0.258251 0.181119 
0.388689 0.497435 0.521785 0.527455 0.5305 0.533485 0.536556 0.539504 0.542935 
0.545526 0.545634 0.540706 0.534505 0.525641 0.514259 0.502146 0.489663 0.477888 
0.465097 0.451598 0.438569 0.423098 0.405591 0.387907 0.37164 0.356222 0.341314 
0.321589 0.283304 0.202353 0.394945 0.503524 0.527047 0.532088 0.534444 0.536509 
0.538629 0.540433 0.541718 0.542113 0.541289 0.537485 0.531523 0.523613 0.514186 
0.503708 0.4926 0.481099 0.469029 0.456658 0.443998 0.430488 0.416022 0.400388 
0.3866 0.373651 0.360442 0.342248 0.305071 0.221156 0.395234 0.50267 0.525331 
0.529628 0.531175 0.532412 0.533511 0.534292 0.534536 0.533848 0.531835 0.527956 
0.522503 0.515512 0.507225 0.498003 0.488124 0.477781 0.466922 0.455654 0.44404 
0.431912 0.41946 0.407013 0.395393 0.384462 0.373054 0.356777 0.32123 0.23549 
0.39358 0.49994 0.521844 0.525568 0.526501 0.527077 0.52744 0.52745 0.5269 
0.525536 0.523102 0.519327 0.514278 0.508014 0.500696 0.492539 0.483735 0.474429 
0.464678 0.454577 0.4442 0.433571 0.42286 0.412351 0.402496 0.393261 0.383468 
0.368934 0.335002 0.247818 0.391665 0.497095 0.518394 0.521659 0.522104 0.522162 
0.521967 0.521419 0.520342 0.518561 0.5159 0.512218 0.507518 0.501843 0.495297 
0.488024 0.480163 0.471831 0.463115 0.454108 0.444904 0.435596 0.426349 0.417405 
0.409016 0.401184 0.39279 0.379805 0.347366 0.258971 0.389542 0.494119 0.514918 
0.517824 0.517895 0.51756 0.516957 0.516016 0.514593 0.512566 0.509814 0.506252 
0.501869 0.496694 0.4908 0.484285 0.477254 0.469808 0.462038 0.454039 0.445911 
0.437768 0.429761 0.42209 0.41492 0.408259 0.401061 0.389431 0.358369 0.268998 
0.387353 0.491121 0.511498 0.514124 0.513916 0.513291 0.512398 0.51119 0.509551 
0.507394 0.504634 0.501217 0.49713 0.492396 0.487065 0.481211 0.474917 0.468269 
0.461355 0.454266 0.447102 0.439979 0.433029 0.426421 0.420272 0.414593 0.408412 
0.397964 0.368168 0.27803 0.385184 0.48817 0.508182 0.51059 0.510178 0.509349 
0.508257 0.506877 0.505114 0.502908 0.500194 0.496941 0.493136 0.488798 0.483965 
0.478695 0.473056 0.467123 0.460976 0.454701 0.448392 0.442158 0.436114 0.430403 
0.425116 0.420264 0.414948 0.405527 0.376895 0.286173 0.383101 0.485319 0.505006 
0.507245 0.506688 0.505719 0.5045 0.50302 0.5012 0.498999 0.49637 0.493292 
0.489757 0.48578 0.481394 0.476644 0.471589 0.466294 0.46083 0.455278 0.449722 
0.444262 0.438997 0.434051 0.429495 0.425342 0.420762 0.412235 0.384676 0.293529 
0.381146 0.482602 0.501993 0.5041 0.503445 0.502388 0.501095 0.499567 0.497738 
0.495582 0.493062 0.490165 0.486887 0.483244 0.47926 0.474977 0.470443 0.465715 
0.460859 0.455946 0.451052 0.446266 0.441673 0.437382 0.43345 0.42989 0.425935 
0.418189 0.39162 0.300189 0.379349 0.480041 0.499157 0.501161 0.500442 0.499336 
0.498009 0.496472 0.49467 0.492585 0.490189 0.487475 0.484443 0.481107 0.477489 
0.473624 0.469556 0.465334 0.461017 0.456668 0.452355 0.448155 0.444144 0.440415 
0.437016 0.433961 0.430542 0.42348 0.397827 0.306235 0.377727 0.47765 0.496504 
0.498426 0.497672 0.496546 0.495215 0.493697 0.491945 0.489948 0.487685 0.485154 
0.482355 0.479302 0.476016 0.472529 0.468877 0.465106 0.461266 0.457414 0.45361 
0.449923 0.446415 0.443172 0.44023 0.437607 0.434646 0.428185 0.403385 0.31174 
0.376291 0.475435 0.494037 0.495892 0.495123 0.493998 0.492685 0.491206 0.489521 
0.487623 0.485497 0.483144 0.480565 0.477775 0.474792 0.471644 0.468365 0.464995 
0.461578 0.458165 0.454807 0.451566 0.448497 0.445672 0.443125 0.440871 0.438305 
0.432375 0.408369 0.316767 0.375045 0.473397 0.491752 0.493552 0.492782 0.491674 
0.490395 0.488968 0.48736 0.485568 0.48358 0.481398 0.479026 0.476478 0.473771 
0.470931 0.467986 0.464973 0.46193 0.458904 0.455938 0.453087 0.450398 0.447937 
0.44573 0.443794 0.441568 0.436109 0.412849 0.321374 0.373988 0.471533 0.489644 
0.491397 0.490637 0.489557 0.488321 0.486957 0.485433 0.483749 0.481896 0.479878 
0.4777 0.475375 0.47292 0.470356 0.467711 0.465016 0.462305 0.45962 0.456999 
0.454489 0.452133 0.449986 0.448074 0.446411 0.44448 0.43944 0.416882 0.325611 
0.373116 0.469838 0.487705 0.489417 0.488674 0.487629 0.486445 0.485148 0.48371 
0.482134 0.480412 0.47855 0.476553 0.474434 0.472207 0.469893 0.467517 0.465105 
0.46269 0.460306 0.457988 0.455778 0.453711 0.451839 0.450182 0.448756 0.44708 
0.442416 0.420522 0.329522 0.372424 0.468304 0.485927 0.487601 0.486881 0.485876 
0.484747 0.483519 0.482168 0.480698 0.479103 0.477388 0.475559 0.473628 0.47161 
0.469522 0.467386 0.465228 0.463074 0.460957 0.458906 0.456958 0.455145 0.453512 
0.452078 0.450856 0.449403 0.445078 0.423813 0.333145 0.371903 0.466924 0.484299 
0.485938 0.485243 0.484282 0.483209 0.482052 0.480788 0.47942 0.477945 0.476367 
0.474694 0.472937 0.471107 0.469223 0.467304 0.465372 0.463451 0.46157 0.459754 
0.458037 0.456446 0.455022 0.453781 0.452738 0.45148 0.44746 0.426796 0.336516 
0.371546 0.465687 0.482814 0.484418 0.48375 0.482833 0.481818 0.48073 0.47955 
0.47828 0.476918 0.475469 0.47394 0.472341 0.470683 0.468983 0.467258 0.465528 
0.463815 0.462142 0.460535 0.459021 0.457625 0.456385 0.455313 0.454424 0.453336 
0.449594 0.429506 0.339664 0.371342 0.464584 0.481459 0.48303 0.48239 0.481516 
0.480558 0.479538 0.478438 0.477261 0.476006 0.474676 0.47328 0.471825 0.470324 
0.468791 0.46724 0.465691 0.464162 0.462675 0.461251 0.459917 0.458693 0.457612 
0.456688 0.455935 0.454997 0.451508 0.431973 0.342615 0.371283 0.463607 0.480227 
0.481764 0.481151 0.480321 0.479418 0.478463 0.477439 0.47635 0.475194 0.473975 
0.472701 0.471379 0.470019 0.468636 0.467242 0.465854 0.46449 0.463168 0.461907 
0.460731 0.459658 0.458719 0.457924 0.457289 0.456484 0.453226 0.434225 0.345393 
0.371357 0.462746 0.479108 0.48061 0.480024 0.479235 0.478385 0.477492 0.476541 
0.475534 0.47447 0.473353 0.472191 0.470989 0.469759 0.468511 0.467258 0.466015 
0.464797 0.463622 0.462506 0.46147 0.46053 0.459714 0.459034 0.458503 0.457814 
0.45477 0.436285 0.348018 0.371553 0.461997 0.478094 0.479558 0.478998 0.478249 
0.47745 0.476615 0.475732 0.474801 0.473823 0.472801 0.47174 0.470649 0.469535 
0.468409 0.467283 0.46617 0.465083 0.464039 0.463051 0.462139 0.461317 0.460611 
0.460031 0.459591 0.459006 0.456159 0.438174 0.350509 0.371855 0.461357 0.477174 
0.478601 0.478065 0.477354 0.476602 0.475823 0.475003 0.474143 0.473244 0.472308 
0.471341 0.47035 0.469342 0.468327 0.467315 0.466318 0.465348 0.46442 0.463546 
0.462744 0.462026 0.461417 0.460925 0.460565 0.460073 0.457409 0.439912 0.352881 
0.372255 0.460818 0.476342 0.47773 0.477217 0.476541 0.475834 0.475106 0.474345 
0.473551 0.472724 0.471868 0.470987 0.470086 0.469174 0.468259 0.467349 0.466457 
0.465591 0.464767 0.463994 0.46329 0.462665 0.462141 0.461727 0.461438 0.461028 
0.458535 0.441513 0.355149 0.372746 0.460371 0.47559 0.476938 0.476445 0.475803 
0.475138 0.474457 0.47375 0.473017 0.472258 0.471474 0.470671 0.469853 0.469027 
0.468202 0.467385 0.466586 0.465814 0.465083 0.4644 0.463783 0.463239 0.462791 
0.462447 0.46222 0.461884 0.45955 0.442993 0.357326 0.373322 0.460008 0.474911 
0.476218 0.475744 0.475133 0.474506 0.473869 0.473213 0.472536 0.471837 0.47112 
0.470388 0.469645 0.468898 0.468154 0.46742 0.466705 0.466017 0.465369 0.464767 
0.464226 0.463756 0.463375 0.463092 0.462921 0.46265 0.460466 0.444364 0.359422 
0.373976 0.45972 0.4743 0.475563 0.475106 0.474523 0.473932 0.473337 0.472727 
0.4721 0.471458 0.470802 0.470134 0.469459 0.468784 0.468113 0.467453 0.466814 
0.466201 0.465627 0.465097 0.464625 0.46422 0.463898 0.463669 0.463547 0.463336 
0.461292 0.445637 0.361447 0.374703 0.459498 0.473751 0.474968 0.474526 0.47397 
0.473411 0.472853 0.472286 0.471707 0.471116 0.470514 0.469905 0.469292 0.468681 
0.468076 0.467484 0.466912 0.466368 0.465859 0.465394 0.464983 0.464635 0.464367 
0.464186 0.464108 0.46395 0.462039 0.446823 0.363411 0.375497 0.459338 0.473258 
0.474426 0.473997 0.473466 0.472938 0.472414 0.471886 0.471349 0.470806 0.470254 
0.469699 0.469142 0.468588 0.468043 0.467512 0.467001 0.466517 0.466067 0.465659 
0.465304 0.465008 0.464787 0.464649 0.464609 0.464499 0.462714 0.447931 0.365321 
0.376354 0.459233 0.472816 0.473933 0.473516 0.473007 0.472507 0.472015 0.471522 
0.471025 0.470524 0.470018 0.469511 0.469005 0.468504 0.468013 0.467536 0.46708 
0.46665 0.466254 0.465897 0.465591 0.46534 0.465162 0.465062 0.465057 0.464991 
0.463324 0.448967 0.367184 0.37727 0.459177 0.47242 0.473485 0.473078 0.47259 
0.472115 0.471652 0.471192 0.47073 0.470268 0.469804 0.469341 0.46888 0.468427 
0.467984 0.467557 0.46715 0.466768 0.46642 0.46611 0.465847 0.465637 0.465496 
0.465431 0.465456 0.465429 0.463876 0.44994 0.369008 0.37824 0.459165 0.472066 
0.473076 0.472679 0.472209 0.471758 0.471321 0.47089 0.470461 0.470034 0.469608 
0.469184 0.468766 0.468355 0.467956 0.467573 0.467211 0.466873 0.466568 0.466298 
0.466075 0.465902 0.465795 0.465759 0.465812 0.465821 0.464375 0.450855 0.370796 
0.37926 0.459194 0.471749 0.472704 0.472315 0.471862 0.471432 0.471019 0.470615 
0.470216 0.469821 0.469429 0.469041 0.46866 0.468288 0.467929 0.467586 0.467263 
0.466965 0.466698 0.466466 0.466277 0.466137 0.46606 0.466051 0.466129 0.466171 
0.464828 0.451719 0.372555 0.380328 0.459258 0.471465 0.472365 0.471982 0.471544 
0.471134 0.470743 0.470364 0.469991 0.469626 0.469264 0.46891 0.468562 0.468226 
0.467902 0.467595 0.467308 0.467045 0.466812 0.466613 0.466456 0.466346 0.466295 
0.466311 0.466411 0.466482 0.465237 0.452535 0.374288 0.38144 0.459354 0.471211 
0.472056 0.471678 0.471254 0.470861 0.47049 0.470133 0.469785 0.469446 0.469113 
0.468788 0.468471 0.468166 0.467874 0.467599 0.467345 0.467114 0.466912 0.466743 
0.466614 0.46653 0.466504 0.466541 0.466661 0.466759 0.465608 0.453308 0.376001 
0.382594 0.459478 0.470984 0.471773 0.471399 0.470988 0.470611 0.470258 0.469922 
0.469596 0.469281 0.468973 0.468674 0.468386 0.468109 0.467847 0.467601 0.467375 
0.467173 0.466999 0.466856 0.466753 0.466692 0.466688 0.466744 0.466882 0.467005 
0.465944 0.454042 0.377696 0.383787 0.459628 0.470782 0.471514 0.471143 0.470745 
0.470382 0.470045 0.469727 0.469422 0.469128 0.468843 0.468569 0.468305 0.468054 
0.467818 0.467598 0.467399 0.467222 0.467074 0.466955 0.466875 0.466835 0.466849 
0.466924 0.467077 0.467223 0.466248 0.454741 0.379378 0.385017 0.4598 0.4706 
0.471277 0.470909 0.47052 0.470171 0.469849 0.469548 0.46926 0.468986 0.468722 
0.46847 0.468229 0.468001 0.467788 0.467593 0.467417 0.467263 0.467137 0.46704 
0.46698 0.466959 0.466991 0.467081 0.467249 0.467415 0.466523 0.455407 0.381048 
0.386281 0.459991 0.470438 0.471059 0.470693 0.470314 0.469977 0.469668 0.469382 
0.469111 0.468854 0.468609 0.468377 0.468156 0.46795 0.467758 0.467584 0.467429 
0.467297 0.467191 0.467113 0.467071 0.467067 0.467115 0.467219 0.467399 0.467585 
0.466772 0.456044 0.38271 0.387579 0.4602 0.470293 0.470859 0.470494 0.470123 
0.469797 0.469501 0.469229 0.468972 0.468732 0.468503 0.468289 0.468087 0.467899 
0.467727 0.467572 0.467436 0.467322 0.467234 0.467174 0.467149 0.467161 0.467222 
0.467339 0.467531 0.467734 0.466998 0.456653 0.384365 0.388909 0.460423 0.470163 
0.470674 0.47031 0.469947 0.469631 0.469346 0.469086 0.468843 0.468617 0.468404 
0.468205 0.46802 0.467849 0.467694 0.467557 0.467438 0.467341 0.46727 0.467225 
0.467215 0.467241 0.467315 0.467442 0.467645 0.467864 0.467201 0.457238 0.386018 
0.390268 0.460659 0.470046 0.470503 0.47014 0.469784 0.469477 0.469201 0.468953 
0.468722 0.468509 0.46831 0.468126 0.467955 0.4678 0.467661 0.467539 0.467436 
0.467354 0.467298 0.467267 0.46727 0.467308 0.467393 0.467531 0.467743 0.467977 
0.467385 0.457799 0.387668 0.391657 0.460906 0.469941 0.470345 0.469982 0.469632 
0.469333 0.469066 0.468828 0.468608 0.468407 0.468221 0.46805 0.467893 0.467752 
0.467626 0.467518 0.46743 0.467362 0.467318 0.4673 0.467315 0.467364 0.46746 
0.467607 0.467827 0.468074 0.467551 0.458339 0.389319 0.393072 0.461163 0.469846 
0.470198 0.469835 0.469491 0.469199 0.46894 0.468711 0.468501 0.468311 0.468136 
0.467977 0.467832 0.467703 0.467591 0.467496 0.467419 0.467364 0.467332 0.467326 
0.467352 0.467411 0.467515 0.46767 0.467898 0.468158 0.4677 0.458859 0.390971 
0.394515 0.461427 0.46976 0.470062 0.469697 0.469358 0.469073 0.468822 0.468601 
0.4684 0.468219 0.468054 0.467906 0.467773 0.467655 0.467554 0.46747 0.467406 
0.467361 0.46734 0.467344 0.46738 0.467448 0.467561 0.467723 0.467958 0.468229 
0.467833 0.45936 0.392627 0.395983 0.461697 0.469682 0.469934 0.469569 0.469234 
0.468955 0.468711 0.468497 0.468304 0.468132 0.467977 0.467838 0.467714 0.467607 
0.467516 0.467443 0.467388 0.467354 0.467343 0.467356 0.4674 0.467476 0.467597 
0.467766 0.468006 0.468288 0.467953 0.459843 0.394287 0.397476 0.461972 0.46961 
0.469814 0.469448 0.469118 0.468844 0.468606 0.468399 0.468213 0.468049 0.467902 
0.467772 0.467657 0.467559 0.467478 0.467413 0.467368 0.467342 0.46734 0.467362 
0.467414 0.467497 0.467625 0.467799 0.468046 0.468337 0.46806 0.46031 0.395953 
0.398993 0.46225 0.469545 0.469701 0.469335 0.469008 0.468739 0.468506 0.468305 
0.468126 0.467969 0.467829 0.467707 0.467601 0.467511 0.467438 0.467382 0.467345 
0.467327 0.467333 0.467362 0.467421 0.467511 0.467645 0.467825 0.468076 0.468376 
0.468155 0.460761 0.397626 0.400534 0.462531 0.469484 0.469595 0.469227 0.468904 
0.468639 0.468411 0.468216 0.468043 0.467892 0.467759 0.467644 0.467545 0.467463 
0.467397 0.467349 0.467319 0.467309 0.467321 0.467357 0.467423 0.467519 0.467658 
0.467842 0.468098 0.468406 0.468239 0.461198 0.399307 0.402097 0.462813 0.469428 
0.469494 0.469125 0.468805 0.468544 0.46832 0.46813 0.467962 0.467818 0.467691 
0.467582 0.467489 0.467414 0.467355 0.467314 0.467291 0.467287 0.467306 0.467348 
0.467419 0.467521 0.467664 0.467853 0.468114 0.468429 0.468312 0.46162 0.400998 
0.403683 0.463096 0.469375 0.469398 0.469028 0.46871 0.468453 0.468233 0.468048 
0.467885 0.467745 0.467624 0.467521 0.467434 0.467365 0.467312 0.467277 0.46726 
0.467262 0.467287 0.467334 0.467411 0.467517 0.467665 0.467858 0.468122 0.468444 
0.468377 0.462029 0.402698 0.405292 0.463378 0.469325 0.469306 0.468935 0.46862 
0.468366 0.46815 0.467968 0.46781 0.467675 0.467558 0.467461 0.46738 0.467316 
0.467268 0.467239 0.467227 0.467235 0.467265 0.467317 0.467398 0.467509 0.467661 
0.467857 0.468124 0.468452 0.468432 0.462424 0.40441 0.406922 0.463658 0.469277 
0.469218 0.468846 0.468533 0.468282 0.468069 0.467891 0.467737 0.467606 0.467494 
0.467401 0.467325 0.467266 0.467224 0.467199 0.467192 0.467205 0.467239 0.467296 
0.467381 0.467496 0.467651 0.467851 0.468121 0.468455 0.468479 0.462807 0.406132 
0.408573 0.463937 0.469231 0.469133 0.468761 0.468449 0.468201 0.467991 0.467816 
0.467666 0.467539 0.467431 0.467342 0.46727 0.467216 0.467178 0.467158 0.467156 
0.467173 0.467211 0.467272 0.467361 0.467479 0.467637 0.46784 0.468112 0.468451 
0.468518 0.463177 0.407868 0.410246 0.464212 0.469186 0.469052 0.468678 0.468368 
0.468123 0.467915 0.467744 0.467596 0.467473 0.467369 0.467284 0.467216 0.467165 
0.467132 0.467115 0.467117 0.467138 0.46718 0.467245 0.467337 0.467458 0.467619 
0.467824 0.468099 0.468443 0.46855 0.463534 0.409616 0.41194 0.464484 0.469142 
0.468972 0.468598 0.46829 0.468046 0.467841 0.467672 0.467528 0.467408 0.467307 
0.467226 0.467161 0.467114 0.467084 0.467072 0.467077 0.467101 0.467147 0.467214 
0.46731 0.467433 0.467597 0.467804 0.468082 0.468429 0.468575 0.46388 0.411377 
0.413654 0.464751 0.469098 0.468895 0.46852 0.468213 0.467972 0.467769 0.467603 
0.467461 0.467344 0.467246 0.467168 0.467107 0.467063 0.467036 0.467027 0.467036 
0.467063 0.467111 0.467182 0.46728 0.467406 0.467572 0.467781 0.46806 0.468411 
0.468594 0.464214 0.413153 0.41539 0.465013 0.469055 0.468819 0.468444 0.468139 
0.467899 0.467698 0.467534 0.467395 0.467281 0.467186 0.46711 0.467052 0.467012 