# vtk DataFile Version 5.1
vtk output
ASCII
DATASET UNSTRUCTURED_GRID
POINTS 9486 double
0.1016 1.5 0.1439999938 0.1016 1.45 0.16599999368 0.1016 1.4 0.15700000525 
0.1016 1.35 0.13199999928 0.1016 1.3 0.10700000077 0.1016 1.25 0.090000003576 
0.1016 1.2 0.075999997556 0.1016 1.15 0.059999998659 0.1016 1.1 0.0270000007 
0.1016 1.05 0 0.1016 1 -1.4520933349e-19 0.1016 0.95 -1.9172115972e-20 
0.1016 0.9 -1.9935036607e-21 0.1016 0.85 1.2043517074e-19 0.1016 0.8 2.5499320644e-20 
0.1016 0.75 -2.7692611041e-19 0.1016 0.7 0.0017266095383 0.1016 0.65 0.006275348831 
0.1016 0.6 0.015275382437 0.1016 0.55 0.034349132329 0.1016 0.5 0.057032302022 
0.1016 0.45 0.069950312376 0.1016 0.4 0.088548511267 0.1016 0.35 0.1118433848 
0.1016 0.3 0.13683372736 0.1016 0.25 0.16178821027 0.1016 0.2 0.18516084552 
0.1016 0.15 0.20709982514 0.1016 0.1 0.23110230267 0.1016 0.05 0.2536047399 
0.1016 0 0.2658187151 5.08 1.5 0.28700000048 5.08 1.45 0.28700000048 
5.08 1.4 0.28700000048 5.08 1.35 0.28700000048 5.08 1.3 0.28700000048 
5.08 1.25 0.28700000048 5.08 1.2 0.28700000048 5.08 1.15 0.28700000048 
5.08 1.1 0.28700000048 5.08 1.05 0.28700000048 5.08 1 0.28700000048 
5.08 0.95 0.28700000048 5.08 0.9 0.28700000048 5.08 0.85 0.28700000048 
5.08 0.8 0.28700000048 5.08 0.75 0.28700000048 5.08 0.7 0.28700000048 
5.08 0.65 0.28700000048 5.08 0.6 0.28700000048 5.08 0.55 0.28700000048 
5.08 0.5 0.28700000048 5.08 0.45 0.28700000048 5.08 0.4 0.28700000048 
5.08 0.35 0.28700000048 5.08 0.3 0.28700000048 5.08 0.25 0.28700000048 
5.08 0.2 0.28700000048 5.08 0.15 0.28700000048 5.08 0.1 0.28700000048 
5.08 0.05 0.28700000048 5.08 0 0.28700000048 0.151384 1.5 0.1567479223 
0.151384 1.45 0.17286509275 0.151384 1.4 0.17073737085 0.151384 1.35 0.14572574198 
0.151384 1.3 0.11582919955 0.151384 1.25 0.092948384583 0.151384 1.2 0.07700818032 
0.151384 1.15 0.068851865828 0.151384 1.1 0.049543965608 0.151384 1.05 0.021516673267 
0.151384 1 -3.315127833e-05 0.151384 0.95 7.8876604448e-07 0.151384 0.9 1.059683018e-05 
0.151384 0.85 9.8040231933e-07 0.151384 0.8 -2.1849093628e-06 0.151384 0.75 -3.5226723867e-06 
0.151384 0.7 1.8499395082e-05 0.151384 0.65 7.9339341028e-05 0.151384 0.6 0.00023758161115 
0.151384 0.55 0.014358749613 0.151384 0.5 0.042242851108 0.151384 0.45 0.043471399695 
0.151384 0.4 0.067320547998 0.151384 0.35 0.092297673225 0.151384 0.3 0.11927485466 
0.151384 0.25 0.14625304937 0.151384 0.2 0.17221662402 0.151384 0.15 0.19618578255 
0.151384 0.1 0.22608478367 0.151384 0.05 0.25985249877 0.151384 0 0.27087309957 
0.201168 1.5 0.16561856866 0.201168 1.45 0.17871999741 0.201168 1.4 0.17676354945 
0.201168 1.35 0.15559522808 0.201168 1.3 0.11983888596 0.201168 1.25 0.094892024994 
0.201168 1.2 0.078920572996 0.201168 1.15 0.070950694382 0.201168 1.1 0.057784538716 
0.201168 1.05 0.041227802634 0.201168 1 0.013341243379 0.201168 0.95 0.00081337126903 
0.201168 0.9 -9.6729381767e-05 0.201168 0.85 4.3826066758e-06 0.201168 0.8 2.196150308e-05 
0.201168 0.75 1.559098564e-05 0.201168 0.7 8.7562120825e-06 0.201168 0.65 -2.372284689e-05 
0.201168 0.6 0.00089719501557 0.201168 0.55 0.010063622147 0.201168 0.5 0.024555742741 
0.201168 0.45 0.041900422424 0.201168 0.4 0.064939498901 0.201168 0.35 0.092852219939 
0.201168 0.3 0.11602818966 0.201168 0.25 0.14302745461 0.201168 0.2 0.16709972918 
0.201168 0.15 0.19493468106 0.201168 0.1 0.22787478566 0.201168 0.05 0.26000612974 
0.201168 0 0.28352585435 0.250952 1.5 0.18197776377 0.250952 1.45 0.19118845463 
0.250952 1.4 0.18549700081 0.250952 1.35 0.16912814975 0.250952 1.3 0.13124585152 
0.250952 1.25 0.10149205476 0.250952 1.2 0.082699075341 0.250952 1.15 0.071913905442 
0.250952 1.1 0.063713997602 0.250952 1.05 0.053379669785 0.250952 1 0.037508849055 
0.250952 0.95 0.021492445841 0.250952 0.9 0.01854711771 0.250952 0.85 -0.00016757083358 
0.250952 0.8 -0.00013697004761 0.250952 0.75 -9.2888512881e-05 0.250952 0.7 -9.8218530184e-05 
0.250952 0.65 -9.6964897239e-05 0.250952 0.6 0.00091851141769 0.250952 0.55 0.013585589826 
0.250952 0.5 0.031274244189 0.250952 0.45 0.049358397722 0.250952 0.4 0.068670272827 
0.250952 0.35 0.094783261418 0.250952 0.3 0.11963667721 0.250952 0.25 0.14563524723 
0.250952 0.2 0.17340396345 0.250952 0.15 0.20428460836 0.250952 0.1 0.23357948661 
0.250952 0.05 0.26278209686 0.250952 0 0.28313687444 0.300736 1.5 0.19399508834 
0.300736 1.45 0.20023547113 0.300736 1.4 0.18880701065 0.300736 1.35 0.17733044922 
0.300736 1.3 0.14392086864 0.300736 1.25 0.11291036755 0.300736 1.2 0.093017399311 
0.300736 1.15 0.074714794755 0.300736 1.1 0.063125863671 0.300736 1.05 0.056883025914 
0.300736 1 0.049352236092 0.300736 0.95 0.048999961466 0.300736 0.9 0.037454549223 
0.300736 0.85 0.024520553648 0.300736 0.8 0.014218471944 0.300736 0.75 0.013365014456 
0.300736 0.7 0.013428580947 0.300736 0.65 0.012509510852 0.300736 0.6 0.016264114529 
0.300736 0.55 0.030294796452 0.300736 0.5 0.046519454569 0.300736 0.45 0.068144336343 
0.300736 0.4 0.084360465407 0.300736 0.35 0.10757743567 0.300736 0.3 0.13541725278 
0.300736 0.25 0.16240039468 0.300736 0.2 0.19048757851 0.300736 0.15 0.2160332799 
0.300736 0.1 0.24226686358 0.300736 0.05 0.26937404275 0.300736 0 0.28301364183 
0.35052 1.5 0.21993134916 0.35052 1.45 0.21074354649 0.35052 1.4 0.20069882274 
0.35052 1.35 0.18513572216 0.35052 1.3 0.16299076378 0.35052 1.25 0.1328061223 
0.35052 1.2 0.10550812632 0.35052 1.15 0.082031287253 0.35052 1.1 0.065586566925 
0.35052 1.05 0.056990623474 0.35052 1 0.056517597288 0.35052 0.95 0.054931458086 
0.35052 0.9 0.054607693106 0.35052 0.85 0.05337350443 0.35052 0.8 0.050241623074 
0.35052 0.75 0.045401591808 0.35052 0.7 0.041764829308 0.35052 0.65 0.038181420416 
0.35052 0.6 0.049359682947 0.35052 0.55 0.053449429572 0.35052 0.5 0.075672745705 
0.35052 0.45 0.094206869602 0.35052 0.4 0.11205533147 0.35052 0.35 0.13232547045 
0.35052 0.3 0.15671758354 0.35052 0.25 0.18109157681 0.35052 0.2 0.20635579526 
0.35052 0.15 0.22770810127 0.35052 0.1 0.2528437674 0.35052 0.05 0.2771576643 
0.35052 0 0.27940580249 0.400304 1.5 0.25204959512 0.400304 1.45 0.22509554029 
0.400304 1.4 0.20716628432 0.400304 1.35 0.1947825104 0.400304 1.3 0.17563907802 
0.400304 1.25 0.15354906023 0.400304 1.2 0.12714186311 0.400304 1.15 0.096911147237 
0.400304 1.1 0.071960628033 0.400304 1.05 0.060326248407 0.400304 1 0.054314594716 
0.400304 0.95 0.055935770273 0.400304 0.9 0.058099273592 0.400304 0.85 0.061934642494 
0.400304 0.8 0.06638301909 0.400304 0.75 0.073563411832 0.400304 0.7 0.06918977201 
0.400304 0.65 0.065876871347 0.400304 0.6 0.074191533029 0.400304 0.55 0.084406323731 
0.400304 0.5 0.10563553125 0.400304 0.45 0.11836013198 0.400304 0.4 0.13537698984 
0.400304 0.35 0.15452240407 0.400304 0.3 0.17936818302 0.400304 0.25 0.20155282319 
0.400304 0.2 0.225516662 0.400304 0.15 0.24568809569 0.400304 0.1 0.26810437441 
0.400304 0.05 0.28067526221 0.400304 0 0.28164991736 0.450088 1.5 0.27532985806 
0.450088 1.45 0.24766290188 0.450088 1.4 0.22488152981 0.450088 1.35 0.20526823401 
0.450088 1.3 0.19068862498 0.450088 1.25 0.17153072357 0.450088 1.2 0.14720769227 
0.450088 1.15 0.11596622318 0.450088 1.1 0.088109925389 0.450088 1.05 0.073329091072 
0.450088 1 0.061301834881 0.450088 0.95 0.058133840561 0.450088 0.9 0.056976977736 
0.450088 0.85 0.058463647962 0.450088 0.8 0.059413637966 0.450088 0.75 0.069595433772 
0.450088 0.7 0.078614637256 0.450088 0.65 0.086750224233 0.450088 0.6 0.097102992237 
0.450088 0.55 0.10639892519 0.450088 0.5 0.12029942125 0.450088 0.45 0.13905635476 
0.450088 0.4 0.15688975155 0.450088 0.35 0.17588445544 0.450088 0.3 0.19478820264 
0.450088 0.25 0.2194506973 0.450088 0.2 0.24432092905 0.450088 0.15 0.26188328862 
0.450088 0.1 0.27877542377 0.450088 0.05 0.2811152637 0.450088 0 0.28121048212 
0.499872 1.5 0.28093001246 0.499872 1.45 0.26895985007 0.499872 1.4 0.24557968974 
0.499872 1.35 0.22204914689 0.499872 1.3 0.20475672185 0.499872 1.25 0.18913467228 
0.499872 1.2 0.16759927571 0.499872 1.15 0.14318850636 0.499872 1.1 0.11431179196 
0.499872 1.05 0.10151998699 0.499872 1 0.078661836684 0.499872 0.95 0.07907731086 
0.499872 0.9 0.066150352359 0.499872 0.85 0.064533278346 0.499872 0.8 0.06694290787 
0.499872 0.75 0.067907102406 0.499872 0.7 0.081052526832 0.499872 0.65 0.09312158078 
0.499872 0.6 0.10833848268 0.499872 0.55 0.12406221777 0.499872 0.5 0.14032669365 
0.499872 0.45 0.16283677518 0.499872 0.4 0.17921827734 0.499872 0.35 0.19811299443 
0.499872 0.3 0.22109375894 0.499872 0.25 0.24196755886 0.499872 0.2 0.26218613982 
0.499872 0.15 0.27862411737 0.499872 0.1 0.28106892109 0.499872 0.05 0.28105315566 
0.499872 0 0.28098458052 0.549656 1.5 0.28194096684 0.549656 1.45 0.27982598543 
0.549656 1.4 0.26969575882 0.549656 1.35 0.24034294486 0.549656 1.3 0.2213806957 
0.549656 1.25 0.2057915777 0.549656 1.2 0.18980820477 0.549656 1.15 0.1675965488 
0.549656 1.1 0.14790244401 0.549656 1.05 0.1315792501 0.549656 1 0.10592649877 
0.549656 0.95 0.11231791973 0.549656 0.9 0.10229380429 0.549656 0.85 0.093455515802 
0.549656 0.8 0.098017551005 0.549656 0.75 0.092814289033 0.549656 0.7 0.098240911961 
0.549656 0.65 0.11210730672 0.549656 0.6 0.13140699267 0.549656 0.55 0.14442101121 
0.549656 0.5 0.16404305398 0.549656 0.45 0.18717969954 0.549656 0.4 0.20648564398 
0.549656 0.35 0.22647382319 0.549656 0.3 0.24663420022 0.549656 0.25 0.26602104306 
0.549656 0.2 0.27693924308 0.549656 0.15 0.27970176935 0.549656 0.1 0.28026017547 
0.549656 0.05 0.28016328812 0.549656 0 0.28018698096 0.59944 1.5 0.28204590082 
0.59944 1.45 0.28057417274 0.59944 1.4 0.27947312593 0.59944 1.35 0.26847994328 
0.59944 1.3 0.24638035893 0.59944 1.25 0.22713595629 0.59944 1.2 0.21167001128 
0.59944 1.15 0.19623626769 0.59944 1.1 0.17745691538 0.59944 1.05 0.1536591202 
0.59944 1 0.13844637573 0.59944 0.95 0.14289885759 0.59944 0.9 0.13580177724 
0.59944 0.85 0.13281977177 0.59944 0.8 0.1312892884 0.59944 0.75 0.13088361919 
0.59944 0.7 0.13225881755 0.59944 0.65 0.14174735546 0.59944 0.6 0.16041781008 
[...]
CELL_DATA 9150
FIELD FieldData 7
B_Stress_n_p_m2 1 9150 float
0.434309 0.448363 0.453881 0.454168 0.45651 0.462484 0.471471 0.477522 0.473437 
0.462523 0.453718 0.438957 0.413087 0.36229 0.245768 0.114336 0.0660356 0.0583133 
0.0455803 0.0363746 0.0307199 0.0268498 0.0244415 0.023077 0.0222087 0.022154 0.0216345 
0.0193029 0.025752 0.0238145 0.420516 0.432683 0.439486 0.4363 0.434191 0.436489 
0.442469 0.449834 0.45192 0.443614 0.429763 0.417216 0.396386 0.363025 0.305762 
0.24078 0.182555 0.133935 0.105365 0.0868743 0.0732344 0.0622561 0.0547285 0.0483077 
0.042649 0.0376648 0.034013 0.0273451 0.0207985 0.0550964 0.408358 0.419337 0.425123 
0.420698 0.413785 0.412683 0.414993 0.419177 0.42121 0.418315 0.407009 0.390071 
0.365752 0.33259 0.286225 0.231928 0.184527 0.147236 0.120673 0.101441 0.0867011 
0.0755401 0.0669446 0.0597201 0.0533507 0.0481597 0.0437002 0.0391242 0.036491 0.0427207 
0.397129 0.409018 0.412765 0.409817 0.400545 0.394719 0.391785 0.39041 0.389876 
0.388019 0.381673 0.365648 0.342762 0.30967 0.272375 0.230653 0.192497 0.161152 
0.136488 0.118235 0.103599 0.091689 0.0822201 0.0745823 0.0681304 0.0629553 0.0588564 
0.0559823 0.0550071 0.0563793 0.392698 0.40401 0.404942 0.402996 0.394239 0.383857 
0.375073 0.367056 0.361494 0.357482 0.351075 0.340726 0.321535 0.296758 0.265893 
0.232066 0.200007 0.172832 0.150981 0.134584 0.120342 0.108763 0.0991108 0.0916327 
0.0856364 0.0809406 0.0776082 0.0758634 0.0753668 0.0757333 0.409793 0.408093 0.404592 
0.39987 0.392765 0.380324 0.365072 0.351024 0.340564 0.331753 0.323692 0.312502 
0.298394 0.28059 0.258623 0.232213 0.206422 0.183923 0.166172 0.150688 0.138226 
0.127146 0.118256 0.111298 0.106197 0.102715 0.100586 0.0995351 0.0984199 0.0984776 
0.446803 0.427496 0.411649 0.403129 0.393878 0.380837 0.363597 0.34542 0.331011 
0.317621 0.305161 0.291494 0.277167 0.26162 0.244825 0.227814 0.209653 0.193197 
0.179006 0.166713 0.156643 0.146853 0.139372 0.133816 0.130584 0.128945 0.128144 
0.126322 0.123556 0.121979 0.482623 0.45877 0.432552 0.413844 0.40156 0.387673 
0.370481 0.351942 0.335499 0.318367 0.303386 0.286309 0.269797 0.254676 0.238705 
0.225227 0.213516 0.20331 0.193475 0.185066 0.178018 0.171894 0.166771 0.163487 
0.161468 0.160474 0.158521 0.153733 0.14837 0.144883 0.499187 0.490702 0.466261 
0.438329 0.417868 0.402421 0.385595 0.368584 0.349722 0.332435 0.315849 0.299872 
0.281478 0.265862 0.251072 0.237443 0.228503 0.22205 0.216554 0.212717 0.209407 
0.207317 0.204024 0.201861 0.199587 0.194692 0.187439 0.179427 0.170982 0.166658 
0.500824 0.504716 0.501753 0.47781 0.449793 0.426412 0.40834 0.38972 0.370351 
0.352764 0.33718 0.323994 0.307888 0.291291 0.277748 0.264749 0.256049 0.251738 
0.250493 0.249099 0.247226 0.245906 0.243728 0.240522 0.234088 0.22412 0.212196 
0.200841 0.192231 0.187718 0.498752 0.504068 0.511806 0.512326 0.492901 0.464714 
0.439504 0.417832 0.397352 0.377932 0.364218 0.353001 0.339566 0.325754 0.311581 
0.300453 0.291248 0.284545 0.28166 0.279989 0.276818 0.270513 0.267318 0.261553 
0.254614 0.243897 0.231412 0.220902 0.213052 0.208566 0.499079 0.503981 0.51037 
0.518559 0.522325 0.509539 0.485317 0.459065 0.434938 0.415003 0.398836 0.386749 
0.376059 0.36618 0.354331 0.343332 0.331799 0.319841 0.30881 0.299935 0.293403 
0.284256 0.276878 0.271162 0.265428 0.258356 0.249065 0.240189 0.233024 0.228448 
0.500244 0.506091 0.511572 0.517753 0.525706 0.530932 0.526959 0.510287 0.48774 
0.465466 0.450744 0.434851 0.42357 0.415669 0.407403 0.395778 0.38061 0.364183 
0.346122 0.327429 0.314046 0.306127 0.297982 0.290877 0.283379 0.275296 0.267335 
0.258469 0.251279 0.24643 0.499622 0.506441 0.512311 0.517716 0.523459 0.530659 
0.537189 0.539668 0.533044 0.520119 0.505707 0.495465 0.482035 0.470551 0.461143 
0.448731 0.43372 0.414657 0.395548 0.37587 0.354967 0.341852 0.333008 0.322158 
0.309662 0.29772 0.285862 0.276141 0.268886 0.263955 0.501072 0.507475 0.513956 
0.519976 0.52566 0.531477 0.537262 0.543958 0.549201 0.550122 0.543714 0.536616 
0.526853 0.514577 0.500829 0.486475 0.471551 0.455866 0.439699 0.422574 0.403874 
0.385417 0.368413 0.353405 0.335855 0.320128 0.306594 0.296506 0.288942 0.284294 
0.508126 0.513994 0.520529 0.526904 0.532794 0.538228 0.543042 0.547384 0.551815 
0.555123 0.554976 0.54983 0.54251 0.532213 0.519038 0.504892 0.490443 0.476584 
0.461944 0.446687 0.431671 0.41445 0.395286 0.376504 0.358705 0.342909 0.330029 
0.319825 0.311996 0.307538 0.513259 0.518663 0.524834 0.530761 0.536106 0.540758 
0.544747 0.547805 0.549866 0.55074 0.549909 0.545755 0.538957 0.52994 0.519074 
0.506938 0.494082 0.480816 0.467032 0.452977 0.438741 0.423713 0.40756 0.390498 
0.375091 0.361273 0.34945 0.3396 0.331915 0.327648 0.511007 0.516396 0.522154 
0.52744 0.532039 0.535896 0.53896 0.541095 0.542143 0.541828 0.539794 0.5356 
0.529439 0.521507 0.512075 0.50152 0.490189 0.478297 0.465888 0.453075 0.439917 
0.426326 0.412375 0.398361 0.385126 0.373004 0.362335 0.353243 0.345947 0.341527 
0.506313 0.5121 0.517546 0.522348 0.526393 0.529638 0.532026 0.533465 0.533833 
0.532944 0.53058 0.526567 0.520978 0.513942 0.505654 0.496371 0.486331 0.475709 
0.464597 0.453092 0.441268 0.429159 0.416897 0.404754 0.393158 0.38241 0.372771 
0.364386 0.357454 0.352655 0.501903 0.507912 0.513147 0.517598 0.521229 0.524014 
0.525912 0.526862 0.526781 0.525561 0.523087 0.519279 0.514177 0.507879 0.500529 
0.492304 0.483377 0.473892 0.463952 0.453654 0.443083 0.432317 0.421489 0.410806 
0.400545 0.390934 0.382173 0.374394 0.367763 0.362736 0.497711 0.503749 0.508834 
0.513037 0.516366 0.518815 0.520368 0.52099 0.520636 0.519248 0.516773 0.513185 
0.508518 0.502848 0.496287 0.488964 0.48101 0.472543 0.463662 0.454459 0.445022 
0.43544 0.425834 0.416361 0.407208 0.398547 0.390528 0.383264 0.376889 0.371772 
0.493679 0.499682 0.504651 0.508675 0.511787 0.514001 0.515321 0.515737 0.515233 
0.513789 0.511388 0.508035 0.503767 0.498648 0.492767 0.486225 0.479125 0.471565 
0.463633 0.455414 0.446989 0.438445 0.429883 0.421423 0.413198 0.405334 0.397945 
0.391118 0.384966 0.379808 0.489831 0.495785 0.500661 0.504556 0.507517 0.509573 
0.510744 0.511043 0.510476 0.509048 0.506768 0.503659 0.499761 0.495134 0.48985 
0.483992 0.477644 0.470889 0.463802 0.456458 0.44893 0.441292 0.433627 0.426027 
0.418586 0.411396 0.404541 0.39809 0.392133 0.386946 0.48619 0.492095 0.496898 
0.500701 0.503559 0.505514 0.506601 0.506846 0.506276 0.504912 0.502781 0.499917 
0.496366 0.492181 0.487428 0.482175 0.476493 0.47045 0.464113 0.457544 0.450805 
0.443959 0.437069 0.430203 0.423429 0.416813 0.410415 0.404286 0.398497 0.393287 
0.482768 0.48863 0.493376 0.497115 0.499908 0.501806 0.502854 0.503092 0.502558 
0.501289 0.499323 0.496702 0.493474 0.489691 0.485412 0.480697 0.475605 0.470194 
0.464521 0.458637 0.452592 0.446436 0.440217 0.433983 0.427782 0.421657 0.415651 
0.409798 0.404155 0.398922 0.479576 0.485397 0.490101 0.493797 0.496553 0.498426 
0.499468 0.499731 0.499261 0.498106 0.496312 0.493926 0.490999 0.487583 0.48373 
0.479494 0.474926 0.470077 0.46499 0.45971 0.454276 0.448723 0.443087 0.4374 
0.431693 0.425991 0.420323 0.414707 0.409188 0.403935 0.476613 0.482398 0.48707 
0.49074 0.49348 0.495349 0.49641 0.496718 0.49633 0.4953 0.493679 0.491519 
0.488873 0.48579 0.482322 0.478514 0.474414 0.470061 0.465495 0.460747 0.455849 
0.450825 0.445698 0.440486 0.435206 0.42987 0.424493 0.419083 0.41367 0.408398 
0.473877 0.47963 0.484278 0.487934 0.490672 0.492555 0.493649 0.494018 0.493721 
0.492819 0.491368 0.489424 0.487037 0.484259 0.481137 0.477714 0.47403 0.470119 
0.466013 0.461736 0.45731 0.45275 0.448067 0.443269 0.438361 0.433344 0.428219 
0.422987 0.417667 0.412377 0.471361 0.477084 0.481716 0.485367 0.488112 0.490019 
0.491158 0.491594 0.491394 0.490621 0.489334 0.487592 0.485446 0.482946 0.480136 
0.477058 0.473745 0.470228 0.46653 0.462669 0.458659 0.454507 0.450214 0.445779 
0.441195 0.436455 0.431551 0.426474 0.421234 0.415928 0.469055 0.474751 0.479371 
0.483023 0.485783 0.487721 0.48891 0.489418 0.489316 0.488668 0.487538 0.485985 
0.48406 0.481813 0.479286 0.476517 0.473536 0.470369 0.467034 0.463542 0.4599 
0.456107 0.452157 0.44804 0.443742 0.439245 0.434533 0.429592 0.424421 0.419101 
0.466948 0.47262 0.477232 0.480889 0.483668 0.485641 0.486882 0.487463 0.487456 
0.48693 0.485948 0.484569 0.482848 0.480831 0.47856 0.476068 0.473385 0.47053 
0.467516 0.464352 0.461035 0.45756 0.453913 0.450077 0.446029 0.441746 0.437205 
0.432382 0.427273 0.42194 0.465029 0.470679 0.475284 0.478949 0.481749 0.483759 
0.485052 0.485705 0.485791 0.485379 0.484535 0.483318 0.481783 0.479975 0.477934 
0.475693 0.473276 0.470699 0.467973 0.465099 0.462071 0.458878 0.455499 0.451911 
0.448085 0.443991 0.4396 0.434882 0.429826 0.424482 0.463286 0.468915 0.473516 
0.477189 0.480012 0.482058 0.483403 0.484125 0.484297 0.483992 0.483276 0.482208 
0.480843 0.479225 0.477392 0.475376 0.473197 0.470869 0.468399 0.465784 0.463014 
0.460071 0.45693 0.453562 0.449933 0.446007 0.441749 0.437125 0.432116 0.426762 
0.461705 0.467315 0.471913 0.475596 0.47844 0.480521 0.481916 0.482702 0.482956 
0.48275 0.482152 0.48122 0.480009 0.478563 0.476918 0.475104 0.473139 0.471034 
0.468793 0.466409 0.463868 0.461148 0.45822 0.455049 0.451595 0.447818 0.443679 
0.439138 0.434173 0.42881 0.460276 0.465869 0.470464 0.474156 0.477021 0.479134 
0.480574 0.481421 0.48175 0.481636 0.481145 0.480337 0.479266 0.477975 0.4765 
0.474868 0.473095 0.47119 0.469154 0.466977 0.464641 0.46212 0.459382 0.456386 
0.45309 0.449447 0.445414 0.440948 0.436021 0.430651 0.458986 0.464563 0.469155 
0.472855 0.475739 0.477882 0.479365 0.480267 0.480665 0.480633 0.48024 0.479545 
0.478601 0.477451 0.476128 0.474659 0.473059 0.471334 0.469481 0.46749 0.465338 
0.462996 0.460427 0.45759 0.454434 0.450912 0.446975 0.442577 0.437685 0.432309 
0.457824 0.463386 0.467976 0.471683 0.474584 0.476754 0.478275 0.479226 0.479686 
0.47973 0.479426 0.478833 0.478003 0.476979 0.475794 0.474472 0.473027 0.471463 
0.469776 0.467951 0.465964 0.463783 0.461368 0.458672 0.455645 0.452232 0.448381 
0.444044 0.439184 0.433803 0.456781 0.462328 0.466915 0.470628 0.473544 0.475738 
0.477292 0.478287 0.478803 0.478915 0.47869 0.478189 0.477462 0.476552 0.475492 
0.474302 0.472996 0.471578 0.470039 0.468363 0.466525 0.46449 0.462213 0.459646 
0.456734 0.45342 0.449649 0.445368 0.440538 0.435153 0.455845 0.461379 0.465963 
0.469681 0.472608 0.474822 0.476405 0.47744 0.478005 0.478177 0.478024 0.477605 
0.476971 0.476164 0.475214 0.474144 0.472964 0.471676 0.470271 0.468731 0.467027 
0.465123 0.462972 0.460522 0.457716 0.454493 0.450794 0.446565 0.441761 0.436374 
0.455009 0.46053 0.46511 0.46883 0.471767 0.473998 0.475606 0.476674 0.477283 
0.477509 0.477418 0.477073 0.476522 0.475807 0.474958 0.473995 0.472928 0.471758 
0.470474 0.469056 0.467474 0.46569 0.463653 0.46131 0.4586 0.45546 0.451828 
0.447647 0.442869 0.43748 0.454262 0.459772 0.464347 0.468069 0.471012 0.473256 
0.474885 0.475982 0.476629 0.476901 0.476867 0.476587 0.476111 0.475478 0.474719 
0.473852 0.472888 0.471824 0.470649 0.469342 0.467871 0.466195 0.464264 0.462019 
0.459397 0.456334 0.452765 0.448628 0.443874 0.438483 0.453599 0.459097 0.463667 
0.467388 0.470336 0.47259 0.474235 0.475356 0.476035 0.476348 0.476363 0.476141 
0.475731 0.475173 0.474494 0.473714 0.472842 0.471874 0.470798 0.469592 0.468222 
0.466646 0.46481 0.462656 0.460116 0.457125 0.453613 0.449517 0.444787 0.439395 
0.453011 0.458498 0.463062 0.466781 0.46973 0.471991 0.473649 0.474789 0.475495 
0.475843 0.475901 0.47573 0.475379 0.474887 0.474281 0.473579 0.47279 0.471909 
0.470923 0.469809 0.468531 0.467046 0.465299 0.463228 0.460765 0.45784 0.454382 
0.450327 0.445618 0.440227 0.452491 0.457968 0.462525 0.46624 0.469189 0.471453 
0.47312 0.474275 0.475003 0.47538 0.475476 0.47535 0.475052 0.474618 0.474077 
0.473446 0.472731 0.471929 0.471025 0.469995 0.468802 0.467401 0.465736 0.463743 
0.461351 0.458488 0.455082 0.451063 0.446375 0.440986 0.452034 0.457501 0.462051 
0.46576 0.468706 0.470971 0.472643 0.473809 0.474554 0.474956 0.475084 0.474998 
0.474745 0.474364 0.473881 0.473313 0.472666 0.471936 0.471107 0.470153 0.469038 
0.467715 0.466126 0.464205 0.46188 0.459076 0.455719 0.451736 0.447068 0.44168 
0.451635 0.457091 0.461633 0.465335 0.468275 0.470538 0.472212 0.473386 0.474144 
0.474566 0.474721 0.474669 0.474456 0.474122 0.473691 0.47318 0.472595 0.471929 
0.471168 0.470285 0.469242 0.467991 0.466472 0.46462 0.462359 0.459611 0.456299 
0.452351 0.447704 0.442318 0.451288 0.456734 0.461267 0.46496 0.467893 0.470151 
0.471823 0.473 0.473768 0.474206 0.474384 0.47436 0.474183 0.47389 0.473506 
0.473047 0.472517 0.471911 0.471212 0.470393 0.469417 0.468232 0.466781 0.464992 
0.462791 0.460097 0.45683 0.452915 0.448287 0.442904 0.450988 0.456425 0.460947 
0.464631 0.467554 0.469804 0.471472 0.472649 0.473423 0.473873 0.474069 0.47407 
0.473925 0.473668 0.473325 0.472912 0.472433 0.47188 0.471238 0.47048 0.469565 
0.468443 0.467054 0.465327 0.463183 0.46054 0.457316 0.453433 0.448825 0.443445 
0.450732 0.456159 0.460671 0.464342 0.467254 0.469493 0.471154 0.472329 0.473105 
0.473564 0.473774 0.473797 0.473678 0.473453 0.473148 0.472776 0.472342 0.471839 
0.47125 0.470546 0.469689 0.468626 0.467296 0.465627 0.463537 0.460944 0.457762 
0.453911 0.449322 0.443946 0.450515 0.455932 0.460433 0.464091 0.466989 0.469216 
0.470867 0.472036 0.472812 0.473275 0.473497 0.473537 0.473441 0.473245 0.472973 
0.472639 0.472246 0.471788 0.471247 0.470594 0.46979 0.468783 0.46751 0.465895 
0.463859 0.461313 0.458172 0.454352 0.449782 0.444411 0.450334 0.455743 0.460231 
0.463875 0.466757 0.468969 0.470607 0.471767 0.47254 0.473006 0.473236 0.47329 
0.473213 0.473042 0.472799 0.472499 0.472144 0.471727 0.47123 0.470625 0.469872 
0.468917 0.467697 0.466136 0.464151 0.461652 0.458551 0.454762 0.450211 0.444845 
0.450187 0.455586 0.460061 0.463689 0.466553 0.468748 0.470372 0.471521 0.472287 
0.472753 0.472988 0.473053 0.472994 0.472844 0.472628 0.472357 0.472036 0.471657 
0.471202 0.470641 0.469935 0.46903 0.467861 0.466351 0.464416 0.461963 0.458901 
0.455142 0.450611 0.44525 0.450071 0.455459 0.459921 0.463531 0.466376 0.468552 
0.470159 0.471294 0.472052 0.472514 0.472753 0.472826 0.472781 0.47265 0.472457 
0.472214 0.471924 0.471579 0.471162 0.470643 0.469981 0.469124 0.468004 0.466544 
0.464656 0.462249 0.459226 0.455498 0.450986 0.445631 0.449982 0.455361 0.459808 
0.463399 0.466223 0.468378 0.469965 0.471085 0.471832 0.472289 0.472528 0.472608 
0.472573 0.472459 0.472286 0.472068 0.471806 0.471493 0.471111 0.470631 0.470012 
0.469199 0.468127 0.466715 0.464876 0.462512 0.459528 0.455831 0.451339 0.44599 
0.449919 0.455288 0.459719 0.46329 0.466092 0.468223 0.469789 0.470891 0.471625 
0.472075 0.472312 0.472396 0.472371 0.472271 0.472116 0.47192 0.471684 0.471401 
0.471051 0.470608 0.470029 0.469259 0.468233 0.466868 0.465075 0.462756 0.459811 
0.456144 0.451672 0.446331 0.449879 0.455238 0.459653 0.463203 0.46598 0.468086 
0.469629 0.470711 0.47143 0.471871 0.472105 0.472191 0.472173 0.472085 0.471947 
0.47177 0.471558 0.471301 0.470983 0.470573 0.470032 0.469304 0.468322 0.467004 
0.465257 0.462982 0.460076 0.45644 0.451989 0.446654 0.449862 0.455211 0.459608 
0.463135 0.465886 0.467965 0.469482 0.470543 0.471246 0.471675 0.471904 0.471991 
0.471979 0.4719 0.471777 0.471618 0.471427 0.471195 0.470905 0.470528 0.470023 
0.469336 0.468397 0.467124 0.465423 0.463192 0.460325 0.456721 0.45229 0.446964 
0.449865 0.455203 0.459582 0.463085 0.465808 0.467859 0.469349 0.470386 0.47107 
0.471487 0.47171 0.471795 0.471787 0.471718 0.471606 0.471464 0.471293 0.471084 
0.47082 0.470474 0.470004 0.469355 0.468458 0.46723 0.465575 0.463388 0.46056 
0.456988 0.452579 0.447261 0.449887 0.455214 0.459574 0.463051 0.465744 0.467765 
0.469226 0.470239 0.470903 0.471306 0.471521 0.471604 0.471599 0.471536 0.471436 
0.471308 0.471154 0.470967 0.470728 0.470411 0.469974 0.469363 0.468508 0.467324 
0.465714 0.463571 0.460784 0.457244 0.452857 0.447548 0.449926 0.455242 0.459582 
0.463032 0.465694 0.467682 0.469113 0.470099 0.470742 0.47113 0.471336 0.471415 
0.471412 0.471355 0.471264 0.47115 0.471012 0.470845 0.47063 0.47034 0.469935 
0.46936 0.468545 0.467406 0.465841 0.463743 0.460996 0.45749 0.453126 0.447826 
0.449982 0.455286 0.459605 0.463027 0.465656 0.46761 0.469009 0.469967 0.470588 
0.47096 0.471155 0.47123 0.471227 0.471175 0.471093 0.47099 0.470867 0.470718 
0.470525 0.470261 0.469886 0.469347 0.468573 0.467477 0.465958 0.463905 0.461199 
0.457727 0.453386 0.448096 0.450053 0.455345 0.459642 0.463034 0.465629 0.467548 
0.468913 0.469841 0.470438 0.470793 0.470977 0.471046 0.471043 0.470995 0.47092 
0.470828 0.470719 0.470586 0.470414 0.470175 0.46983 0.469325 0.46859 0.467538 
0.466065 0.464057 0.461394 0.457957 0.453641 0.448361 0.450139 0.455419 0.459693 
0.463053 0.465612 0.467493 0.468823 0.469721 0.470293 0.470629 0.470801 0.470865 
0.47086 0.470815 0.470747 0.470664 0.470568 0.470451 0.470298 0.470082 0.469766 
0.469295 0.468599 0.46759 0.466163 0.464202 0.461582 0.458181 0.45389 0.448621 
0.450239 0.455506 0.459756 0.463083 0.465603 0.467446 0.468739 0.469605 0.470151 
0.470468 0.470628 0.470685 0.470678 0.470635 0.470573 0.470498 0.470414 0.470311 
0.470176 0.469983 0.469694 0.469256 0.468599 0.467633 0.466254 0.46434 0.461764 
0.4584 0.454135 0.448878 0.450352 0.455606 0.45983 0.463122 0.465603 0.467405 
0.46866 0.469492 0.470012 0.47031 0.470456 0.470506 0.470497 0.470455 0.470398 
0.470331 0.470257 0.470168 0.47005 0.469879 0.469616 0.46921 0.468591 0.467669 
0.466336 0.464471 0.46194 0.458615 0.454377 0.449132 0.450478 0.455718 0.459915 
0.463171 0.46561 0.467369 0.468584 0.469383 0.469875 0.470152 0.470286 0.470327 
0.470316 0.470275 0.470222 0.470162 0.470097 0.470021 0.46992 0.469768 0.469532 
0.469157 0.468576 0.467697 0.466413 0.464596 0.462112 0.458827 0.454617 0.449385 
0.450616 0.455842 0.460011 0.463228 0.465624 0.467338 0.468513 0.469276 0.46974 
0.469996 0.470116 0.47015 0.470135 0.470095 0.470045 0.469992 0.469936 0.469871 
0.469785 0.469653 0.469441 0.469098 0.468553 0.467719 0.466482 0.464716 0.46228 
0.459036 0.454856 0.449638 0.450767 0.455977 0.460116 0.463293 0.465643 0.467312 
0.468443 0.46917 0.469606 0.469841 0.469946 0.469972 0.469954 0.469914 0.469867 
0.46982 0.469772 0.469718 0.469646 0.469532 0.469344 0.469031 0.468524 0.467733 
0.466546 0.464831 0.462446 0.459244 0.455095 0.449892 0.450929 0.456123 0.460231 
0.463366 0.465668 0.467289 0.468376 0.469066 0.469472 0.469686 0.469777 0.469795 
0.469773 0.469733 0.469689 0.469647 0.469606 0.469562 0.469503 0.469407 0.469242 
0.468959 0.468489 0.467742 0.466604 0.464942 0.462608 0.459451 0.455335 0.450147 
0.451102 0.45628 0.460354 0.463445 0.465698 0.467268 0.468311 0.468962 0.469339 
0.469531 0.469608 0.469617 0.469591 0.469552 0.46951 0.469472 0.469438 0.469403 
0.469357 0.469278 0.469135 0.46888 0.468447 0.467744 0.466657 0.465049 0.462768 
0.459658 0.455576 0.450404 0.451288 0.456447 0.460487 0.463531 0.465731 0.46725 
0.468246 0.468858 0.469205 0.469376 0.469438 0.469439 0.46941 0.46937 0.46933 
0.469296 0.469268 0.469242 0.469207 0.469144 0.469022 0.468796 0.468398 0.46774 
0.466705 0.465153 0.462927 0.459866 0.455819 0.450664 0.451484 0.456625 0.460628 
0.463623 0.465768 0.467234 0.468181 0.468754 0.46907 0.46922 0.469268 0.469261 
0.469228 0.469187 0.469149 0.469119 0.469097 0.469079 0.469054 0.469006 0.468904 
0.468706 0.468344 0.46773 0.466747 0.465253 0.463084 0.460074 0.456065 0.450928 
0.451692 0.456813 0.460777 0.46372 0.465808 0.467218 0.468116 0.468649 0.468934 
0.469063 0.469097 0.469082 0.469046 0.469004 0.468968 0.468941 0.468924 0.468913 
0.468898 0.468864 0.468782 0.46861 0.468284 0.467715 0.466785 0.465349 0.463241 
0.460284 0.456314 0.451197 0.451912 0.457011 0.460934 0.463822 0.465851 0.467203 
0.46805 0.468542 0.468797 0.468904 0.468926 0.468903 0.468863 0.468821 0.468786 