# vtk DataFile Version 5.1
vtk output
ASCII
DATASET UNSTRUCTURED_GRID
POINTS 4929 double
0.1016 1.5 0 0.1016 1.45 0 0.1016 1.4 0 
0.1016 1.35 0 0.1016 1.3 0 0.1016 1.25 0 
0.1016 1.2 0 0.1016 1.15 0 0.1016 1.1 0 
0.1016 1.05 0 0.1016 1 0 0.1016 0.95 0 
0.1016 0.9 0 0.1016 0.85 0 0.1016 0.8 0 
0.1016 0.75 0 0.1016 0.7 0 0.1016 0.65 0 
0.1016 0.6 0 0.1016 0.55 0 0.1016 0.5 0 
0.1016 0.45 0 0.1016 0.4 0 0.1016 0.35 0 
0.1016 0.3 0 0.1016 0.25 0 0.1016 0.2 0 
0.1016 0.15 0 0.1016 0.1 0 0.1016 0.05 0 
0.1016 0 0 5.08 1.5 0 5.08 1.45 0 
5.08 1.4 0 5.08 1.35 0 5.08 1.3 0 
5.08 1.25 0 5.08 1.2 0 5.08 1.15 0 
5.08 1.1 0 5.08 1.05 0 5.08 1 0 
5.08 0.95 0 5.08 0.9 0 5.08 0.85 0 
5.08 0.8 0 5.08 0.75 0 5.08 0.7 0 
5.08 0.65 0 5.08 0.6 0 5.08 0.55 0 
5.08 0.5 0 5.08 0.45 0 5.08 0.4 0 
5.08 0.35 0 5.08 0.3 0 5.08 0.25 0 
5.08 0.2 0 5.08 0.15 0 5.08 0.1 0 
5.08 0.05 0 5.08 0 0 0.12737462728 1.5 0 
0.12737462728 1.45 0 0.12737462728 1.4 0 0.12737462728 1.35 0 
0.12737462728 1.3 0 0.12737462728 1.25 0 0.12737462728 1.2 0 
0.12737462728 1.15 0 0.12737462728 1.1 0 0.12737462728 1.05 0 
0.12737462728 1 0 0.12737462728 0.95 0 0.12737462728 0.9 0 
0.12737462728 0.85 0 0.12737462728 0.8 0 0.12737462728 0.75 0 
0.12737462728 0.7 0 0.12737462728 0.65 0 0.12737462728 0.6 0 
0.12737462728 0.55 0 0.12737462728 0.5 0 0.12737462728 0.45 0 
0.12737462728 0.4 0 0.12737462728 0.35 0 0.12737462728 0.3 0 
0.12737462728 0.25 0 0.12737462728 0.2 0 0.12737462728 0.15 0 
0.12737462728 0.1 0 0.12737462728 0.05 0 0.12737462728 0 0 
0.15441581276 1.5 0 0.15441581276 1.45 0 0.15441581276 1.4 0 
0.15441581276 1.35 0 0.15441581276 1.3 0 0.15441581276 1.25 0 
0.15441581276 1.2 0 0.15441581276 1.15 0 0.15441581276 1.1 0 
0.15441581276 1.05 0 0.15441581276 1 0 0.15441581276 0.95 0 
0.15441581276 0.9 0 0.15441581276 0.85 0 0.15441581276 0.8 0 
0.15441581276 0.75 0 0.15441581276 0.7 0 0.15441581276 0.65 0 
0.15441581276 0.6 0 0.15441581276 0.55 0 0.15441581276 0.5 0 
0.15441581276 0.45 0 0.15441581276 0.4 0 0.15441581276 0.35 0 
0.15441581276 0.3 0 0.15441581276 0.25 0 0.15441581276 0.2 0 
0.15441581276 0.15 0 0.15441581276 0.1 0 0.15441581276 0.05 0 
0.15441581276 0 0 0.18278579477 1.5 0 0.18278579477 1.45 0 
0.18278579477 1.4 0 0.18278579477 1.35 0 0.18278579477 1.3 0 
0.18278579477 1.25 0 0.18278579477 1.2 0 0.18278579477 1.15 0 
0.18278579477 1.1 0 0.18278579477 1.05 0 0.18278579477 1 0 
0.18278579477 0.95 0 0.18278579477 0.9 0 0.18278579477 0.85 0 
0.18278579477 0.8 0 0.18278579477 0.75 0 0.18278579477 0.7 0 
0.18278579477 0.65 0 0.18278579477 0.6 0 0.18278579477 0.55 0 
0.18278579477 0.5 0 0.18278579477 0.45 0 0.18278579477 0.4 0 
0.18278579477 0.35 0 0.18278579477 0.3 0 0.18278579477 0.25 0 
0.18278579477 0.2 0 0.18278579477 0.15 0 0.18278579477 0.1 0 
0.18278579477 0.05 0 0.18278579477 0 0 0.21254987001 1.5 0 
0.21254987001 1.45 0 0.21254987001 1.4 0 0.21254987001 1.35 0 
0.21254987001 1.3 0 0.21254987001 1.25 0 0.21254987001 1.2 0 
0.21254987001 1.15 0 0.21254987001 1.1 0 0.21254987001 1.05 0 
0.21254987001 1 0 0.21254987001 0.95 0 0.21254987001 0.9 0 
0.21254987001 0.85 0 0.21254987001 0.8 0 0.21254987001 0.75 0 
0.21254987001 0.7 0 0.21254987001 0.65 0 0.21254987001 0.6 0 
0.21254987001 0.55 0 0.21254987001 0.5 0 0.21254987001 0.45 0 
0.21254987001 0.4 0 0.21254987001 0.35 0 0.21254987001 0.3 0 
0.21254987001 0.25 0 0.21254987001 0.2 0 0.21254987001 0.15 0 
0.21254987001 0.1 0 0.21254987001 0.05 0 0.21254987001 0 0 
0.24377654385 1.5 0 0.24377654385 1.45 0 0.24377654385 1.4 0 
0.24377654385 1.35 0 0.24377654385 1.3 0 0.24377654385 1.25 0 
0.24377654385 1.2 0 0.24377654385 1.15 0 0.24377654385 1.1 0 
0.24377654385 1.05 0 0.24377654385 1 0 0.24377654385 0.95 0 
0.24377654385 0.9 0 0.24377654385 0.85 0 0.24377654385 0.8 0 
0.24377654385 0.75 0 0.24377654385 0.7 0 0.24377654385 0.65 0 
0.24377654385 0.6 0 0.24377654385 0.55 0 0.24377654385 0.5 0 
0.24377654385 0.45 0 0.24377654385 0.4 0 0.24377654385 0.35 0 
0.24377654385 0.3 0 0.24377654385 0.25 0 0.24377654385 0.2 0 
0.24377654385 0.15 0 0.24377654385 0.1 0 0.24377654385 0.05 0 
0.24377654385 0 0 0.27653768798 1.5 0 0.27653768798 1.45 0 
0.27653768798 1.4 0 0.27653768798 1.35 0 0.27653768798 1.3 0 
0.27653768798 1.25 0 0.27653768798 1.2 0 0.27653768798 1.15 0 
0.27653768798 1.1 0 0.27653768798 1.05 0 0.27653768798 1 0 
0.27653768798 0.95 0 0.27653768798 0.9 0 0.27653768798 0.85 0 
0.27653768798 0.8 0 0.27653768798 0.75 0 0.27653768798 0.7 0 
0.27653768798 0.65 0 0.27653768798 0.6 0 0.27653768798 0.55 0 
0.27653768798 0.5 0 0.27653768798 0.45 0 0.27653768798 0.4 0 
0.27653768798 0.35 0 0.27653768798 0.3 0 0.27653768798 0.25 0 
0.27653768798 0.2 0 0.27653768798 0.15 0 0.27653768798 0.1 0 
0.27653768798 0.05 0 0.27653768798 0 0 0.31090870586 1.5 0 
0.31090870586 1.45 0 0.31090870586 1.4 0 0.31090870586 1.35 0 
0.31090870586 1.3 0 0.31090870586 1.25 0 0.31090870586 1.2 0 
0.31090870586 1.15 0 0.31090870586 1.1 0 0.31090870586 1.05 0 
0.31090870586 1 0 0.31090870586 0.95 0 0.31090870586 0.9 0 
0.31090870586 0.85 0 0.31090870586 0.8 0 0.31090870586 0.75 0 
0.31090870586 0.7 0 0.31090870586 0.65 0 0.31090870586 0.6 0 
0.31090870586 0.55 0 0.31090870586 0.5 0 0.31090870586 0.45 0 
0.31090870586 0.4 0 0.31090870586 0.35 0 0.31090870586 0.3 0 
0.31090870586 0.25 0 0.31090870586 0.2 0 0.31090870586 0.15 0 
0.31090870586 0.1 0 0.31090870586 0.05 0 0.31090870586 0 0 
0.34696870625 1.5 0 0.34696870625 1.45 0 0.34696870625 1.4 0 
0.34696870625 1.35 0 0.34696870625 1.3 0 0.34696870625 1.25 0 
0.34696870625 1.2 0 0.34696870625 1.15 0 0.34696870625 1.1 0 
0.34696870625 1.05 0 0.34696870625 1 0 0.34696870625 0.95 0 
0.34696870625 0.9 0 0.34696870625 0.85 0 0.34696870625 0.8 0 
0.34696870625 0.75 0 0.34696870625 0.7 0 0.34696870625 0.65 0 
0.34696870625 0.6 0 0.34696870625 0.55 0 0.34696870625 0.5 0 
0.34696870625 0.45 0 0.34696870625 0.4 0 0.34696870625 0.35 0 
0.34696870625 0.3 0 0.34696870625 0.25 0 0.34696870625 0.2 0 
0.34696870625 0.15 0 0.34696870625 0.1 0 0.34696870625 0.05 0 
0.34696870625 0 0 0.3848006853 1.5 0 0.3848006853 1.45 0 
0.3848006853 1.4 0 0.3848006853 1.35 0 0.3848006853 1.3 0 
0.3848006853 1.25 0 0.3848006853 1.2 0 0.3848006853 1.15 0 
0.3848006853 1.1 0 0.3848006853 1.05 0 0.3848006853 1 0 
0.3848006853 0.95 0 0.3848006853 0.9 0 0.3848006853 0.85 0 
0.3848006853 0.8 0 0.3848006853 0.75 0 0.3848006853 0.7 0 
0.3848006853 0.65 0 0.3848006853 0.6 0 0.3848006853 0.55 0 
0.3848006853 0.5 0 0.3848006853 0.45 0 0.3848006853 0.4 0 
0.3848006853 0.35 0 0.3848006853 0.3 0 0.3848006853 0.25 0 
0.3848006853 0.2 0 0.3848006853 0.15 0 0.3848006853 0.1 0 
0.3848006853 0.05 0 0.3848006853 0 0 0.42449171754 1.5 0 
0.42449171754 1.45 0 0.42449171754 1.4 0 0.42449171754 1.35 0 
0.42449171754 1.3 0 0.42449171754 1.25 0 0.42449171754 1.2 0 
0.42449171754 1.15 0 0.42449171754 1.1 0 0.42449171754 1.05 0 
0.42449171754 1 0 0.42449171754 0.95 0 0.42449171754 0.9 0 
0.42449171754 0.85 0 0.42449171754 0.8 0 0.42449171754 0.75 0 
0.42449171754 0.7 0 0.42449171754 0.65 0 0.42449171754 0.6 0 
0.42449171754 0.55 0 0.42449171754 0.5 0 0.42449171754 0.45 0 
0.42449171754 0.4 0 0.42449171754 0.35 0 0.42449171754 0.3 0 
0.42449171754 0.25 0 0.42449171754 0.2 0 0.42449171754 0.15 0 
0.42449171754 0.1 0 0.42449171754 0.05 0 0.42449171754 0 0 
0.46613315636 1.5 0 0.46613315636 1.45 0 0.46613315636 1.4 0 
0.46613315636 1.35 0 0.46613315636 1.3 0 0.46613315636 1.25 0 
0.46613315636 1.2 0 0.46613315636 1.15 0 0.46613315636 1.1 0 
0.46613315636 1.05 0 0.46613315636 1 0 0.46613315636 0.95 0 
0.46613315636 0.9 0 0.46613315636 0.85 0 0.46613315636 0.8 0 
0.46613315636 0.75 0 0.46613315636 0.7 0 0.46613315636 0.65 0 
0.46613315636 0.6 0 0.46613315636 0.55 0 0.46613315636 0.5 0 
0.46613315636 0.45 0 0.46613315636 0.4 0 0.46613315636 0.35 0 
0.46613315636 0.3 0 0.46613315636 0.25 0 0.46613315636 0.2 0 
0.46613315636 0.15 0 0.46613315636 0.1 0 0.46613315636 0.05 0 
0.46613315636 0 0 0.5098208442 1.5 0 0.5098208442 1.45 0 
0.5098208442 1.4 0 0.5098208442 1.35 0 0.5098208442 1.3 0 
0.5098208442 1.25 0 0.5098208442 1.2 0 0.5098208442 1.15 0 
0.5098208442 1.1 0 0.5098208442 1.05 0 0.5098208442 1 0 
0.5098208442 0.95 0 0.5098208442 0.9 0 0.5098208442 0.85 0 
0.5098208442 0.8 0 0.5098208442 0.75 0 0.5098208442 0.7 0 
0.5098208442 0.65 0 0.5098208442 0.6 0 0.5098208442 0.55 0 
0.5098208442 0.5 0 0.5098208442 0.45 0 0.5098208442 0.4 0 
0.5098208442 0.35 0 0.5098208442 0.3 0 0.5098208442 0.25 0 
0.5098208442 0.2 0 0.5098208442 0.15 0 0.5098208442 0.1 0 
0.5098208442 0.05 0 0.5098208442 0 0 0.55565533319 1.5 0 
0.55565533319 1.45 0 0.55565533319 1.4 0 0.55565533319 1.35 0 
0.55565533319 1.3 0 0.55565533319 1.25 0 0.55565533319 1.2 0 
0.55565533319 1.15 0 0.55565533319 1.1 0 0.55565533319 1.05 0 
0.55565533319 1 0 0.55565533319 0.95 0 0.55565533319 0.9 0 
0.55565533319 0.85 0 0.55565533319 0.8 0 0.55565533319 0.75 0 
0.55565533319 0.7 0 0.55565533319 0.65 0 0.55565533319 0.6 0 
0.55565533319 0.55 0 0.55565533319 0.5 0 0.55565533319 0.45 0 
0.55565533319 0.4 0 0.55565533319 0.35 0 0.55565533319 0.3 0 
0.55565533319 0.25 0 0.55565533319 0.2 0 0.55565533319 0.15 0 
0.55565533319 0.1 0 0.55565533319 0.05 0 0.55565533319 0 0 
0.60374211656 1.5 0 0.60374211656 1.45 0 0.60374211656 1.4 0 
0.60374211656 1.35 0 0.60374211656 1.3 0 0.60374211656 1.25 0 
0.60374211656 1.2 0 0.60374211656 1.15 0 0.60374211656 1.1 0 
0.60374211656 1.05 0 0.60374211656 1 0 0.60374211656 0.95 0 
0.60374211656 0.9 0 0.60374211656 0.85 0 0.60374211656 0.8 0 
0.60374211656 0.75 0 0.60374211656 0.7 0 0.60374211656 0.65 0 
0.60374211656 0.6 0 0.60374211656 0.55 0 0.60374211656 0.5 0 
0.60374211656 0.45 0 0.60374211656 0.4 0 0.60374211656 0.35 0 
0.60374211656 0.3 0 0.60374211656 0.25 0 0.60374211656 0.2 0 
0.60374211656 0.15 0 0.60374211656 0.1 0 0.60374211656 0.05 0 
0.60374211656 0 0 0.65419187143 1.5 0 0.65419187143 1.45 0 
0.65419187143 1.4 0 0.65419187143 1.35 0 0.65419187143 1.3 0 
0.65419187143 1.25 0 0.65419187143 1.2 0 0.65419187143 1.15 0 
[...]
CELL_DATA 4740
FIELD FieldData 7
B_Stress_n_p_m2 1 4740 float
0.109002 0.13756 0.142578 0.156218 0.163894 0.167666 0.169424 0.169986 0.169964 
0.16971 0.169407 0.169137 0.168932 0.168798 0.168733 0.168733 0.168798 0.168932 
0.169137 0.169407 0.16971 0.169964 0.169986 0.169424 0.167666 0.163894 0.156218 
0.142578 0.13756 0.109002 0.266302 0.0620077 0.114717 0.141907 0.153373 0.162294 
0.167894 0.171217 0.173093 0.174056 0.174491 0.174644 0.174667 0.174645 0.174626 
0.174626 0.174645 0.174667 0.174644 0.174491 0.174056 0.173093 0.171217 0.167894 
0.162294 0.153373 0.141907 0.114717 0.0620077 0.266302 0.155808 0.0922577 0.121731 
0.141906 0.151982 0.158537 0.16244 0.164616 0.165756 0.166293 0.166503 0.166553 
0.166538 0.166508 0.166489 0.166489 0.166508 0.166538 0.166553 0.166503 0.166293 
0.165756 0.164616 0.16244 0.158537 0.151982 0.141906 0.121731 0.0922577 0.155808 
0.132259 0.109673 0.125516 0.140645 0.150005 0.156165 0.160022 0.162323 0.163646 
0.16437 0.164745 0.164926 0.165007 0.165039 0.165049 0.165049 0.165039 0.165007 
0.164926 0.164745 0.16437 0.163646 0.162323 0.160022 0.156165 0.150005 0.140645 
0.125516 0.109673 0.132259 0.133198 0.120061 0.129011 0.140125 0.148314 0.154224 
0.158247 0.160869 0.16253 0.163554 0.164169 0.164531 0.164738 0.164848 0.164897 
0.164897 0.164848 0.164738 0.164531 0.164169 0.163554 0.16253 0.160869 0.158247 
0.154224 0.148314 0.140125 0.129011 0.120061 0.133198 0.132821 0.127376 0.132903 
0.140769 0.147471 0.152755 0.15663 0.159342 0.161186 0.16241 0.163207 0.163717 
0.164032 0.164213 0.164296 0.164296 0.164213 0.164032 0.163717 0.163207 0.16241 
0.161186 0.159342 0.15663 0.152755 0.147471 0.140769 0.132903 0.127376 0.132821 
0.132835 0.132141 0.136103 0.141799 0.147192 0.151759 0.155329 0.157984 0.159896 
0.161239 0.162164 0.162787 0.16319 0.163431 0.163544 0.163544 0.163431 0.16319 
0.162787 0.162164 0.161239 0.159896 0.157984 0.155329 0.151759 0.147192 0.141799 
0.136103 0.132141 0.132835 0.134106 0.135259 0.138473 0.142832 0.147216 0.151129 
0.154354 0.156876 0.158782 0.160183 0.16119 0.161893 0.162365 0.162653 0.16279 
0.16279 0.162653 0.162365 0.161893 0.16119 0.160183 0.158782 0.156876 0.154354 
0.151129 0.147216 0.142832 0.138473 0.135259 0.134106 0.135882 0.137511 0.140281 
0.14379 0.147412 0.150765 0.153644 0.155992 0.157837 0.159245 0.160292 0.161045 
0.161563 0.161885 0.16204 0.16204 0.161885 0.161563 0.161045 0.160292 0.159245 
0.157837 0.155992 0.153644 0.150765 0.147412 0.14379 0.140281 0.137511 0.135882 
0.137627 0.139293 0.141735 0.144663 0.147707 0.150592 0.153146 0.155298 0.157046 
0.158421 0.159472 0.160248 0.160791 0.161134 0.161301 0.161301 0.161134 0.160791 
0.160248 0.159472 0.158421 0.157046 0.155298 0.153146 0.150592 0.147707 0.144663 
0.141735 0.139293 0.137627 0.13916 0.140769 0.142949 0.145455 0.148053 0.15055 
0.152811 0.154765 0.156394 0.157709 0.158737 0.159511 0.160061 0.160414 0.160586 
0.160586 0.160414 0.160061 0.159511 0.158737 0.157709 0.156394 0.154765 0.152811 
0.15055 0.148053 0.145455 0.142949 0.140769 0.13916 0.140452 0.142007 0.143978 
0.146168 0.148419 0.150598 0.1526 0.154364 0.155865 0.157101 0.158086 0.15884 
0.159383 0.159735 0.159907 0.159907 0.159735 0.159383 0.15884 0.158086 0.157101 
0.155865 0.154364 0.1526 0.150598 0.148419 0.146168 0.143978 0.142007 0.140452 
0.141524 0.143046 0.144853 0.146802 0.148783 0.150701 0.15248 0.154068 0.155441 
0.156589 0.157518 0.158238 0.158763 0.159105 0.159274 0.159274 0.159105 0.158763 
0.158238 0.157518 0.156589 0.155441 0.154068 0.15248 0.150701 0.148783 0.146802 
0.144853 0.143046 0.141524 0.142409 0.143911 0.145596 0.14736 0.149128 0.150835 
0.152424 0.153855 0.155104 0.156161 0.157026 0.157704 0.158203 0.15853 0.158692 
0.158692 0.15853 0.158203 0.157704 0.157026 0.156161 0.155104 0.153855 0.152424 
0.150835 0.149128 0.14736 0.145596 0.143911 0.142409 0.143138 0.144629 0.146222 
0.147845 0.149447 0.150982 0.152411 0.153703 0.154839 0.155807 0.156606 0.157237 
0.157704 0.158012 0.158165 0.158165 0.158012 0.157704 0.157237 0.156606 0.155807 
0.154839 0.153703 0.152411 0.150982 0.149447 0.147845 0.146222 0.144629 0.143138 
0.143737 0.145222 0.146746 0.148261 0.149733 0.15113 0.152426 0.153598 0.154631 
0.155516 0.15625 0.156833 0.157266 0.157553 0.157696 0.157696 0.157553 0.157266 
0.156833 0.15625 0.155516 0.154631 0.153598 0.152426 0.15113 0.149733 0.148261 
0.146746 0.145222 0.143737 0.14423 0.14571 0.147182 0.148615 0.149984 0.151271 
0.152457 0.153526 0.154469 0.155279 0.155951 0.156487 0.156886 0.157151 0.157283 
0.157283 0.157151 0.156886 0.156487 0.155951 0.155279 0.154469 0.153526 0.152457 
0.151271 0.149984 0.148615 0.147182 0.14571 0.14423 0.144634 0.14611 0.147543 
0.148912 0.150201 0.1514 0.152495 0.153479 0.154344 0.155085 0.155702 0.156193 
0.15656 0.156803 0.156925 0.156925 0.156803 0.15656 0.156193 0.155702 0.155085 
0.154344 0.153479 0.152495 0.1514 0.150201 0.148912 0.147543 0.14611 0.144634 
0.144963 0.146437 0.14784 0.14916 0.150386 0.151514 0.152536 0.153448 0.154246 
0.154929 0.155495 0.155946 0.156283 0.156506 0.156617 0.156617 0.156506 0.156283 
0.155946 0.155495 0.154929 0.154246 0.153448 0.152536 0.151514 0.150386 0.14916 
0.14784 0.146437 0.144963 0.145231 0.146703 0.148084 0.149365 0.150542 0.151613 
0.152575 0.153428 0.15417 0.154802 0.155325 0.15574 0.156049 0.156255 0.156357 
0.156357 0.156255 0.156049 0.15574 0.155325 0.154802 0.15417 0.153428 0.152575 
0.151613 0.150542 0.149365 0.148084 0.146703 0.145231 0.145449 0.14692 0.148283 
0.149534 0.150672 0.151698 0.152611 0.153415 0.15411 0.154699 0.155185 0.155569 
0.155854 0.156043 0.156138 0.156138 0.156043 0.155854 0.155569 0.155185 0.154699 
0.15411 0.153415 0.152611 0.151698 0.150672 0.149534 0.148283 0.14692 0.145449 
0.145627 0.147096 0.148445 0.149672 0.150779 0.151769 0.152643 0.153407 0.154063 
0.154616 0.15507 0.155427 0.155692 0.155867 0.155954 0.155954 0.155867 0.155692 
0.155427 0.15507 0.154616 0.154063 0.153407 0.152643 0.151769 0.150779 0.149672 
0.148445 0.147096 0.145627 0.145772 0.14724 0.148577 0.149786 0.150868 0.151828 
0.152671 0.153402 0.154026 0.154548 0.154975 0.15531 0.155557 0.15572 0.155801 
0.155801 0.15572 0.155557 0.15531 0.154975 0.154548 0.154026 0.153402 0.152671 
0.151828 0.150868 0.149786 0.148577 0.14724 0.145772 0.145891 0.147357 0.148686 
0.149879 0.150941 0.151877 0.152694 0.153398 0.153995 0.154492 0.154896 0.155212 
0.155444 0.155597 0.155673 0.155673 0.155597 0.155444 0.155212 0.154896 0.154492 
0.153995 0.153398 0.152694 0.151877 0.150941 0.149879 0.148686 0.147357 0.145891 
0.14599 0.147455 0.148776 0.149957 0.151002 0.151919 0.152714 0.153395 0.153969 
0.154446 0.15483 0.15513 0.155349 0.155493 0.155565 0.155565 0.155493 0.155349 
0.15513 0.15483 0.154446 0.153969 0.153395 0.152714 0.151919 0.151002 0.149957 
0.148776 0.147455 0.14599 0.146074 0.147538 0.148853 0.150023 0.151054 0.151954 
0.15273 0.153392 0.153947 0.154405 0.154774 0.155059 0.155268 0.155404 0.155472 
0.155472 0.155404 0.155268 0.155059 0.154774 0.154405 0.153947 0.153392 0.15273 
0.151954 0.151054 0.150023 0.148853 0.147538 0.146074 0.146147 0.14761 0.148919 
0.15008 0.151098 0.151984 0.152744 0.153389 0.153928 0.15437 0.154724 0.154997 
0.155196 0.155326 0.15539 0.15539 0.155326 0.155196 0.154997 0.154724 0.15437 
0.153928 0.153389 0.152744 0.151984 0.151098 0.15008 0.148919 0.14761 0.146147 
0.146214 0.147675 0.148978 0.15013 0.151138 0.15201 0.152756 0.153386 0.15391 
0.154338 0.154679 0.154941 0.155131 0.155255 0.155316 0.155316 0.155255 0.155131 
0.154941 0.154679 0.154338 0.15391 0.153386 0.152756 0.15201 0.151138 0.15013 
0.148978 0.147675 0.146214 0.146276 0.147735 0.149034 0.150178 0.151175 0.152035 
0.152767 0.153383 0.153892 0.154307 0.154636 0.154888 0.15507 0.155189 0.155247 
0.155247 0.155189 0.15507 0.154888 0.154636 0.154307 0.153892 0.153383 0.152767 
0.152035 0.151175 0.150178 0.149034 0.147735 0.146276 0.146337 0.147794 0.149087 
0.150223 0.15121 0.152058 0.152777 0.153379 0.153875 0.154277 0.154594 0.154836 
0.155011 0.155124 0.15518 0.15518 0.155124 0.155011 0.154836 0.154594 0.154277 
0.153875 0.153379 0.152777 0.152058 0.15121 0.150223 0.149087 0.147794 0.146337 
0.146398 0.147853 0.149141 0.150269 0.151245 0.152081 0.152787 0.153375 0.153858 
0.154246 0.154552 0.154785 0.154952 0.155059 0.155112 0.155112 0.155059 0.154952 
0.154785 0.154552 0.154246 0.153858 0.153375 0.152787 0.152081 0.151245 0.150269 
0.149141 0.147853 0.146398 0.146462 0.147915 0.149197 0.150316 0.151282 0.152104 
0.152796 0.15337 0.153839 0.154215 0.154509 0.154731 0.15489 0.154992 0.155043 
0.155043 0.154992 0.15489 0.154731 0.154509 0.154215 0.153839 0.15337 0.152796 
0.152104 0.151282 0.150316 0.149197 0.147915 0.146462 0.14653 0.14798 0.149256 
0.150366 0.15132 0.152129 0.152806 0.153365 0.153819 0.154181 0.154462 0.154674 
0.154825 0.154922 0.154969 0.154969 0.154922 0.154825 0.154674 0.154462 0.154181 
0.153819 0.153365 0.152806 0.152129 0.15132 0.150366 0.149256 0.14798 0.14653 
0.146604 0.148051 0.149321 0.15042 0.151361 0.152155 0.152817 0.153359 0.153797 
0.154144 0.154412 0.154613 0.154756 0.154847 0.154891 0.154891 0.154847 0.154756 
0.154613 0.154412 0.154144 0.153797 0.153359 0.152817 0.152155 0.151361 0.15042 
0.149321 0.148051 0.146604 0.146686 0.148129 0.149391 0.15048 0.151406 0.152184 
0.152828 0.153352 0.153773 0.154104 0.154358 0.154547 0.15468 0.154765 0.154806 
0.154806 0.154765 0.15468 0.154547 0.154358 0.154104 0.153773 0.153352 0.152828 
0.152184 0.151406 0.15048 0.149391 0.148129 0.146686 0.146777 0.148216 0.149469 
0.150545 0.151456 0.152215 0.15284 0.153344 0.153746 0.154059 0.154298 0.154474 
0.154597 0.154675 0.154713 0.154713 0.154675 0.154597 0.154474 0.154298 0.154059 
0.153746 0.153344 0.15284 0.152215 0.151456 0.150545 0.149469 0.148216 0.146777 
0.146879 0.148314 0.149557 0.150618 0.151511 0.15225 0.152852 0.153335 0.153715 
0.154009 0.154231 0.154393 0.154506 0.154577 0.154611 0.154611 0.154577 0.154506 
0.154393 0.154231 0.154009 0.153715 0.153335 0.152852 0.15225 0.151511 0.150618 
0.149557 0.148314 0.146879 0.146994 0.148424 0.149656 0.1507 0.151572 0.152288 
0.152865 0.153323 0.153681 0.153953 0.154157 0.154304 0.154405 0.154468 0.154498 
0.154498 0.154468 0.154405 0.154304 0.154157 0.153953 0.153681 0.153323 0.152865 
0.152288 0.151572 0.1507 0.149656 0.148424 0.146994 0.147126 0.148549 0.149767 
0.150792 0.15164 0.152329 0.152879 0.153309 0.15364 0.15389 0.154073 0.154204 
0.154293 0.154347 0.154373 0.154373 0.154347 0.154293 0.154204 0.154073 0.15389 
0.15364 0.153309 0.152879 0.152329 0.15164 0.150792 0.149767 0.148549 0.147126 
0.147276 0.148692 0.149894 0.150897 0.151717 0.152375 0.152892 0.153292 0.153594 
0.153818 0.153979 0.154092 0.154168 0.154214 0.154235 0.154235 0.154214 0.154168 
0.154092 0.153979 0.153818 0.153594 0.153292 0.152892 0.152375 0.151717 0.150897 
0.149894 0.148692 0.147276 0.14745 0.148857 0.15004 0.151015 0.151802 0.152424 
0.152905 0.153269 0.153539 0.153735 0.153872 0.153967 0.154028 0.154065 0.154082 
0.154082 0.154065 0.154028 0.153967 0.153872 0.153735 0.153539 0.153269 0.152905 
0.152424 0.151802 0.151015 0.15004 0.148857 0.14745 0.147652 0.149048 0.150208 
0.15115 0.151898 0.152477 0.152916 0.15324 0.153474 0.153639 0.153751 0.153826 
0.153873 0.1539 0.153913 0.153913 0.1539 0.153873 0.153826 0.153751 0.153639 
0.153474 0.15324 0.152916 0.152477 0.151898 0.15115 0.150208 0.149048 0.147652 
0.14789 0.149271 0.150402 0.151304 0.152004 0.152533 0.152922 0.153202 0.153396 
0.153527 0.153613 0.153667 0.1537 0.153718 0.153726 0.153726 0.153718 0.1537 
0.153667 0.153613 0.153527 0.153396 0.153202 0.152922 0.152533 0.152004 0.151304 
0.150402 0.149271 0.14789 0.148173 0.149536 0.150629 0.151479 0.15212 0.152589 
0.152921 0.153149 0.1533 0.153396 0.153455 0.153489 0.153507 0.153516 0.153519 
0.153519 0.153516 0.153507 0.153489 0.153455 0.153396 0.1533 0.153149 0.152921 
0.152589 0.15212 0.151479 0.150629 0.149536 0.148173 0.148515 0.149852 0.150894 
0.151677 0.152244 0.15264 0.152906 0.153078 0.153183 0.153243 0.153274 0.153289 
0.153294 0.153294 0.153294 0.153294 0.153294 0.153294 0.153289 0.153274 0.153243 
0.153183 0.153078 0.152906 0.15264 0.152244 0.151677 0.150894 0.149852 0.148515 
0.148934 0.150235 0.151205 0.151898 0.152371 0.152679 0.152869 0.152979 0.153037 
0.153063 0.153069 0.153067 0.153061 0.153055 0.153052 0.153052 0.153055 0.153061 
0.153067 0.153069 0.153063 0.153037 0.152979 0.152869 0.152679 0.152371 0.151898 
0.151205 0.150235 0.148934 0.149469 0.150708 0.15157 0.152135 0.152485 0.152688 
0.152795 0.152843 0.152857 0.152852 0.15284 0.152825 0.152811 0.152802 0.152796 
0.152796 0.152802 0.152811 0.152825 0.15284 0.152852 0.152857 0.152843 0.152795 
0.152688 0.152485 0.152135 0.15157 0.150708 0.149469 0.150193 0.15131 0.151982 
0.152356 0.152548 0.152631 0.152655 0.152649 0.152629 0.152605 0.152582 0.152563 
0.152548 0.152538 0.152533 0.152533 0.152538 0.152548 0.152563 0.152582 0.152605 
0.152629 0.152649 0.152655 0.152631 0.152548 0.152356 0.151982 0.15131 0.150193 
0.151091 0.151908 0.152287 0.152442 0.152491 0.152491 0.152471 0.152446 0.152422 
0.152401 0.152384 0.152371 0.152362 0.152356 0.152353 0.152353 0.152356 0.152362 
0.152371 0.152384 0.152401 0.152422 0.152446 0.152471 0.152491 0.152491 0.152442 
0.152287 0.151908 0.151091 1387.06 2633.01 2983.7 3209.36 3341.67 3400.52 
3421.67 3423.88 3417.86 3409.58 3401.85 3395.71 3391.35 3388.63 3387.34 
3387.34 3388.63 3391.35 3395.71 3401.85 3409.58 3417.86 3423.88 3421.67 
3400.52 3341.67 3209.36 2983.7 2633.01 1387.06 1113.33 2307.09 2751.69 
2985.25 3113.51 3169.61 3188.08 3188.36 3181.16 3172.19 3164.07 3157.73 
3153.28 3150.52 3149.21 3149.21 3150.52 3153.28 3157.73 3164.07 3172.19 
3181.16 3188.36 3188.08 3169.61 3113.51 2985.25 2751.69 2307.09 1113.33 
1068.02 2060.9 2531.23 2775.73 2903.43 2958.84 2976.5 2976.18 2968.64 
2959.5 2951.3 2944.93 2940.47 2937.71 2936.4 2936.4 2937.71 2940.47 
2944.93 2951.3 2959.5 2968.64 2976.18 2976.5 2958.84 2903.43 2775.73 
2531.23 2060.9 1068.02 1089.14 1897.86 2350.86 2594.12 2720.51 2776.5 
2795.17 2795.9 2789.27 2780.83 2773.14 2767.09 2762.83 2760.18 2758.92 
2758.92 2760.18 2762.83 2767.09 2773.14 2780.83 2789.27 2795.9 2795.17 
2776.5 2720.51 2594.12 2350.86 1897.86 1089.14 1098.11 1799.39 2209.84 
2438.46 2560.76 2617.49 2638.23 2641.11 2636.3 2629.23 2622.48 2617.04 
2613.16 2610.71 2609.55 2609.55 2610.71 2613.16 2617.04 2622.48 2629.23 
2636.3 2641.11 2638.23 2617.49 2560.76 2438.46 2209.84 1799.39 1098.11 
1062.19 1729.19 2094 2303.7 2421.12 2479.03 2502.65 2508.44 2506.02 
2500.72 2495.18 2490.53 2487.11 2484.92 2483.87 2483.87 2484.92 2487.11 
2490.53 2495.18 2500.72 2506.02 2508.44 2502.65 2479.03 2421.12 2303.7 
2094 1729.19 1062.19 976.871 1660.09 1995.04 2192.44 2306.77 2366.31 
2392.95 2401.65 2401.57 2397.97 2393.58 2389.65 2386.67 2384.72 2383.77 
2383.77 2384.72 2386.67 2389.65 2393.58 2397.97 2401.57 2401.65 2392.95 
2366.31 2306.77 2192.44 1995.04 1660.09 976.871 963.573 1639.59 1936.73 
2130.7 2242.36 2301.17 2328.48 2338.04 2338.75 2335.76 2331.8 2328.16 
2325.36 2323.51 2322.6 2322.6 2323.51 2325.36 2328.16 2331.8 2335.76 
2338.75 2338.04 2328.48 2301.17 2242.36 2130.7 1936.73 1639.59 963.573 
0.259152 0.262246 0.265088 0.267684 0.270044 0.272171 0.274073 0.275753 0.277215 
0.278463 0.2795 0.280327 0.280945 0.281357 0.281563 0.281563 0.281357 0.280945 
0.280327 0.2795 0.278463 0.277215 0.275753 0.274073 0.272171 0.270044 0.267684 
0.265088 0.262246 0.259152 0.259079 0.262174 0.265016 0.267614 0.269974 0.272104 
0.274008 0.27569 0.277155 0.278405 0.279444 0.280272 0.280892 0.281305 0.281512 
0.281512 0.281305 0.280892 0.280272 0.279444 0.278405 0.277155 0.27569 0.274008 
0.272104 0.269974 0.267614 0.265016 0.262174 0.259079 0.259047 0.262142 0.264984 
0.267583 0.269946 0.272077 0.273983 0.275667 0.277135 0.278387 0.279428 0.280258 
0.28088 0.281293 0.2815 0.2815 0.281293 0.28088 0.280258 0.279428 0.278387 
0.277135 0.275667 0.273983 0.272077 0.269946 0.267583 0.264984 0.262142 0.259047 
0.259003 0.262097 0.26494 0.267541 0.269904 0.272038 0.273946 0.275633 0.277103 
0.278358 0.279401 0.280233 0.280857 0.281271 0.281479 0.281479 0.281271 0.280857 
0.280233 0.279401 0.278358 0.277103 0.275633 0.273946 0.272038 0.269904 0.267541 
0.26494 0.262097 0.259003 0.258961 0.262056 0.2649 0.267501 0.269867 0.272003 
0.273914 0.275604 0.277076 0.278334 0.279379 0.280214 0.280839 0.281255 0.281463 
0.281463 0.281255 0.280839 0.280214 0.279379 0.278334 0.277076 0.275604 0.273914 
0.272003 0.269867 0.267501 0.2649 0.262056 0.258961 0.258918 0.262013 0.264858 
0.267461 0.269828 0.271967 0.27388 0.275573 0.277049 0.27831 0.279358 0.280195 
0.280822 0.281239 0.281448 0.281448 0.281239 0.280822 0.280195 0.279358 0.27831 
0.277049 0.275573 0.27388 0.271967 0.269828 0.267461 0.264858 0.262013 0.258918 
0.258875 0.26197 0.264816 0.26742 0.26979 0.271931 0.273848 0.275544 0.277023 
0.278287 0.279338 0.280178 0.280807 0.281226 0.281435 0.281435 0.281226 0.280807 
0.280178 0.279338 0.278287 0.277023 0.275544 0.273848 0.271931 0.26979 0.26742 
0.264816 0.26197 0.258875 0.258831 0.261926 0.264773 0.26738 0.269752 0.271896 
0.273816 0.275516 0.276998 0.278266 0.27932 0.280162 0.280793 0.281214 0.281424 
0.281424 0.281214 0.280793 0.280162 0.27932 0.278266 0.276998 0.275516 0.273816 
0.271896 0.269752 0.26738 0.264773 0.261926 0.258831 0.258787 0.261883 0.264731 
0.267339 0.269714 0.271861 0.273784 0.275488 0.276974 0.278245 0.279303 0.280148 
0.280781 0.281203 0.281414 0.281414 0.281203 0.280781 0.280148 0.279303 0.278245 
0.276974 0.275488 0.273784 0.271861 0.269714 0.267339 0.264731 0.261883 0.258787 
0.258743 0.261838 0.264687 0.267298 0.269675 0.271826 0.273753 0.275461 0.276951 
0.278226 0.279287 0.280136 0.280771 0.281195 0.281407 0.281407 0.281195 0.280771 
0.280136 0.279287 0.278226 0.276951 0.275461 0.273753 0.271826 0.269675 0.267298 
0.264687 0.261838 0.258743 0.258697 0.261793 0.264644 0.267256 0.269637 0.271791 
0.273722 0.275434 0.276929 0.278208 0.279273 0.280125 0.280763 0.281189 0.281401 
0.281401 0.281189 0.280763 0.280125 0.279273 0.278208 0.276929 0.275434 0.273722 
0.271791 0.269637 0.267256 0.264644 0.261793 0.258697 0.258652 0.261748 0.2646 
0.267214 0.269598 0.271756 0.273691 0.275408 0.276907 0.278191 0.27926 0.280115 
0.280757 0.281184 0.281398 0.281398 0.281184 0.280757 0.280115 0.27926 0.278191 
0.276907 0.275408 0.273691 0.271756 0.269598 0.267214 0.2646 0.261748 0.258652 
0.258605 0.261702 0.264555 0.267172 0.269559 0.271721 0.273661 0.275382 0.276887 
0.278175 0.279249 0.280108 0.280752 0.281182 0.281396 0.281396 0.281182 0.280752 
0.280108 0.279249 0.278175 0.276887 0.275382 0.273661 0.271721 0.269559 0.267172 
0.264555 0.261702 0.258605 0.258558 0.261655 0.26451 0.26713 0.26952 0.271686 
0.273631 0.275357 0.276867 0.27816 0.279239 0.280101 0.280749 0.281181 0.281397 
0.281397 0.281181 0.280749 0.280101 0.279239 0.27816 0.276867 0.275357 0.273631 
0.271686 0.26952 0.26713 0.26451 0.261655 0.258558 0.25851 0.261607 0.264464 
0.267087 0.269481 0.271651 0.273601 0.275333 0.276848 0.278147 0.27923 0.280097 
0.280748 0.281182 0.281399 0.281399 0.281182 0.280748 0.280097 0.27923 0.278147 
0.276848 0.275333 0.273601 0.271651 0.269481 0.267087 0.264464 0.261607 0.25851 
0.258461 0.261559 0.264418 0.267043 0.269441 0.271616 0.273571 0.275309 0.276829 
0.278134 0.279222 0.280094 0.280749 0.281185 0.281404 0.281404 0.281185 0.280749 
0.280094 0.279222 0.278134 0.276829 0.275309 0.273571 0.271616 0.269441 0.267043 
0.264418 0.261559 0.258461 0.258411 0.26151 0.26437 0.266999 0.269401 0.271581 
0.273542 0.275285 0.276812 0.278123 0.279216 0.280093 0.280751 0.281191 0.28141 
0.28141 0.281191 0.280751 0.280093 0.279216 0.278123 0.276812 0.275285 0.273542 
0.271581 0.269401 0.266999 0.26437 0.26151 0.258411 0.258361 0.261461 0.264323 
0.266954 0.269361 0.271546 0.273512 0.275262 0.276795 0.278112 0.279212 0.280093 
0.280756 0.281198 0.281419 0.281419 0.281198 0.280756 0.280093 0.279212 0.278112 