# vtk DataFile Version 5.1
vtk output
ASCII
DATASET UNSTRUCTURED_GRID
POINTS 10043 double
-10.1 1.4499999993 -3.1683089219e-07 -10.049999999 1.4499999993 -1.9979982824e-07 -10.049999999 1.5 7.3252681432e-07 
-9.9999999985 1.4499999993 -1.5377302987e-07 -9.9999999985 1.5 5.7977899814e-07 -9.9499999978 1.4499999993 -1.3029988111e-07 
-9.9499999978 1.5 4.9448112804e-07 -9.899999997 1.4499999993 -1.1525775534e-07 -9.899999997 1.5 4.387336503e-07 
-9.8499999963 1.4499999993 -1.0465395661e-07 -9.8499999963 1.5 3.9890323933e-07 -9.7999999955 1.4499999993 -9.6690421003e-08 
-9.7999999955 1.5 3.688335255e-07 -9.7499999948 1.4499999993 -9.0487667137e-08 -9.7499999948 1.5 3.4527306525e-07 
-9.699999994 1.4499999993 -8.5529102023e-08 -9.699999994 1.5 3.2626644497e-07 -9.6499999933 1.4499999993 -8.1365435278e-08 
-9.6499999933 1.5 3.1054219107e-07 -9.5999999925 1.4499999993 -7.7907536422e-08 -9.5999999925 1.5 2.9739271667e-07 
-9.5499999918 1.4499999993 -7.4979872977e-08 -9.5499999918 1.5 2.8623685466e-07 -9.4999999911 1.4499999993 -7.2482400526e-08 
-9.4999999911 1.5 2.7661985769e-07 -9.4499999903 1.4499999993 -7.0181378931e-08 -9.4499999903 1.5 2.6828888622e-07 
-9.3999999896 1.4499999993 -6.8335104686e-08 -9.3999999896 1.5 2.6095381145e-07 -9.3499999888 1.4499999993 -6.6678914834e-08 
-9.3499999888 1.5 2.5453550734e-07 -9.2999999881 1.4499999993 -6.5124588389e-08 -9.2999999881 1.5 2.4889845918e-07 
-9.2499999873 1.4499999993 -6.382310147e-08 -9.2499999873 1.5 2.438471256e-07 -9.1999999866 1.4499999993 -6.2686233093e-08 
-9.1999999866 1.5 2.3935422178e-07 -9.1499999858 1.4499999993 -6.1623033787e-08 -9.1499999858 1.5 2.3532426496e-07 
-9.0999999851 1.4499999993 -6.0682616265e-08 -9.0999999851 1.5 2.3169720009e-07 -9.0499999844 1.4499999993 -5.9821324783e-08 
-9.0499999844 1.5 2.2849850723e-07 -8.9999999836 1.4499999993 -5.9046431744e-08 -8.9999999836 1.5 2.2559267165e-07 
-8.9499999829 1.4499999993 -5.8390686064e-08 -8.9499999829 1.5 2.2301243519e-07 -8.8999999821 1.4499999993 -5.7783143603e-08 
-8.8999999821 1.5 2.2062501159e-07 -8.8499999814 1.4499999993 -5.7207433457e-08 -8.8499999814 1.5 2.1856682508e-07 
-8.7999999806 1.4499999993 -5.669538794e-08 -8.7999999806 1.5 2.1664597227e-07 -8.7499999799 1.4499999993 -5.6272472904e-08 
-8.7499999799 1.5 2.1495795011e-07 -8.6999999791 1.4499999993 -5.6091483458e-08 -8.6999999791 1.5 2.1418124163e-07 
-8.6499999784 1.4499999993 -5.5700400736e-08 -8.6499999784 1.5 2.1276788686e-07 -8.5999999776 1.4499999993 -5.5344788308e-08 
-8.5999999776 1.5 2.1145275753e-07 -8.5499999769 1.4499999993 -5.5098315244e-08 -8.5499999769 1.5 2.1039137721e-07 
-8.4999999762 1.4499999993 -5.478817755e-08 -8.4999999762 1.5 2.0936001022e-07 -8.4499999754 1.4499999993 -5.4539885497e-08 
-8.4499999754 1.5 2.0849871873e-07 -8.3999999747 1.4499999993 -5.4419832196e-08 -8.3999999747 1.5 2.0779840781e-07 
-8.3499999739 1.4499999993 -5.4278860517e-08 -8.3499999739 1.5 2.0714448112e-07 -8.2999999732 1.4499999993 -5.4146983786e-08 
-8.2999999732 1.5 2.0662061218e-07 -8.2499999724 1.4499999993 -5.4013288064e-08 -8.2499999724 1.5 2.0620952057e-07 
-8.1999999717 1.4499999993 -5.3902329711e-08 -8.1999999717 1.5 2.0585117966e-07 -8.1499999709 1.4499999993 -5.3865949923e-08 
-8.1499999709 1.5 2.0560925407e-07 -8.0999999702 1.4499999993 -5.3767724495e-08 -8.0999999702 1.5 2.053800614e-07 
-8.0499999695 1.4499999993 -5.379955681e-08 -8.0499999695 1.5 2.0530048062e-07 -7.9999999687 1.4499999993 -5.375317258e-08 
-7.9999999687 1.5 2.0536050727e-07 -7.949999968 1.4499999993 -5.3701331382e-08 -7.949999968 1.5 2.0542826462e-07 
-7.8999999672 1.4499999993 -5.3792735599e-08 -7.8999999672 1.5 2.0551102864e-07 -7.8499999665 1.4499999993 -5.3890051532e-08 
-7.8499999665 1.5 2.0567337344e-07 -7.7999999657 1.4499999993 -5.3901420216e-08 -7.7999999657 1.5 2.0588119298e-07 
-7.749999965 1.4499999993 -5.4016016549e-08 -7.749999965 1.5 2.0627273045e-07 -7.6999999642 1.4499999993 -5.4142436312e-08 
-7.6999999642 1.5 2.065564928e-07 -7.6499999635 1.4499999993 -5.4219743362e-08 -7.6499999635 1.5 2.0698304581e-07 
-7.5999999627 1.4499999993 -5.4352984336e-08 -7.5999999627 1.5 2.0745552831e-07 -7.549999962 1.4499999993 -5.447758511e-08 
-7.549999962 1.5 2.0795711464e-07 -7.4999999613 1.4499999993 -5.4610826083e-08 -7.4999999613 1.5 2.0850553994e-07 
-7.4499999605 1.4499999993 -5.4761802204e-08 -7.4499999605 1.5 2.0908261433e-07 -7.3999999598 1.4499999993 -5.4951886597e-08 
-7.3999999598 1.5 2.0973017456e-07 -7.349999959 1.4499999993 -5.5111502917e-08 -7.349999959 1.5 2.104354877e-07 
-7.2999999583 1.4499999993 -5.5289309131e-08 -7.2999999583 1.5 2.1109669035e-07 -7.2499999575 1.4499999993 -5.5464386861e-08 
-7.2499999575 1.5 2.1185248045e-07 -7.1999999568 1.4499999993 -5.5655835496e-08 -7.1999999568 1.5 2.1260872529e-07 
-7.149999956 1.4499999993 -5.5876970606e-08 -7.149999956 1.5 2.133972572e-07 -7.0999999553 1.4499999993 -5.598643682e-08 
-7.0999999553 1.5 2.137919779e-07 -7.0499999546 1.4499999993 -5.6191982623e-08 -7.0499999546 1.5 2.1461279687e-07 
-6.9999999538 1.4499999993 -5.6443457908e-08 -6.9999999538 1.5 2.1545089623e-07 -6.9499999531 1.4499999993 -5.6645820479e-08 
-6.9499999531 1.5 2.1627444369e-07 -6.8999999523 1.4499999993 -5.6870010923e-08 -6.8999999523 1.5 2.1715347032e-07 
-6.8499999516 1.4499999993 -5.7088744398e-08 -6.8499999516 1.5 2.1806296502e-07 -6.7999999508 1.4499999993 -5.7300656664e-08 
-6.7999999508 1.5 2.1894653912e-07 -6.7499999501 1.4499999993 -5.7545765486e-08 -6.7499999501 1.5 2.1977145082e-07 
-6.6999999493 1.4499999993 -5.7787691077e-08 -6.6999999493 1.5 2.2065638916e-07 -6.6499999486 1.4499999993 -5.8009153037e-08 
-6.6499999486 1.5 2.2149630752e-07 -6.5999999478 1.4499999993 -5.8213334597e-08 -6.5999999478 1.5 2.2233440689e-07 
-6.5499999471 1.4499999993 -5.8471176345e-08 -6.5499999471 1.5 2.2313339798e-07 -6.4999999464 1.4499999993 -5.8634430644e-08 
-6.4999999464 1.5 2.2392283938e-07 -6.4499999456 1.4499999993 -5.8810872616e-08 -6.4499999456 1.5 2.2462951677e-07 
-6.3999999449 1.4499999993 -5.8991862062e-08 -6.3999999449 1.5 2.2531800425e-07 -6.3499999441 1.4499999993 -5.9174670497e-08 
-6.3499999441 1.5 2.2591008531e-07 -6.2999999434 1.4499999993 -5.9264710472e-08 -6.2999999434 1.5 2.2647488152e-07 
-6.2499999426 1.4499999993 -5.9394540841e-08 -6.2499999426 1.5 2.2691575907e-07 -6.1999999419 1.4499999993 -5.951755e-08 
-6.1999999419 1.5 2.2725477322e-07 -6.1499999411 1.4499999993 -5.9548018072e-08 -6.1499999411 1.5 2.2748805861e-07 
-6.0999999404 1.4499999993 -5.9600768765e-08 -6.0999999404 1.5 2.2757355111e-07 -6.0499999397 1.4499999993 -5.9579850387e-08 
-6.0499999397 1.5 2.2749624407e-07 -5.9999999389 1.4499999993 -5.9507545558e-08 -5.9999999389 1.5 2.2728819715e-07 
-5.9499999382 1.4499999993 -5.9404317909e-08 -5.9499999382 1.5 2.2683117606e-07 -5.8999999374 1.4499999993 -5.9202410085e-08 
-5.8999999374 1.5 2.2615746786e-07 -5.8499999367 1.4499999993 -5.8971853178e-08 -5.8499999367 1.5 2.2521818721e-07 
-5.7999999359 1.4499999993 -5.863420327e-08 -5.7999999359 1.5 2.2395421695e-07 -5.7499999352 1.4499999993 -5.8250851254e-08 
-5.7499999352 1.5 2.2237351516e-07 -5.6999999344 1.4499999993 -5.7720843216e-08 -5.6999999344 1.5 2.2039036196e-07 
-5.6499999337 1.4499999993 -5.7060095315e-08 -5.6499999337 1.5 2.1796110161e-07 -5.5999999329 1.4499999993 -5.631684985e-08 
-5.5999999329 1.5 2.1499410252e-07 -5.5499999322 1.4499999993 -5.5848875746e-08 -5.5499999322 1.5 2.1331790379e-07 
-5.4999999315 1.4499999993 -5.4846157838e-08 -5.4999999315 1.5 2.0950302826e-07 -5.4499999307 1.4499999993 -5.365608402e-08 
-5.4499999307 1.5 2.0495419051e-07 -5.39999993 1.4499999993 -5.2272287832e-08 -5.39999993 1.5 1.9960522479e-07 
-5.3499999292 1.4499999993 -5.0623146564e-08 -5.3499999292 1.5 1.9334108003e-07 -5.2999999285 1.4499999993 -4.8693880927e-08 
-5.2999999285 1.5 1.8603283536e-07 -5.2499999277 1.4499999993 -4.6474259108e-08 -5.2499999277 1.5 1.7752451242e-07 
-5.199999927 1.4499999993 -4.3893795265e-08 -5.199999927 1.5 1.6761897825e-07 -5.1499999262 1.4499999993 -4.0875864471e-08 
-5.1499999262 1.5 1.5610704907e-07 -5.0999999255 1.4499999993 -3.7371581385e-08 -5.0999999255 1.5 1.4279341087e-07 
-5.0499999247 1.4499999993 -3.3339336625e-08 -5.0499999247 1.5 1.2732267862e-07 -4.999999924 1.4499999993 -2.8622812565e-08 
-4.999999924 1.5 1.093977815e-07 -4.9499999233 1.4499999993 -2.3178804653e-08 -4.9499999233 1.5 8.8586951108e-08 
-4.8999999225 1.4499999993 -1.6839171835e-08 -4.8999999225 1.5 6.4427361224e-08 -4.8499999218 1.4499999993 -9.4748795476e-09 
-4.8499999218 1.5 3.6297830519e-08 -4.799999921 1.4499999993 -8.7617535449e-10 -4.799999921 1.5 3.5158882472e-09 
-4.7499999203 1.4499999993 9.1651006784e-09 -4.7499999203 1.5 -3.4752350331e-08 -4.6999999195 1.4499999993 2.0937600098e-08 
-4.6999999195 1.5 -7.9583962531e-08 -4.6499999188 1.4499999993 3.4738274479e-08 -4.6499999188 1.5 -1.322865586e-07 
-4.599999918 1.4499999993 5.1064613871e-08 -4.599999918 1.5 -1.9442892096e-07 -4.5499999173 1.4499999993 7.0382277784e-08 
-4.5499999173 1.5 -2.6804138997e-07 -4.4999999166 1.4499999993 9.3374531218e-08 -4.4999999166 1.5 -3.5567643408e-07 
-4.4499999158 1.4499999993 1.2095064506e-07 -4.4499999158 1.5 -4.6057698455e-07 -4.3999999151 1.4499999993 1.5413469612e-07 
-4.3999999151 1.5 -5.8698969951e-07 -4.3499999143 1.4499999993 1.9446373756e-07 -4.3499999143 1.5 -7.4036597653e-07 
-4.2999999136 1.4499999993 2.4384985409e-07 -4.2999999136 1.5 -9.2811546892e-07 -4.2499999128 1.4499999993 3.0493526992e-07 
-4.2499999128 1.5 -1.1601647429e-06 -4.1999999121 1.4499999993 3.8131861402e-07 -4.1999999121 1.5 -1.4501356418e-06 
-4.1499999113 1.4499999993 4.7813898618e-07 -4.1499999113 1.5 -1.8172748923e-06 -4.0999999106 1.4499999993 6.027589734e-07 
-4.0999999106 1.5 -2.2892406832e-06 -4.0499999098 1.4499999993 7.6620642631e-07 -4.0499999098 1.5 -2.9071277368e-06 
-3.9999999091 1.4499999993 9.8542636806e-07 -3.9999999091 1.5 -3.7340157633e-06 -3.9499999084 1.4499999993 1.1239126252e-06 
[...]
CELL_DATA 9510
FIELD FieldData 4
Water_Depth_m 1 9510 float
0.75 0.75 0.750001 0.750001 0.750001 0.750001 0.750001 0.750001 0.750002 
0.750002 0.750002 0.750002 0.750002 0.750003 0.750003 0.750003 0.750003 0.750003 
0.750003 0.750004 0.750004 0.750004 0.750004 0.750004 0.750005 0.750005 0.750005 
0.750005 0.750005 0.750005 0.750006 0.750006 0.750006 0.750006 0.750006 0.750007 
0.750007 0.750007 0.750007 0.750007 0.750008 0.750008 0.750008 0.750008 0.750008 
0.750009 0.750009 0.750009 0.750009 0.750009 0.75001 0.75001 0.75001 0.75001 
0.750011 0.750011 0.750011 0.750011 0.750012 0.750012 0.750012 0.750012 0.750013 
0.750013 0.750013 0.750013 0.750013 0.750014 0.750014 0.750014 0.750014 0.750015 
0.750015 0.750015 0.750015 0.750016 0.750016 0.750016 0.750017 0.750017 0.750017 
0.750017 0.750018 0.750018 0.750018 0.750018 0.750019 0.750019 0.750019 0.75002 
0.75002 0.75002 0.750021 0.750021 0.750021 0.750022 0.750022 0.750022 0.750023 
0.750023 0.750023 0.750024 0.750024 0.750025 0.750025 0.750026 0.750026 0.750026 
0.750027 0.750028 0.750028 0.750029 0.750029 0.75003 0.750031 0.750032 0.750033 
0.750034 0.750035 0.750036 0.750038 0.75004 0.750042 0.750044 0.750048 0.750052 
0.750058 0.750068 0.750087 0.750152 0.750356 0.750247 0.744804 0.73149 0.712066 
0.688207 0.661209 0.632197 0.602219 0.572271 0.543858 0.517813 0.495119 0.47722 
0.466098 0.464209 0.464207 0.464207 0.46421 0.464213 0.464216 0.46422 0.464224 
0.464228 0.464232 0.464236 0.46424 0.464244 0.464248 0.464253 0.464258 0.464263 
0.464268 0.464274 0.46428 0.464286 0.464293 0.4643 0.464308 0.464316 0.464325 
0.464342 0.467868 0.482923 0.483682 0.482461 0.482175 0.480752 0.480424 0.48083 
0.481879 0.476238 0.447123 0.415732 0.382839 0.3554 0.325614 0.303933 0.31518 
0.32867 0.344855 0.360801 0.384273 0.4112 0.443295 0.476595 0.513726 0.552855 
0.633316 0.602949 0.577235 0.548792 0.520305 0.503328 0.502973 0.505738 0.505428 
0.494853 0.494588 0.494443 0.494409 0.494408 0.494422 0.494444 0.494469 0.494494 
0.494518 0.494538 0.494555 0.49457 0.494582 0.494593 0.494603 0.494613 0.49462 
0.494623 0.494621 0.49461 0.494587 0.494552 0.494502 0.494442 0.494382 0.494333 
0.494304 0.494293 0.494298 0.494313 0.49433 0.494345 0.494357 0.494366 0.494375 
0.494386 0.494402 0.494423 0.494451 0.494483 0.494518 0.494554 0.494592 0.49463 
0.494664 0.494692 0.494711 0.49472 0.494721 0.494716 0.494706 0.494695 0.494683 
0.494668 0.49465 0.494624 0.494585 0.494525 0.494437 0.49432 0.494194 0.494097 
0.494067 0.494107 0.494183 0.494257 0.494295 0.494281 0.494247 0.494205 0.494144 
0.494052 0.493931 0.493799 0.493664 0.493554 0.493491 0.493425 0.493339 0.493249 
0.493122 0.493005 0.493105 0.493427 0.492778 0.491074 0.488274 0.75 0.750001 
0.750001 0.750001 0.750001 0.750001 0.750001 0.750001 0.750002 0.750002 0.750002 
0.750002 0.750002 0.750003 0.750003 0.750003 0.750003 0.750003 0.750003 0.750004 
0.750004 0.750004 0.750004 0.750004 0.750005 0.750005 0.750005 0.750005 0.750005 
0.750006 0.750006 0.750006 0.750006 0.750006 0.750007 0.750007 0.750007 0.750007 
0.750007 0.750008 0.750008 0.750008 0.750008 0.750008 0.750008 0.750009 0.750009 
0.750009 0.750009 0.75001 0.75001 0.75001 0.75001 0.75001 0.750011 0.750011 
0.750011 0.750011 0.750012 0.750012 0.750012 0.750012 0.750013 0.750013 0.750013 
0.750013 0.750013 0.750014 0.750014 0.750014 0.750014 0.750015 0.750015 0.750015 
0.750015 0.750016 0.750016 0.750016 0.750017 0.750017 0.750017 0.750017 0.750018 
0.750018 0.750018 0.750019 0.750019 0.750019 0.750019 0.75002 0.75002 0.75002 
0.750021 0.750021 0.750021 0.750022 0.750022 0.750022 0.750023 0.750023 0.750023 
0.750024 0.750024 0.750025 0.750025 0.750026 0.750026 0.750026 0.750027 0.750027 
0.750028 0.750028 0.750029 0.75003 0.75003 0.750031 0.750032 0.750033 0.750033 
0.750034 0.750035 0.750036 0.750038 0.750039 0.75004 0.750042 0.750043 0.750045 
0.750047 0.750051 0.750086 0.750044 0.745164 0.732539 0.713572 0.689821 0.662661 
0.633311 0.602889 0.572413 0.543184 0.516324 0.493249 0.475663 0.465758 0.464226 
0.464217 0.464211 0.464212 0.464215 0.464218 0.464221 0.464225 0.464229 0.464232 
0.464236 0.46424 0.464245 0.464249 0.464253 0.464258 0.464263 0.464269 0.464274 
0.46428 0.464287 0.464294 0.464301 0.464309 0.464317 0.464324 0.464342 0.467806 
0.482648 0.483622 0.482017 0.481893 0.481339 0.480591 0.481036 0.480648 0.471629 
0.433317 0.401477 0.367371 0.331861 0.307376 0.297756 0.304855 0.316932 0.334419 
0.355623 0.38274 0.417734 0.453736 0.482586 0.523215 0.545397 0.623113 0.593002 
0.561472 0.537892 0.521428 0.50659 0.510585 0.511764 0.509387 0.495466 0.494334 
0.49434 0.494351 0.494371 0.494396 0.494424 0.494454 0.494483 0.494508 0.49453 
0.494548 0.494562 0.494575 0.494587 0.4946 0.494612 0.494621 0.494625 0.494622 
0.494609 0.494584 0.494545 0.494492 0.494429 0.494368 0.494319 0.494291 0.494283 
0.49429 0.494307 0.494326 0.494343 0.494355 0.494364 0.49437 0.494378 0.49439 
0.49441 0.494436 0.494471 0.49451 0.494551 0.494591 0.494629 0.494661 0.494688 
0.494705 0.494715 0.494717 0.494715 0.494709 0.4947 0.494685 0.494668 0.49465 
0.494626 0.494584 0.494516 0.494414 0.494277 0.494128 0.494014 0.493994 0.494074 
0.494195 0.494307 0.494354 0.494301 0.494253 0.494223 0.494173 0.494074 0.493936 
0.49378 0.493632 0.493528 0.493473 0.493438 0.493382 0.493277 0.493077 0.492814 
0.492569 0.492587 0.492042 0.490572 0.488158 0.75 0.75 0.75 0.750001 
0.750001 0.750001 0.750001 0.750001 0.750002 0.750002 0.750002 0.750002 0.750002 
0.750003 0.750003 0.750003 0.750003 0.750003 0.750003 0.750004 0.750004 0.750004 
0.750004 0.750004 0.750004 0.750005 0.750005 0.750005 0.750005 0.750005 0.750006 
0.750006 0.750006 0.750006 0.750006 0.750007 0.750007 0.750007 0.750007 0.750007 
0.750008 0.750008 0.750008 0.750008 0.750008 0.750009 0.750009 0.750009 0.750009 
0.750009 0.75001 0.75001 0.75001 0.75001 0.750011 0.750011 0.750011 0.750011 
0.750012 0.750012 0.750012 0.750012 0.750012 0.750013 0.750013 0.750013 0.750013 
0.750014 0.750014 0.750014 0.750014 0.750015 0.750015 0.750015 0.750015 0.750016 
0.750016 0.750016 0.750017 0.750017 0.750017 0.750017 0.750018 0.750018 0.750018 
0.750018 0.750019 0.750019 0.750019 0.75002 0.75002 0.75002 0.750021 0.750021 
0.750021 0.750022 0.750022 0.750022 0.750023 0.750023 0.750023 0.750024 0.750024 
0.750025 0.750025 0.750025 0.750026 0.750026 0.750027 0.750027 0.750028 0.750028 
0.750029 0.75003 0.75003 0.750031 0.750032 0.750032 0.750033 0.750034 0.750035 
0.750036 0.750038 0.750039 0.75004 0.750042 0.750044 0.750046 0.750049 0.750057 
0.75014 0.750045 0.745312 0.733032 0.714391 0.690799 0.663604 0.634059 0.603329 
0.572499 0.542846 0.515627 0.492478 0.475201 0.465685 0.464196 0.4642 0.464204 
0.464208 0.464212 0.464215 0.464219 0.464223 0.464227 0.464231 0.464235 0.464239 
0.464243 0.464247 0.464252 0.464256 0.464261 0.464266 0.464272 0.464277 0.464284 
0.46429 0.464298 0.464305 0.464314 0.464323 0.464341 0.467547 0.481822 0.483117 
0.481261 0.481075 0.481001 0.480408 0.481079 0.479037 0.462201 0.430562 0.400581 
0.363597 0.328841 0.297108 0.271638 0.28044 0.304981 0.329664 0.357794 0.3893 
0.423716 0.45783 0.494572 0.532058 0.556472 0.630495 0.5961 0.572695 0.548915 
0.522751 0.510112 0.515407 0.516114 0.512709 0.49511 0.494323 0.494329 0.494338 
0.494358 0.494384 0.494414 0.494445 0.494474 0.494501 0.494523 0.494541 0.494556 
0.494568 0.494579 0.49459 0.4946 0.494609 0.494614 0.494612 0.494599 0.494573 
0.494531 0.494474 0.494409 0.494345 0.494295 0.49427 0.494268 0.494283 0.494304 
0.494326 0.494345 0.494358 0.494367 0.494372 0.494375 0.494382 0.494396 0.49442 
0.494452 0.494491 0.494533 0.494575 0.494614 0.494648 0.494675 0.494692 0.4947 
0.494697 0.494686 0.494671 0.494657 0.494654 0.494651 0.494641 0.494615 0.494567 
0.494489 0.494373 0.494217 0.494049 0.49393 0.49394 0.49406 0.494182 0.494261 
0.49427 0.494238 0.494267 0.494268 0.494212 0.494086 0.493915 0.493728 0.493555 
0.49344 0.493434 0.493471 0.493437 0.493316 0.493118 0.492857 0.492348 0.491666 
0.490849 0.489658 0.48787 0.75 0.75 0.75 0.750001 0.750001 0.750001 
0.750001 0.750001 0.750002 0.750002 0.750002 0.750002 0.750002 0.750003 0.750003 
0.750003 0.750003 0.750003 0.750003 0.750004 0.750004 0.750004 0.750004 0.750004 
0.750004 0.750005 0.750005 0.750005 0.750005 0.750005 0.750006 0.750006 0.750006 
0.750006 0.750006 0.750007 0.750007 0.750007 0.750007 0.750008 0.750008 0.750008 
0.750008 0.750008 0.750008 0.750009 0.750009 0.750009 0.750009 0.750009 0.75001 
0.75001 0.75001 0.75001 0.750011 0.750011 0.750011 0.750011 0.750012 0.750012 
0.750012 0.750012 0.750013 0.750013 0.750013 0.750013 0.750013 0.750014 0.750014 
0.750014 0.750014 0.750015 0.750015 0.750015 0.750015 0.750016 0.750016 0.750016 
0.750017 0.750017 0.750017 0.750017 0.750018 0.750018 0.750018 0.750018 0.750019 
0.750019 0.750019 0.75002 0.75002 0.75002 0.750021 0.750021 0.750021 0.750021 
0.750022 0.750022 0.750023 0.750023 0.750023 0.750024 0.750024 0.750024 0.750025 
0.750025 0.750026 0.750026 0.750027 0.750027 0.750028 0.750028 0.750029 0.75003 
0.75003 0.750031 0.750031 0.750032 0.750033 0.750034 0.750035 0.750036 0.750037 
0.750038 0.75004 0.750041 0.750042 0.750044 0.750046 0.750048 0.750125 0.750043 
0.745375 0.733265 0.71482 0.691352 0.664165 0.634511 0.603588 0.572547 0.542669 
0.515324 0.492198 0.475066 0.465684 0.464197 0.464201 0.464204 0.464208 0.464212 
0.464216 0.464219 0.464223 0.464227 0.464231 0.464235 0.464238 0.464242 0.464247 
0.464251 0.464255 0.46426 0.464265 0.464271 0.464276 0.464282 0.464289 0.464296 
0.464303 0.464312 0.464321 0.46434 0.467653 0.481921 0.482708 0.481102 0.480444 
0.479655 0.478953 0.48075 0.476053 0.445624 0.416234 0.39047 0.35476 0.320012 
0.291098 0.279295 0.294966 0.313621 0.338832 0.3632 0.391787 0.424574 0.45648 
0.494362 0.529627 0.554254 0.634571 0.596413 0.572333 0.548653 0.522647 0.513955 
0.518739 0.518759 0.51395 0.495374 0.49429 0.494299 0.494314 0.494337 0.494365 
0.494397 0.494429 0.49446 0.494487 0.49451 0.494529 0.494544 0.494555 0.494566 
0.494575 0.494585 0.494593 0.494597 0.494594 0.494581 0.494555 0.494513 0.494456 
0.494391 0.494328 0.494281 0.494258 0.494261 0.494285 0.494309 0.494334 0.494353 
0.494365 0.49437 0.494369 0.494364 0.494361 0.494366 0.494386 0.494419 0.49446 
0.494504 0.494547 0.494588 0.494623 0.494651 0.49467 0.494677 0.494674 0.494662 
0.494644 0.494622 0.494596 0.494568 0.494557 0.494542 0.494505 0.494435 0.494325 
0.494179 0.494021 0.493923 0.493934 0.49403 0.494139 0.494199 0.494182 0.494112 
0.494059 0.494075 0.494103 0.494044 0.493902 0.493738 0.493602 0.493538 0.493558 
0.49354 0.493409 0.493126 0.49275 0.49231 0.491946 0.49135 0.490361 0.489027 
0.488872 0.75 0.75 0.75 0.750001 0.750001 0.750001 0.750001 0.750001 
0.750002 0.750002 0.750002 0.750002 0.750002 0.750003 0.750003 0.750003 0.750003 
0.750003 0.750003 0.750004 0.750004 0.750004 0.750004 0.750004 0.750004 0.750005 
0.750005 0.750005 0.750005 0.750005 0.750006 0.750006 0.750006 0.750006 0.750006 
0.750007 0.750007 0.750007 0.750007 0.750008 0.750008 0.750008 0.750008 0.750008 
0.750008 0.750009 0.750009 0.750009 0.750009 0.750009 0.75001 0.75001 0.75001 
0.75001 0.750011 0.750011 0.750011 0.750011 0.750012 0.750012 0.750012 0.750012 
0.750013 0.750013 0.750013 0.750013 0.750013 0.750014 0.750014 0.750014 0.750014 
0.750015 0.750015 0.750015 0.750015 0.750016 0.750016 0.750016 0.750017 0.750017 
0.750017 0.750017 0.750018 0.750018 0.750018 0.750018 0.750019 0.750019 0.750019 
0.75002 0.75002 0.75002 0.750021 0.750021 0.750021 0.750021 0.750022 0.750022 
0.750022 0.750023 0.750023 0.750024 0.750024 0.750024 0.750025 0.750025 0.750026 
0.750026 0.750027 0.750027 0.750028 0.750028 0.750029 0.750029 0.75003 0.750031 
0.750031 0.750032 0.750033 0.750034 0.750035 0.750036 0.750037 0.750038 0.750039 
0.750041 0.750042 0.750044 0.750046 0.75005 0.750128 0.750044 0.745403 0.733373 
0.715032 0.691642 0.664469 0.634758 0.603727 0.572572 0.54258 0.515195 0.492101 
0.475031 0.465681 0.464195 0.4642 0.464204 0.464208 0.464212 0.464216 0.464219 
0.464223 0.464227 0.46423 0.464234 0.464238 0.464242 0.464246 0.46425 0.464254 
0.464259 0.464264 0.464269 0.464274 0.46428 0.464286 0.464293 0.464301 0.464309 
0.464318 0.464337 0.467694 0.482105 0.483068 0.480822 0.481495 0.481182 0.480828 
0.478125 0.468856 0.430894 0.401014 0.372098 0.341047 0.30664 0.295693 0.310097 
0.323892 0.342392 0.360533 0.377422 0.39821 0.42514 0.446181 0.484434 0.511465 
0.540109 0.629229 0.590274 0.56435 0.541781 0.521827 0.517602 0.521699 0.521542 
0.515585 0.495252 0.494265 0.494274 0.49429 0.494314 0.494343 0.494376 0.49441 
0.494442 0.494471 0.494494 0.494513 0.494528 0.494539 0.494549 0.494557 0.494565 
0.494571 0.494573 0.49457 0.494558 0.494533 0.494495 0.494443 0.494383 0.494326 
0.494285 0.494269 0.494274 0.494291 0.494309 0.494328 0.494347 0.494361 0.494366 
0.494359 0.494344 0.494331 0.494332 0.49435 0.494383 0.494422 0.494464 0.494507 
0.494548 0.494586 0.494615 0.494634 0.49464 0.494635 0.49462 0.494599 0.494575 
0.494548 0.494517 0.49448 0.494454 0.49442 0.49436 0.494273 0.494154 0.494031 
0.493954 0.493964 0.494047 0.494154 0.494208 0.494163 0.494048 0.493943 0.493931 
0.493981 0.494019 0.493981 0.493892 0.493814 0.49387 0.493811 0.493707 0.493462 
0.493104 0.492637 0.492029 0.491412 0.490736 0.49016 0.489481 0.48898 0.75 
0.75 0.75 0.750001 0.750001 0.750001 0.750001 0.750001 0.750002 0.750002 
0.750002 0.750002 0.750002 0.750003 0.750003 0.750003 0.750003 0.750003 0.750003 
0.750004 0.750004 0.750004 0.750004 0.750004 0.750005 0.750005 0.750005 0.750005 
0.750005 0.750005 0.750006 0.750006 0.750006 0.750006 0.750006 0.750007 0.750007 
0.750007 0.750007 0.750008 0.750008 0.750008 0.750008 0.750008 0.750008 0.750009 
0.750009 0.750009 0.750009 0.750009 0.75001 0.75001 0.75001 0.75001 0.750011 
0.750011 0.750011 0.750011 0.750012 0.750012 0.750012 0.750012 0.750013 0.750013 
0.750013 0.750013 0.750013 0.750014 0.750014 0.750014 0.750014 0.750015 0.750015 
0.750015 0.750015 0.750016 0.750016 0.750016 0.750016 0.750017 0.750017 0.750017 
0.750018 0.750018 0.750018 0.750018 0.750019 0.750019 0.750019 0.75002 0.75002 
0.75002 0.750021 0.750021 0.750021 0.750022 0.750022 0.750022 0.750023 0.750023 
0.750023 0.750024 0.750024 0.750024 0.750025 0.750025 0.750026 0.750026 0.750026 
0.750027 0.750027 0.750028 0.750028 0.750029 0.75003 0.75003 0.750031 0.750032 
0.750033 0.750033 0.750034 0.750035 0.750036 0.750038 0.750039 0.75004 0.750042 
0.750043 0.750045 0.750049 0.750127 0.750044 0.745413 0.733416 0.715127 0.691778 
0.664616 0.634879 0.603794 0.572583 0.542536 0.515139 0.492067 0.475023 0.465683 
0.464195 0.4642 0.464204 0.464208 0.464212 0.464216 0.464219 0.464223 0.464227 
0.46423 0.464234 0.464237 0.464241 0.464245 0.464249 0.464253 0.464257 0.464262 
0.464267 0.464272 0.464278 0.464284 0.46429 0.464297 0.464305 0.464313 0.464332 
0.467821 0.483157 0.484303 0.482135 0.48139 0.48178 0.482488 0.477509 0.454178 
0.417518 0.386175 0.353944 0.322863 0.303106 0.311421 0.3253 0.337468 0.354487 
0.368795 0.386013 0.404375 0.429144 0.454057 0.483035 0.520631 0.539324 0.614803 
0.591429 0.571466 0.547753 0.526918 0.520521 0.524423 0.524218 0.517285 0.495363 
0.494237 0.494247 0.494263 0.494288 0.494318 0.494352 0.494387 0.494421 0.49445 
0.494475 0.494495 0.49451 0.494521 0.494529 0.494536 0.494542 0.494546 0.494547 
0.494542 0.49453 0.494507 0.494474 0.494431 0.49438 0.494331 0.494297 0.494283 
0.494288 0.4943 0.494314 0.494326 0.494338 0.494348 0.49435 0.494339 0.494319 
0.4943 0.4943 0.494316 0.494345 0.494379 0.494416 0.494458 0.4945 0.494539 
0.494569 0.494587 0.494591 0.494583 0.494565 0.494539 0.494509 0.494478 0.494446 
0.49441 0.494368 0.49433 0.494282 0.494221 0.494142 0.494063 0.494022 0.494045 
0.494135 0.494254 0.494309 0.494244 0.494099 0.493947 0.493885 0.493939 0.494032 
0.494106 0.494131 0.494034 0.493888 0.493762 0.493612 0.493356 0.493011 0.492596 
0.492113 0.491711 0.491312 0.490637 0.48987 0.488025 0.75 0.75 0.75 
0.750001 0.750001 0.750001 0.750001 0.750001 0.750002 0.750002 0.750002 0.750002 
0.750002 0.750002 0.750003 0.750003 0.750003 0.750003 0.750003 0.750004 0.750004 
0.750004 0.750004 0.750004 0.750005 0.750005 0.750005 0.750005 0.750005 0.750005 
0.750006 0.750006 0.750006 0.750006 0.750006 0.750007 0.750007 0.750007 0.750007 
0.750007 0.750008 0.750008 0.750008 0.750008 0.750008 0.750009 0.750009 0.750009 
0.750009 0.75001 0.75001 0.75001 0.75001 0.75001 0.750011 0.750011 0.750011 
0.750011 0.750012 0.750012 0.750012 0.750012 0.750012 0.750013 0.750013 0.750013 
0.750013 0.750014 0.750014 0.750014 0.750014 0.750015 0.750015 0.750015 0.750016 
0.750016 0.750016 0.750016 0.750017 0.750017 0.750017 0.750017 0.750018 0.750018 
0.750018 0.750018 0.750019 0.750019 0.750019 0.750019 0.75002 0.75002 0.750021 
0.750021 0.750021 0.750022 0.750022 0.750022 0.750023 0.750023 0.750023 0.750024 
0.750024 0.750024 0.750025 0.750025 0.750025 0.750026 0.750026 0.750027 0.750027 
0.750028 0.750028 0.750029 0.750029 0.75003 0.750031 0.750032 0.750032 0.750033 
0.750034 0.750035 0.750036 0.750037 0.750038 0.75004 0.750041 0.750043 0.750045 
0.750049 0.750127 0.750044 0.745415 0.733428 0.715159 0.691831 0.664676 0.634929 
0.603822 0.572587 0.542516 0.515115 0.492055 0.475022 0.465683 0.464196 0.464201 
0.464205 0.464209 0.464213 0.464216 0.46422 0.464223 0.464227 0.46423 0.464233 
0.464237 0.46424 0.464244 0.464248 0.464252 0.464256 0.46426 0.464265 0.464269 
0.464275 0.46428 0.464286 0.464293 0.4643 0.464308 0.464327 0.467781 0.482977 
0.484201 0.482075 0.481267 0.481672 0.482458 0.476478 0.446299 0.409588 0.378869 
0.347177 0.314986 0.315394 0.325052 0.334119 0.34668 0.360925 0.375669 0.390545 
0.405962 0.428727 0.453831 0.483994 0.522168 0.551343 0.628754 0.600273 0.578846 
0.55506 0.529575 0.522987 0.527255 0.527005 0.519006 0.495416 0.494212 0.494221 
0.494237 0.494261 0.494291 0.494326 0.494362 0.494397 0.494428 0.494454 0.494475 
0.494489 0.4945 0.494508 0.494513 0.494517 0.494518 0.494517 0.494511 0.494498 
0.494478 0.494449 0.494414 0.494374 0.494336 0.494308 0.494297 0.4943 0.49431 
0.49432 0.494328 0.494333 0.494335 0.494331 0.494316 0.494293 0.494273 0.49427 
0.494283 0.494304 0.494332 0.494365 0.494405 0.494447 0.494486 0.494516 0.494531 
0.494531 0.494519 0.494497 0.494468 0.494433 0.494395 0.494361 0.494329 0.49429 
0.494247 0.494208 0.494169 0.494132 0.494103 0.494106 0.494158 0.494263 0.494402 
0.494454 0.494374 0.494205 0.494024 0.493918 0.493914 0.493968 0.494014 0.493999 
0.493906 0.493756 0.493583 0.49339 0.49314 0.492854 0.492581 0.492421 0.492523 
0.492735 0.492135 0.490729 0.488199 0.75 0.75 0.75 0.750001 0.750001 
0.750001 0.750001 0.750001 0.750001 0.750002 0.750002 0.750002 0.750002 0.750002 
0.750003 0.750003 0.750003 0.750003 0.750003 0.750004 0.750004 0.750004 0.750004 
0.750004 0.750005 0.750005 0.750005 0.750005 0.750005 0.750006 0.750006 0.750006 
0.750006 0.750006 0.750006 0.750007 0.750007 0.750007 0.750007 0.750007 0.750008 
0.750008 0.750008 0.750008 0.750009 0.750009 0.750009 0.750009 0.750009 0.75001 
0.75001 0.75001 0.75001 0.75001 0.750011 0.750011 0.750011 0.750011 0.750011 
0.750012 0.750012 0.750012 0.750012 0.750013 0.750013 0.750013 0.750013 0.750014 
0.750014 0.750014 0.750015 0.750015 0.750015 0.750015 0.750016 0.750016 0.750016 
0.750016 0.750017 0.750017 0.750017 0.750017 0.750017 0.750018 0.750018 0.750018 
0.750018 0.750019 0.750019 0.750019 0.75002 0.75002 0.750021 0.750021 0.750021 
0.750022 0.750022 0.750022 0.750023 0.750023 0.750023 0.750024 0.750024 0.750024 
0.750024 0.750025 0.750025 0.750026 0.750026 0.750026 0.750027 0.750027 0.750028 
0.750028 0.750029 0.75003 0.750031 0.750031 0.750032 0.750033 0.750034 0.750035 
0.750036 0.750037 0.750038 0.750039 0.75004 0.750042 0.750044 0.750047 0.750125 
0.750042 0.745412 0.733427 0.715162 0.691841 0.664692 0.634944 0.60383 0.572589 
0.542508 0.515106 0.492052 0.475024 0.465685 0.464197 0.464202 0.464206 0.46421 
0.464213 0.464217 0.46422 0.464223 0.464226 0.46423 0.464233 0.464236 0.464239 