# vtk DataFile Version 5.1
vtk output
ASCII
DATASET UNSTRUCTURED_GRID
POINTS 10043 double
-10.1 1.4499999993 7.5966234192e-08 -10.049999999 1.4499999993 9.0079772974e-08 -10.049999999 1.5 -3.5011566979e-07 
-9.9999999985 1.4499999993 9.3647720689e-08 -9.9999999985 1.5 -3.5856669456e-07 -9.9499999978 1.4499999993 9.382780064e-08 
-9.9499999978 1.5 -3.5875314097e-07 -9.899999997 1.4499999993 9.331120765e-08 -9.899999997 1.5 -3.5646758079e-07 
-9.8499999963 1.4499999993 9.2503576354e-08 -9.8499999963 1.5 -3.5344780258e-07 -9.7999999955 1.4499999993 9.1680483649e-08 
-9.7999999955 1.5 -3.5018115341e-07 -9.7499999948 1.4499999993 9.0857390944e-08 -9.7499999948 1.5 -3.4689878703e-07 
-9.699999994 1.4499999993 9.0027931776e-08 -9.699999994 1.5 -3.438146905e-07 -9.6499999933 1.4499999993 8.9220300481e-08 
-9.6499999933 1.5 -3.4090248846e-07 -9.5999999925 1.4499999993 8.8516351582e-08 -9.5999999925 1.5 -3.3815035749e-07 
-9.5499999918 1.4499999993 8.785242045e-08 -9.5499999918 1.5 -3.3557103052e-07 -9.4999999911 1.4499999993 8.7279438787e-08 
-9.4999999911 1.5 -3.3324545257e-07 -9.4499999903 1.4499999993 8.6665529864e-08 -9.4499999903 1.5 -3.3107176023e-07 
-9.3999999896 1.4499999993 8.6117104559e-08 -9.3999999896 1.5 -3.2906632441e-07 -9.3499999888 1.4499999993 8.5657809734e-08 
-9.3499999888 1.5 -3.2721277421e-07 -9.2999999881 1.4499999993 8.5206700362e-08 -9.2999999881 1.5 -3.2556749829e-07 
-9.2499999873 1.4499999993 8.4829260061e-08 -9.2499999873 1.5 -3.2402954275e-07 -9.1999999866 1.4499999993 8.4430901381e-08 
-9.1999999866 1.5 -3.2260373928e-07 -9.1499999858 1.4499999993 8.4100754805e-08 -9.1499999858 1.5 -3.2135199035e-07 
-9.0999999851 1.4499999993 8.3799712058e-08 -9.0999999851 1.5 -3.2018965612e-07 -9.0499999844 1.4499999993 8.3531411121e-08 
-9.0499999844 1.5 -3.1909644349e-07 -8.9999999836 1.4499999993 8.3297670983e-08 -8.9999999836 1.5 -3.1820422919e-07 
-8.9499999829 1.4499999993 8.3090306191e-08 -8.9499999829 1.5 -3.1739614315e-07 -8.8999999821 1.4499999993 8.2907952503e-08 
-8.8999999821 1.5 -3.1667627809e-07 -8.8499999814 1.4499999993 8.2735603257e-08 -8.8499999814 1.5 -3.1606646189e-07 
-8.7999999806 1.4499999993 8.2584627137e-08 -8.7999999806 1.5 -3.1549711821e-07 -8.7499999799 1.4499999993 8.2456843131e-08 
-8.7499999799 1.5 -3.1508147913e-07 -8.6999999791 1.4499999993 8.2434560511e-08 -8.6999999791 1.5 -3.1484501051e-07 
-8.6499999784 1.4499999993 8.2303138527e-08 -8.6499999784 1.5 -3.1456670513e-07 -8.5999999776 1.4499999993 8.2261756518e-08 
-8.5999999776 1.5 -3.1429249248e-07 -8.5499999769 1.4499999993 8.2229014708e-08 -8.5499999769 1.5 -3.1411559576e-07 
-8.4999999762 1.4499999993 8.2215827035e-08 -8.4999999762 1.5 -3.1406284506e-07 -8.4499999754 1.4499999993 8.2217646025e-08 
-8.4499999754 1.5 -3.1402009881e-07 -8.3999999747 1.4499999993 8.2206732088e-08 -8.3999999747 1.5 -3.1407694223e-07 
-8.3499999739 1.4499999993 8.2272215707e-08 -8.3499999739 1.5 -3.1421063795e-07 -8.2999999732 1.4499999993 8.2299500548e-08 
-8.2999999732 1.5 -3.1443755688e-07 -8.2499999724 1.4499999993 8.2368167398e-08 -8.2499999724 1.5 -3.1465401662e-07 
-8.1999999717 1.4499999993 8.2463209594e-08 -8.1999999717 1.5 -3.1499075703e-07 -8.1499999709 1.4499999993 8.2572348958e-08 
-8.1499999709 1.5 -3.1535932976e-07 -8.0999999702 1.4499999993 8.2687854785e-08 -8.0999999702 1.5 -3.1583817872e-07 
-8.0499999695 1.4499999993 8.2818367275e-08 -8.0499999695 1.5 -3.1633112485e-07 -7.9999999687 1.4499999993 8.2925232903e-08 
-7.9999999687 1.5 -3.1694867175e-07 -7.949999968 1.4499999993 8.3078937507e-08 -7.949999968 1.5 -3.1757213037e-07 
-7.8999999672 1.4499999993 8.3319498856e-08 -7.8999999672 1.5 -3.1826061786e-07 -7.8499999665 1.4499999993 8.3490029112e-08 
-7.8499999665 1.5 -3.1906733966e-07 -7.7999999657 1.4499999993 8.3715129051e-08 -7.7999999657 1.5 -3.1988679439e-07 
-7.749999965 1.4499999993 8.393340778e-08 -7.749999965 1.5 -3.2079219636e-07 -7.6999999642 1.4499999993 8.420625619e-08 
-7.6999999642 1.5 -3.2170942177e-07 -7.6499999635 1.4499999993 8.448092359e-08 -7.6499999635 1.5 -3.2271259442e-07 
-7.5999999627 1.4499999993 8.4725122917e-08 -7.5999999627 1.5 -3.2385946724e-07 -7.549999962 1.4499999993 8.5042991316e-08 
-7.549999962 1.5 -3.2493792901e-07 -7.4999999613 1.4499999993 8.5367226177e-08 -7.4999999613 1.5 -3.2615366763e-07 
-7.4499999605 1.4499999993 8.5698736996e-08 -7.4499999605 1.5 -3.2743969314e-07 -7.3999999598 1.4499999993 8.6026155088e-08 
-7.3999999598 1.5 -3.2876982914e-07 -7.349999959 1.4499999993 8.6404050137e-08 -7.349999959 1.5 -3.3015089684e-07 
-7.2999999583 1.4499999993 8.6809230027e-08 -7.2999999583 1.5 -3.3164837987e-07 -7.2499999575 1.4499999993 8.7205769717e-08 
-7.2499999575 1.5 -3.3316632653e-07 -7.1999999568 1.4499999993 8.7597307186e-08 -7.1999999568 1.5 -3.3479159356e-07 
-7.149999956 1.4499999993 8.8083886851e-08 -7.149999956 1.5 -3.3646006159e-07 -7.0999999553 1.4499999993 8.8316262747e-08 
-7.0999999553 1.5 -3.3734545468e-07 -7.0499999546 1.4499999993 8.8747363236e-08 -7.0499999546 1.5 -3.3914989217e-07 
-6.9999999538 1.4499999993 8.9268048953e-08 -6.9999999538 1.5 -3.4105892155e-07 -6.9499999531 1.4499999993 8.9767361544e-08 
-6.9499999531 1.5 -3.4299614526e-07 -6.8999999523 1.4499999993 9.0306237155e-08 -6.8999999523 1.5 -3.4503023016e-07 
-6.8499999516 1.4499999993 9.0873761849e-08 -6.8499999516 1.5 -3.4719255382e-07 -6.7999999508 1.4499999993 9.14485625e-08 
-6.7999999508 1.5 -3.4943764149e-07 -6.7499999501 1.4499999993 9.2051557488e-08 -6.7499999501 1.5 -3.5176367419e-07 
-6.6999999493 1.4499999993 9.2712305388e-08 -6.6999999493 1.5 -3.5417792787e-07 -6.6499999486 1.4499999993 9.3384421973e-08 
-6.6499999486 1.5 -3.5672860577e-07 -6.5999999478 1.4499999993 9.4048353105e-08 -6.5999999478 1.5 -3.5937159737e-07 
-6.5499999471 1.4499999993 9.480277896e-08 -6.5499999471 1.5 -3.6212571786e-07 -6.4999999464 1.4499999993 9.5570847236e-08 
-6.4999999464 1.5 -3.6501728573e-07 -6.4499999456 1.4499999993 9.6319361376e-08 -6.4499999456 1.5 -3.6805818127e-07 
-6.3999999449 1.4499999993 9.7174286395e-08 -6.3999999449 1.5 -3.7122185859e-07 -6.3499999441 1.4499999993 9.8049675046e-08 
-6.3499999441 1.5 -3.7455788515e-07 -6.2999999434 1.4499999993 9.8934613391e-08 -6.2999999434 1.5 -3.7803897612e-07 
-6.2499999426 1.4499999993 9.9890492322e-08 -6.2499999426 1.5 -3.8169923755e-07 -6.1999999419 1.4499999993 1.0091140012e-07 
-6.1999999419 1.5 -3.8552889237e-07 -6.1499999411 1.4499999993 1.0198096589e-07 -6.1499999411 1.5 -3.8957841753e-07 
-6.0999999404 1.4499999993 1.030744059e-07 -6.0999999404 1.5 -3.9383076e-07 -6.0499999397 1.4499999993 1.0425402053e-07 
-6.0499999397 1.5 -3.9834958443e-07 -5.9999999389 1.4499999993 1.054868406e-07 -5.9999999389 1.5 -4.0310874283e-07 
-5.9499999382 1.4499999993 1.0681811347e-07 -5.9499999382 1.5 -4.0811096369e-07 -5.8999999374 1.4499999993 1.0820827612e-07 
-5.8999999374 1.5 -4.1346885382e-07 -5.8499999367 1.4499999993 1.0969529995e-07 -5.8499999367 1.5 -4.1916291593e-07 
-5.7999999359 1.4499999993 1.1128486932e-07 -5.7999999359 1.5 -4.2519650378e-07 -5.7499999352 1.4499999993 1.1297039038e-07 
-5.7499999352 1.5 -4.3161435315e-07 -5.6999999344 1.4499999993 1.1477323625e-07 -5.6999999344 1.5 -4.3853287934e-07 
-5.6499999337 1.4499999993 1.1671318845e-07 -5.6499999337 1.5 -4.4593593884e-07 -5.5999999329 1.4499999993 1.1880116091e-07 
-5.5999999329 1.5 -4.5386582315e-07 -5.5499999322 1.4499999993 1.1990779569e-07 -5.5499999322 1.5 -4.5806075377e-07 
-5.4999999315 1.4499999993 1.2221109102e-07 -5.4999999315 1.5 -4.6696231948e-07 -5.4499999307 1.4499999993 1.2472675337e-07 
-5.4499999307 1.5 -4.7660250857e-07 -5.39999993 1.4499999993 1.2747501899e-07 -5.39999993 1.5 -4.8703213906e-07 
-5.3499999292 1.4499999993 1.304417907e-07 -5.3499999292 1.5 -4.9841764849e-07 -5.2999999285 1.4499999993 1.3370119234e-07 
-5.2999999285 1.5 -5.1081974561e-07 -5.2499999277 1.4499999993 1.3725890824e-07 -5.2499999277 1.5 -5.2442396736e-07 
-5.199999927 1.4499999993 1.4118019465e-07 -5.199999927 1.5 -5.3940198086e-07 -5.1499999262 1.4499999993 1.4549529226e-07 
-5.1499999262 1.5 -5.5590521697e-07 -5.0999999255 1.4499999993 1.5028150813e-07 -5.0999999255 1.5 -5.7419379118e-07 
-5.0499999247 1.4499999993 1.5560796385e-07 -5.0499999247 1.5 -5.9451713241e-07 -4.999999924 1.4499999993 1.6155696869e-07 
-4.999999924 1.5 -6.1721380007e-07 -4.9499999233 1.4499999993 1.68220609e-07 -4.9499999233 1.5 -6.4265873334e-07 
-4.8999999225 1.4499999993 1.7572848776e-07 -4.8999999225 1.5 -6.7132066306e-07 -4.8499999218 1.4499999993 1.842186208e-07 
-4.8499999218 1.5 -7.0373766903e-07 -4.799999921 1.4499999993 1.9387563555e-07 -4.799999921 1.5 -7.4057629718e-07 
-4.7499999203 1.4499999993 2.0492826991e-07 -4.7499999203 1.5 -7.8267635217e-07 -4.6999999195 1.4499999993 2.1759707636e-07 
-4.6999999195 1.5 -8.3102236204e-07 -4.6499999188 1.4499999993 2.3224107792e-07 -4.6499999188 1.5 -8.8686806521e-07 
-4.599999918 1.4499999993 2.4927885534e-07 -4.599999918 1.5 -9.5177324511e-07 -4.5499999173 1.4499999993 2.6919815355e-07 
-4.5499999173 1.5 -1.0277037745e-06 -4.4999999166 1.4499999993 2.9266925594e-07 -4.4999999166 1.5 -1.11708232e-06 
-4.4499999158 1.4499999993 3.2050979826e-07 -4.4499999158 1.5 -1.2231273558e-06 -4.3999999151 1.4499999993 3.5382004171e-07 
-4.3999999151 1.5 -1.3499836768e-06 -4.3499999143 1.4499999993 3.940751867e-07 -4.3499999143 1.5 -1.5030591385e-06 
-4.2999999136 1.4499999993 4.4311843794e-07 -4.2999999136 1.5 -1.6895775161e-06 -4.2499999128 1.4499999993 5.0360745263e-07 
-4.2499999128 1.5 -1.9193489607e-06 -4.1999999121 1.4499999993 5.7909596762e-07 -4.1999999121 1.5 -2.2058982267e-06 
-4.1499999113 1.4499999993 6.7466055498e-07 -4.1499999113 1.5 -2.5682988962e-06 -4.0999999106 1.4499999993 7.9765379724e-07 
-4.0999999106 1.5 -3.0340597732e-06 -4.0499999098 1.4499999993 9.590269201e-07 -4.0499999098 1.5 -3.6440421809e-06 
-3.9999999091 1.4499999993 1.1756841332e-06 -3.9999999091 1.5 -4.4611479098e-06 -3.9499999084 1.4499999993 1.3126763179e-06 
[...]
CELL_DATA 9510
FIELD FieldData 4
Water_Depth_m 1 9510 float
0.759987 0.759959 0.759929 0.759897 0.759863 0.759826 0.759786 0.759743 0.759696 
0.759647 0.759594 0.759539 0.759481 0.759422 0.759361 0.759299 0.759238 0.759176 
0.759115 0.759055 0.758996 0.758939 0.758884 0.758831 0.75878 0.758731 0.758684 
0.758639 0.758597 0.758558 0.758521 0.758487 0.758455 0.758427 0.758402 0.758381 
0.758363 0.758348 0.758338 0.758331 0.758328 0.758329 0.758334 0.758342 0.758353 
0.758368 0.758385 0.758405 0.758427 0.758451 0.758476 0.758502 0.758528 0.758554 
0.75858 0.758605 0.758628 0.75865 0.75867 0.758687 0.758702 0.758714 0.758723 
0.758729 0.758732 0.758731 0.758727 0.75872 0.758709 0.758695 0.758677 0.758656 
0.758632 0.758604 0.758573 0.758539 0.758502 0.758462 0.75842 0.758375 0.758328 
0.75828 0.75823 0.758179 0.758129 0.758079 0.758031 0.757986 0.757944 0.757907 
0.757875 0.75785 0.757832 0.757822 0.75782 0.757825 0.757838 0.757859 0.757885 
0.757917 0.757952 0.757991 0.758031 0.758072 0.758112 0.758151 0.758188 0.758222 
0.758254 0.758284 0.758311 0.758336 0.758359 0.758381 0.758403 0.758426 0.758449 
0.758476 0.758505 0.758538 0.758575 0.758618 0.758668 0.758724 0.758787 0.758859 
0.758939 0.75903 0.759138 0.759282 0.759531 0.759418 0.753922 0.740513 0.720954 
0.696917 0.669703 0.640438 0.610182 0.579953 0.551306 0.525124 0.50241 0.484565 
0.473526 0.471718 0.471787 0.471848 0.471904 0.471955 0.472 0.472041 0.472078 
0.472113 0.472147 0.472181 0.472209 0.472193 0.472272 0.472142 0.46861 0.456111 
0.446241 0.443642 0.443406 0.442975 0.443986 0.446659 0.450265 0.453393 0.454891 
0.456225 0.458234 0.460942 0.464162 0.466827 0.466998 0.46803 0.471654 0.475372 
0.482378 0.489203 0.489909 0.491451 0.49395 0.496607 0.500981 0.505842 0.51514 
0.523616 0.534063 0.541672 0.549601 0.551658 0.555308 0.556002 0.550515 0.545573 
0.482927 0.484721 0.485723 0.485875 0.485558 0.486885 0.4876 0.487358 0.481181 
0.473129 0.473087 0.473132 0.473173 0.47321 0.473243 0.473274 0.473303 0.473329 
0.473353 0.473375 0.473395 0.473414 0.47343 0.473445 0.473459 0.473471 0.473482 
0.473493 0.473502 0.47351 0.473517 0.473524 0.47353 0.473536 0.473541 0.473545 
0.47355 0.473553 0.473557 0.47356 0.473563 0.473566 0.473569 0.473571 0.473573 
0.473575 0.473577 0.473579 0.473581 0.473583 0.473585 0.473587 0.473589 0.47359 
0.473592 0.473594 0.473596 0.473597 0.473599 0.473601 0.473603 0.473605 0.473606 
0.473608 0.47361 0.473612 0.473614 0.473616 0.473619 0.473621 0.473623 0.473625 
0.473628 0.47363 0.473632 0.473635 0.473637 0.47364 0.473643 0.473646 0.473648 
0.473651 0.473654 0.473657 0.47366 0.473663 0.473666 0.47367 0.473673 0.473676 
0.47368 0.473683 0.473685 0.473673 0.473415 0.471158 0.467027 0.759987 0.759959 
0.759929 0.759897 0.759863 0.759826 0.759786 0.759743 0.759696 0.759646 0.759593 
0.759538 0.75948 0.75942 0.759359 0.759297 0.759235 0.759173 0.759112 0.759052 
0.758993 0.758936 0.758881 0.758828 0.758776 0.758728 0.758681 0.758636 0.758594 
0.758555 0.758518 0.758483 0.758452 0.758424 0.758399 0.758377 0.758359 0.758344 
0.758334 0.758327 0.758324 0.758325 0.758329 0.758338 0.758349 0.758364 0.758382 
0.758402 0.758424 0.758448 0.758474 0.7585 0.758527 0.758554 0.75858 0.758605 
0.758629 0.758651 0.758671 0.758689 0.758704 0.758716 0.758726 0.758732 0.758735 
0.758734 0.75873 0.758723 0.758712 0.758698 0.75868 0.758659 0.758634 0.758606 
0.758575 0.758541 0.758503 0.758463 0.75842 0.758375 0.758327 0.758278 0.758227 
0.758176 0.758125 0.758074 0.758026 0.757979 0.757937 0.757899 0.757867 0.757842 
0.757824 0.757814 0.757811 0.757817 0.757831 0.757852 0.757879 0.757912 0.757948 
0.757988 0.758029 0.758071 0.758112 0.758151 0.758189 0.758223 0.758255 0.758285 
0.758311 0.758336 0.758358 0.75838 0.758401 0.758422 0.758445 0.75847 0.758498 
0.75853 0.758566 0.758608 0.758655 0.758709 0.75877 0.758838 0.758914 0.758996 
0.759086 0.759169 0.759251 0.759207 0.754276 0.741559 0.722457 0.698531 0.671156 
0.641554 0.610854 0.580098 0.550635 0.523641 0.500547 0.483016 0.473196 0.471744 
0.471805 0.47186 0.471914 0.471963 0.472006 0.472046 0.472082 0.472116 0.472149 
0.472182 0.472208 0.472191 0.47221 0.472075 0.468681 0.45632 0.446938 0.447782 
0.447794 0.447196 0.448406 0.450776 0.454275 0.457373 0.457942 0.459558 0.459688 
0.461856 0.4644 0.468952 0.474675 0.479832 0.480758 0.482748 0.48757 0.492322 
0.497269 0.500475 0.505518 0.510449 0.513466 0.518729 0.529869 0.542364 0.552062 
0.559726 0.561364 0.561043 0.553653 0.553455 0.553248 0.555907 0.501527 0.485922 
0.485988 0.485974 0.486239 0.487628 0.488384 0.488136 0.481622 0.47323 0.473064 
0.473108 0.47315 0.473189 0.473225 0.473258 0.473288 0.473316 0.473342 0.473365 
0.473386 0.473405 0.473422 0.473438 0.473452 0.473465 0.473476 0.473487 0.473496 
0.473505 0.473512 0.473519 0.473526 0.473531 0.473537 0.473541 0.473546 0.47355 
0.473553 0.473557 0.47356 0.473563 0.473566 0.473568 0.47357 0.473573 0.473575 
0.473577 0.473579 0.473581 0.473583 0.473585 0.473586 0.473588 0.47359 0.473592 
0.473594 0.473595 0.473597 0.473599 0.473601 0.473603 0.473605 0.473607 0.473609 
0.473611 0.473613 0.473615 0.473617 0.473619 0.473622 0.473624 0.473626 0.473629 
0.473631 0.473634 0.473636 0.473639 0.473642 0.473644 0.473647 0.47365 0.473653 
0.473656 0.473659 0.473662 0.473665 0.473668 0.473672 0.473675 0.473678 0.473682 
0.473683 0.473672 0.473413 0.471156 0.467023 0.759987 0.759959 0.75993 0.759899 
0.759865 0.759827 0.759787 0.759743 0.759696 0.759646 0.759592 0.759536 0.759477 
0.759416 0.759354 0.759292 0.759229 0.759167 0.759106 0.759045 0.758987 0.75893 
0.758875 0.758822 0.758771 0.758722 0.758675 0.758631 0.758589 0.758549 0.758512 
0.758477 0.758446 0.758417 0.758392 0.75837 0.758352 0.758337 0.758326 0.758319 
0.758316 0.758317 0.758322 0.75833 0.758342 0.758357 0.758376 0.758396 0.758419 
0.758444 0.75847 0.758498 0.758525 0.758553 0.75858 0.758606 0.758631 0.758654 
0.758675 0.758693 0.758709 0.758722 0.758731 0.758738 0.758741 0.758741 0.758737 
0.75873 0.758719 0.758704 0.758686 0.758665 0.75864 0.758612 0.75858 0.758545 
0.758507 0.758465 0.758421 0.758375 0.758326 0.758276 0.758224 0.758171 0.758118 
0.758066 0.758016 0.757968 0.757924 0.757885 0.757852 0.757826 0.757807 0.757797 
0.757795 0.757802 0.757817 0.757839 0.757868 0.757903 0.757942 0.757984 0.758027 
0.75807 0.758113 0.758154 0.758192 0.758228 0.75826 0.758289 0.758315 0.758338 
0.75836 0.75838 0.758399 0.758419 0.75844 0.758463 0.758489 0.758519 0.758554 
0.758594 0.75864 0.758693 0.758752 0.75882 0.758894 0.758977 0.759067 0.759153 
0.759285 0.759191 0.754411 0.742041 0.72327 0.699507 0.6721 0.642306 0.611299 
0.580194 0.550311 0.522961 0.499796 0.482575 0.473142 0.471731 0.471803 0.471866 
0.471921 0.471969 0.472012 0.472049 0.472083 0.472113 0.472142 0.472171 0.472192 
0.472173 0.472211 0.472087 0.468833 0.45714 0.449653 0.45234 0.453849 0.45486 
0.455949 0.45813 0.46028 0.462175 0.462636 0.463426 0.466976 0.469965 0.473689 
0.478054 0.483798 0.488471 0.489316 0.490959 0.494984 0.500665 0.506609 0.512702 
0.517096 0.521842 0.526956 0.535075 0.545323 0.556652 0.56337 0.567244 0.567627 
0.567734 0.572592 0.578012 0.586367 0.590668 0.529151 0.503049 0.489674 0.486966 
0.487037 0.487652 0.48843 0.488198 0.481818 0.473217 0.473068 0.473113 0.473155 
0.473195 0.47323 0.473263 0.473294 0.473321 0.473346 0.473369 0.47339 0.473409 
0.473426 0.473441 0.473455 0.473467 0.473479 0.473489 0.473498 0.473507 0.473514 
0.473521 0.473527 0.473533 0.473538 0.473543 0.473547 0.473551 0.473554 0.473558 
0.473561 0.473563 0.473566 0.473569 0.473571 0.473573 0.473575 0.473577 0.473579 
0.473581 0.473583 0.473585 0.473587 0.473588 0.47359 0.473592 0.473594 0.473596 
0.473597 0.473599 0.473601 0.473603 0.473605 0.473607 0.473609 0.473611 0.473613 
0.473615 0.473617 0.473619 0.473622 0.473624 0.473626 0.473629 0.473631 0.473634 
0.473636 0.473639 0.473642 0.473644 0.473647 0.47365 0.473653 0.473656 0.473659 
0.473662 0.473665 0.473668 0.473672 0.473675 0.473678 0.473682 0.473683 0.473672 
0.473413 0.471156 0.467024 0.759987 0.759961 0.759932 0.759901 0.759867 0.75983 
0.759789 0.759744 0.759696 0.759645 0.75959 0.759533 0.759472 0.759411 0.759348 
0.759284 0.759221 0.759158 0.759096 0.759036 0.758977 0.758921 0.758866 0.758813 
0.758762 0.758714 0.758667 0.758623 0.75858 0.758541 0.758503 0.758468 0.758436 
0.758407 0.758382 0.75836 0.758341 0.758326 0.758315 0.758308 0.758304 0.758305 
0.75831 0.758319 0.758331 0.758347 0.758366 0.758388 0.758412 0.758438 0.758465 
0.758494 0.758523 0.758551 0.75858 0.758607 0.758633 0.758658 0.75868 0.758699 
0.758716 0.75873 0.75874 0.758747 0.758751 0.758751 0.758747 0.75874 0.758729 
0.758714 0.758696 0.758674 0.758648 0.758619 0.758586 0.75855 0.758511 0.758468 
0.758423 0.758375 0.758324 0.758272 0.758218 0.758163 0.758108 0.758053 0.758 
0.75795 0.757904 0.757863 0.757829 0.757801 0.757782 0.757772 0.757771 0.757779 
0.757795 0.75782 0.757852 0.757889 0.757932 0.757977 0.758024 0.75807 0.758115 
0.758158 0.758198 0.758234 0.758266 0.758295 0.75832 0.758342 0.758362 0.75838 
0.758397 0.758414 0.758433 0.758453 0.758476 0.758504 0.758536 0.758573 0.758617 
0.758667 0.758725 0.75879 0.758863 0.758943 0.759031 0.759113 0.759241 0.759163 
0.754453 0.742258 0.723687 0.700054 0.67266 0.642763 0.611569 0.580259 0.550157 
0.522687 0.499547 0.48247 0.473169 0.471758 0.471828 0.471888 0.47194 0.471986 
0.472025 0.47206 0.47209 0.472117 0.472141 0.472164 0.47218 0.47216 0.472188 
0.472076 0.469328 0.459179 0.453649 0.456308 0.457869 0.458967 0.460125 0.461373 
0.463431 0.465715 0.46845 0.472104 0.475903 0.47961 0.481566 0.484956 0.488325 
0.491945 0.494316 0.496771 0.50119 0.50717 0.51264 0.518917 0.523543 0.529096 
0.534353 0.541783 0.551155 0.561646 0.564626 0.567 0.573622 0.579809 0.590759 
0.604162 0.613313 0.614074 0.549147 0.52368 0.498756 0.488025 0.487998 0.48837 
0.489125 0.488935 0.482483 0.47323 0.473072 0.473118 0.473161 0.4732 0.473236 
0.473269 0.473299 0.473327 0.473352 0.473374 0.473395 0.473413 0.47343 0.473445 
0.473458 0.47347 0.473482 0.473492 0.473501 0.473509 0.473516 0.473523 0.473529 
0.473534 0.473539 0.473544 0.473548 0.473552 0.473555 0.473558 0.473561 0.473564 
0.473567 0.473569 0.473571 0.473573 0.473576 0.473578 0.473579 0.473581 0.473583 
0.473585 0.473587 0.473588 0.47359 0.473592 0.473594 0.473596 0.473597 0.473599 
0.473601 0.473603 0.473605 0.473607 0.473609 0.473611 0.473613 0.473615 0.473617 
0.473619 0.473622 0.473624 0.473626 0.473629 0.473631 0.473634 0.473636 0.473639 
0.473641 0.473644 0.473647 0.47365 0.473653 0.473656 0.473659 0.473662 0.473665 
0.473668 0.473672 0.473675 0.473678 0.473682 0.473683 0.473672 0.473413 0.471156 
0.467023 0.759988 0.759962 0.759934 0.759903 0.75987 0.759832 0.759791 0.759746 
0.759696 0.759644 0.759587 0.759528 0.759466 0.759403 0.759338 0.759273 0.759209 
0.759146 0.759084 0.759023 0.758965 0.758909 0.758854 0.758802 0.758752 0.758703 
0.758657 0.758612 0.75857 0.75853 0.758492 0.758457 0.758424 0.758395 0.758369 
0.758346 0.758326 0.758311 0.758299 0.758292 0.758289 0.75829 0.758295 0.758304 
0.758317 0.758334 0.758353 0.758376 0.758401 0.758429 0.758458 0.758488 0.758519 
0.75855 0.75858 0.758609 0.758637 0.758663 0.758687 0.758708 0.758726 0.75874 
0.758752 0.75876 0.758764 0.758765 0.758761 0.758754 0.758743 0.758728 0.758709 
0.758686 0.75866 0.758629 0.758595 0.758558 0.758517 0.758473 0.758425 0.758375 
0.758322 0.758267 0.75821 0.758152 0.758093 0.758036 0.757979 0.757926 0.757877 
0.757833 0.757796 0.757767 0.757747 0.757737 0.757737 0.757746 0.757765 0.757793 
0.757829 0.757871 0.757918 0.757968 0.758019 0.75807 0.758119 0.758165 0.758206 
0.758244 0.758276 0.758304 0.758328 0.758348 0.758365 0.75838 0.758394 0.758408 
0.758423 0.758439 0.758459 0.758483 0.758511 0.758545 0.758586 0.758633 0.758688 
0.75875 0.758821 0.758901 0.758988 0.759072 0.759202 0.759127 0.75445 0.742341 
0.723883 0.700334 0.672963 0.643018 0.611726 0.58031 0.550103 0.522597 0.499491 
0.482476 0.473205 0.471791 0.471858 0.471916 0.471965 0.472008 0.472044 0.472074 
0.4721 0.472122 0.472141 0.472157 0.472165 0.472144 0.472157 0.472064 0.470415 
0.464748 0.460187 0.460361 0.461917 0.463238 0.464666 0.465714 0.465924 0.467632 
0.472387 0.477226 0.480817 0.483767 0.485049 0.486652 0.490823 0.494687 0.498939 
0.502749 0.506325 0.51013 0.516113 0.521038 0.527229 0.53219 0.539681 0.545063 
0.551214 0.560586 0.563169 0.565405 0.576118 0.585651 0.598636 0.6161 0.621893 
0.62148 0.571102 0.540679 0.519607 0.497929 0.489064 0.490189 0.490614 0.490359 
0.483081 0.473263 0.47308 0.473127 0.47317 0.47321 0.473246 0.473279 0.473309 
0.473336 0.47336 0.473382 0.473402 0.47342 0.473436 0.47345 0.473463 0.473475 
0.473486 0.473496 0.473504 0.473512 0.473519 0.473525 0.473531 0.473536 0.473541 
0.473546 0.473549 0.473553 0.473556 0.47356 0.473562 0.473565 0.473568 0.47357 
0.473572 0.473574 0.473576 0.473578 0.47358 0.473582 0.473584 0.473585 0.473587 
0.473589 0.47359 0.473592 0.473594 0.473596 0.473598 0.473599 0.473601 0.473603 
0.473605 0.473607 0.473609 0.473611 0.473613 0.473615 0.473617 0.473619 0.473622 
0.473624 0.473626 0.473629 0.473631 0.473634 0.473636 0.473639 0.473642 0.473644 
0.473647 0.47365 0.473653 0.473656 0.473659 0.473662 0.473665 0.473668 0.473672 
0.473675 0.473678 0.473682 0.473683 0.473672 0.473413 0.471156 0.467023 0.759989 
0.759964 0.759937 0.759907 0.759873 0.759835 0.759793 0.759747 0.759696 0.759642 
0.759583 0.759522 0.759458 0.759392 0.759326 0.759259 0.759194 0.75913 0.759068 
0.759008 0.75895 0.758894 0.75884 0.758788 0.758738 0.75869 0.758644 0.7586 
0.758557 0.758516 0.758478 0.758442 0.758409 0.758379 0.758352 0.758329 0.758309 
0.758293 0.75828 0.758273 0.758269 0.75827 0.758276 0.758285 0.758299 0.758317 
0.758337 0.758362 0.758389 0.758418 0.758449 0.758481 0.758514 0.758547 0.75858 
0.758612 0.758641 0.75867 0.758695 0.758718 0.758738 0.758754 0.758767 0.758776 
0.758781 0.758782 0.758778 0.758771 0.75876 0.758744 0.758725 0.758701 0.758674 
0.758642 0.758607 0.758568 0.758525 0.758478 0.758428 0.758375 0.758319 0.75826 
0.7582 0.758138 0.758075 0.758013 0.757953 0.757895 0.757842 0.757794 0.757754 
0.757723 0.757702 0.757692 0.757693 0.757704 0.757727 0.757758 0.757799 0.757848 
0.757902 0.757958 0.758015 0.758071 0.758125 0.758174 0.758218 0.758257 0.75829 
0.758317 0.758339 0.758357 0.758371 0.758382 0.758391 0.758401 0.758411 0.758423 
0.758438 0.758457 0.758481 0.75851 0.758547 0.75859 0.758641 0.7587 0.758768 
0.758845 0.758932 0.759015 0.759149 0.759079 0.754419 0.742353 0.723954 0.700459 
0.67311 0.643151 0.611817 0.580356 0.550104 0.522592 0.499509 0.482518 0.473253 
0.471835 0.471898 0.471952 0.471998 0.472036 0.472067 0.472093 0.472114 0.472131 
0.472143 0.472152 0.472153 0.47213 0.472127 0.472053 0.47098 0.467189 0.464122 
0.464932 0.466295 0.467578 0.46861 0.469827 0.471057 0.473126 0.476362 0.479801 
0.483543 0.486464 0.489587 0.492711 0.496467 0.501025 0.50579 0.510209 0.514541 
0.519278 0.524461 0.530386 0.536162 0.542423 0.549283 0.557013 0.557364 0.556702 
0.559854 0.564233 0.575377 0.585901 0.597991 0.614375 0.620067 0.619792 0.591215 
0.561918 0.543273 0.522172 0.498404 0.490618 0.491593 0.491319 0.483548 0.473286 
0.473091 0.473139 0.473183 0.473223 0.473259 0.473291 0.47332 0.473347 0.47337 
0.473392 0.473411 0.473428 0.473443 0.473457 0.47347 0.473481 0.473491 0.4735 
0.473509 0.473516 0.473523 0.473529 0.473534 0.473539 0.473544 0.473548 0.473551 
0.473555 0.473558 0.473561 0.473564 0.473566 0.473569 0.473571 0.473573 0.473575 
0.473577 0.473579 0.473581 0.473582 0.473584 0.473586 0.473587 0.473589 0.473591 
0.473593 0.473594 0.473596 0.473598 0.4736 0.473601 0.473603 0.473605 0.473607 
0.473609 0.473611 0.473613 0.473615 0.473617 0.473619 0.473622 0.473624 0.473626 
0.473629 0.473631 0.473634 0.473636 0.473639 0.473642 0.473644 0.473647 0.47365 
0.473653 0.473656 0.473659 0.473662 0.473665 0.473668 0.473672 0.473675 0.473678 
0.473682 0.473683 0.473672 0.473413 0.471156 0.467023 0.75999 0.759966 0.75994 
0.75991 0.759877 0.759838 0.759796 0.759748 0.759696 0.759639 0.759578 0.759514 
0.759447 0.759379 0.759311 0.759243 0.759176 0.759111 0.759049 0.758989 0.758932 
0.758877 0.758824 0.758773 0.758724 0.758676 0.75863 0.758586 0.758543 0.758502 
0.758463 0.758426 0.758393 0.758362 0.758334 0.758309 0.758289 0.758272 0.758259 
0.758251 0.758247 0.758249 0.758254 0.758264 0.758278 0.758297 0.758319 0.758345 
0.758374 0.758405 0.758438 0.758473 0.758509 0.758545 0.75858 0.758614 0.758647 
0.758678 0.758706 0.758731 0.758752 0.75877 0.758784 0.758794 0.7588 0.758802 
0.758799 0.758792 0.75878 0.758764 0.758744 0.758719 0.75869 0.758657 0.75862 
0.758579 0.758534 0.758485 0.758432 0.758375 0.758315 0.758253 0.758188 0.758121 
0.758053 0.757986 0.75792 0.757857 0.757798 0.757746 0.757702 0.757668 0.757645 
0.757635 0.757638 0.757653 0.75768 0.757717 0.757765 0.757822 0.757884 0.757948 
0.758013 0.758075 0.758134 0.758187 0.758234 0.758275 0.758308 0.758334 0.758354 
0.758369 0.758378 0.758385 0.758389 0.758393 0.758397 0.758403 0.758413 0.758426 
0.758445 0.75847 0.758501 0.758539 0.758586 0.75864 0.758704 0.758777 0.758861 
0.758945 0.75908 0.759017 0.754367 0.742323 0.723958 0.700497 0.673171 0.643217 
0.611876 0.580407 0.550139 0.522629 0.499559 0.482577 0.47331 0.471888 0.471947 
0.471996 0.472036 0.47207 0.472096 0.472117 0.472133 0.472144 0.472149 0.472151 
0.472145 0.472123 0.47211 0.472054 0.47123 0.468217 0.467554 0.469186 0.470473 
0.471476 0.47278 0.474492 0.477957 0.481294 0.483014 0.485714 0.489612 0.493258 
0.496721 0.500021 0.504279 0.509196 0.514713 0.520071 0.524398 0.529018 0.534864 
0.541265 0.547109 0.552979 0.557605 0.560477 0.566594 0.571339 0.575309 0.578819 
0.582533 0.589338 0.595083 0.604612 0.613525 0.614523 0.614897 0.583732 0.562588 
0.541248 0.515778 0.495448 0.491744 0.49146 0.483576 0.473312 0.473106 0.473155 
0.473199 0.473239 0.473274 0.473306 0.473335 0.47336 0.473383 0.473403 0.473422 
0.473438 0.473453 0.473466 0.473478 0.473488 0.473498 0.473506 0.473514 0.473521 
0.473527 0.473533 0.473538 0.473542 0.473547 0.47355 0.473554 0.473557 0.47356 
0.473563 0.473565 0.473568 0.47357 0.473572 0.473574 0.473576 0.473578 0.473579 
0.473581 0.473583 0.473585 0.473586 0.473588 0.47359 0.473591 0.473593 0.473595 
0.473596 0.473598 0.4736 0.473602 0.473603 0.473605 0.473607 0.473609 0.473611 
0.473613 0.473615 0.473617 0.473619 0.473622 0.473624 0.473626 0.473629 0.473631 
0.473634 0.473636 0.473639 0.473642 0.473644 0.473647 0.47365 0.473653 0.473656 
0.473659 0.473662 0.473665 0.473668 0.473672 0.473675 0.473678 0.473682 0.473683 
0.473672 0.473413 0.471156 0.467023 0.759991 0.759969 0.759944 0.759915 0.759881 
0.759842 0.759798 0.759749 0.759694 0.759635 0.759572 0.759504 0.759435 0.759364 
0.759294 0.759224 0.759157 0.759092 0.75903 0.75897 0.758914 0.75886 0.758808 
0.758758 0.75871 0.758662 0.758616 0.758572 0.758528 0.758487 0.758447 0.75841 
0.758375 0.758343 0.758314 0.758289 0.758268 0.75825 0.758237 0.758228 0.758224 
0.758225 0.758231 0.758242 0.758257 0.758276 0.7583 0.758327 0.758358 0.758391 
0.758427 0.758464 0.758503 0.758542 0.75858 0.758618 0.758653 0.758687 0.758718 
0.758745 0.758769 0.758789 0.758805 0.758816 0.758823 0.758825 0.758823 0.758815 
0.758803 0.758787 0.758766 0.75874 0.75871 0.758675 0.758636 0.758592 0.758544 
0.758492 0.758435 0.758375 0.758311 0.758244 0.758173 0.758101 0.758027 0.757953 
0.757881 0.757811 0.757746 0.757689 0.75764 0.757603 0.757579 0.75757 0.757575 
0.757595 0.757628 0.757674 0.757731 0.757797 0.757869 0.757942 0.758014 0.758083 
0.758147 0.758205 0.758255 0.758296 0.758329 0.758354 0.758372 0.758382 0.758388 
0.758389 0.758387 0.758385 0.758383 0.758383 0.758386 0.758394 0.758407 0.758426 
0.758452 0.758484 0.758525 0.758573 0.75863 0.758697 0.758776 0.758857 0.758995 
0.758939 0.754299 0.74227 0.723926 0.70049 0.673188 0.643253 0.611925 0.580465 
0.5502 0.522693 0.499629 0.482649 0.473379 0.47195 0.472004 0.472047 0.472082 