# vtk DataFile Version 5.1
vtk output
ASCII
DATASET UNSTRUCTURED_GRID
POINTS 10043 double
-10.1 1.4499999993 -3.1683089219e-07 -10.049999999 1.4499999993 -1.9979982824e-07 -10.049999999 1.5 7.3252681432e-07 
-9.9999999985 1.4499999993 -1.5377302987e-07 -9.9999999985 1.5 5.7977899814e-07 -9.9499999978 1.4499999993 -1.3029988111e-07 
-9.9499999978 1.5 4.9448112804e-07 -9.899999997 1.4499999993 -1.1525775534e-07 -9.899999997 1.5 4.387336503e-07 
-9.8499999963 1.4499999993 -1.0465395661e-07 -9.8499999963 1.5 3.9890323933e-07 -9.7999999955 1.4499999993 -9.6690421003e-08 
-9.7999999955 1.5 3.688335255e-07 -9.7499999948 1.4499999993 -9.0487667137e-08 -9.7499999948 1.5 3.4527306525e-07 
-9.699999994 1.4499999993 -8.5529102023e-08 -9.699999994 1.5 3.2626644497e-07 -9.6499999933 1.4499999993 -8.1365435278e-08 
-9.6499999933 1.5 3.1054219107e-07 -9.5999999925 1.4499999993 -7.7907536422e-08 -9.5999999925 1.5 2.9739271667e-07 
-9.5499999918 1.4499999993 -7.4979872977e-08 -9.5499999918 1.5 2.8623685466e-07 -9.4999999911 1.4499999993 -7.2482400526e-08 
-9.4999999911 1.5 2.7661985769e-07 -9.4499999903 1.4499999993 -7.0181378931e-08 -9.4499999903 1.5 2.6828888622e-07 
-9.3999999896 1.4499999993 -6.8335104686e-08 -9.3999999896 1.5 2.6095381145e-07 -9.3499999888 1.4499999993 -6.6678914834e-08 
-9.3499999888 1.5 2.5453550734e-07 -9.2999999881 1.4499999993 -6.5124588389e-08 -9.2999999881 1.5 2.4889845918e-07 
-9.2499999873 1.4499999993 -6.382310147e-08 -9.2499999873 1.5 2.438471256e-07 -9.1999999866 1.4499999993 -6.2686233093e-08 
-9.1999999866 1.5 2.3935422178e-07 -9.1499999858 1.4499999993 -6.1623033787e-08 -9.1499999858 1.5 2.3532426496e-07 
-9.0999999851 1.4499999993 -6.0682616265e-08 -9.0999999851 1.5 2.3169720009e-07 -9.0499999844 1.4499999993 -5.9821324783e-08 
-9.0499999844 1.5 2.2849850723e-07 -8.9999999836 1.4499999993 -5.9046431744e-08 -8.9999999836 1.5 2.2559267165e-07 
-8.9499999829 1.4499999993 -5.8390686064e-08 -8.9499999829 1.5 2.2301243519e-07 -8.8999999821 1.4499999993 -5.7783143603e-08 
-8.8999999821 1.5 2.2062501159e-07 -8.8499999814 1.4499999993 -5.7207433457e-08 -8.8499999814 1.5 2.1856682508e-07 
-8.7999999806 1.4499999993 -5.669538794e-08 -8.7999999806 1.5 2.1664597227e-07 -8.7499999799 1.4499999993 -5.6272472904e-08 
-8.7499999799 1.5 2.1495795011e-07 -8.6999999791 1.4499999993 -5.6091483458e-08 -8.6999999791 1.5 2.1418124163e-07 
-8.6499999784 1.4499999993 -5.5700400736e-08 -8.6499999784 1.5 2.1276788686e-07 -8.5999999776 1.4499999993 -5.5344788308e-08 
-8.5999999776 1.5 2.1145275753e-07 -8.5499999769 1.4499999993 -5.5098315244e-08 -8.5499999769 1.5 2.1039137721e-07 
-8.4999999762 1.4499999993 -5.478817755e-08 -8.4999999762 1.5 2.0936001022e-07 -8.4499999754 1.4499999993 -5.4539885497e-08 
-8.4499999754 1.5 2.0849871873e-07 -8.3999999747 1.4499999993 -5.4419832196e-08 -8.3999999747 1.5 2.0779840781e-07 
-8.3499999739 1.4499999993 -5.4278860517e-08 -8.3499999739 1.5 2.0714448112e-07 -8.2999999732 1.4499999993 -5.4146983786e-08 
-8.2999999732 1.5 2.0662061218e-07 -8.2499999724 1.4499999993 -5.4013288064e-08 -8.2499999724 1.5 2.0620952057e-07 
-8.1999999717 1.4499999993 -5.3902329711e-08 -8.1999999717 1.5 2.0585117966e-07 -8.1499999709 1.4499999993 -5.3865949923e-08 
-8.1499999709 1.5 2.0560925407e-07 -8.0999999702 1.4499999993 -5.3767724495e-08 -8.0999999702 1.5 2.053800614e-07 
-8.0499999695 1.4499999993 -5.379955681e-08 -8.0499999695 1.5 2.0530048062e-07 -7.9999999687 1.4499999993 -5.375317258e-08 
-7.9999999687 1.5 2.0536050727e-07 -7.949999968 1.4499999993 -5.3701331382e-08 -7.949999968 1.5 2.0542826462e-07 
-7.8999999672 1.4499999993 -5.3792735599e-08 -7.8999999672 1.5 2.0551102864e-07 -7.8499999665 1.4499999993 -5.3890051532e-08 
-7.8499999665 1.5 2.0567337344e-07 -7.7999999657 1.4499999993 -5.3901420216e-08 -7.7999999657 1.5 2.0588119298e-07 
-7.749999965 1.4499999993 -5.4016016549e-08 -7.749999965 1.5 2.0627273045e-07 -7.6999999642 1.4499999993 -5.4142436312e-08 
-7.6999999642 1.5 2.065564928e-07 -7.6499999635 1.4499999993 -5.4219743362e-08 -7.6499999635 1.5 2.0698304581e-07 
-7.5999999627 1.4499999993 -5.4352984336e-08 -7.5999999627 1.5 2.0745552831e-07 -7.549999962 1.4499999993 -5.447758511e-08 
-7.549999962 1.5 2.0795711464e-07 -7.4999999613 1.4499999993 -5.4610826083e-08 -7.4999999613 1.5 2.0850553994e-07 
-7.4499999605 1.4499999993 -5.4761802204e-08 -7.4499999605 1.5 2.0908261433e-07 -7.3999999598 1.4499999993 -5.4951886597e-08 
-7.3999999598 1.5 2.0973017456e-07 -7.349999959 1.4499999993 -5.5111502917e-08 -7.349999959 1.5 2.104354877e-07 
-7.2999999583 1.4499999993 -5.5289309131e-08 -7.2999999583 1.5 2.1109669035e-07 -7.2499999575 1.4499999993 -5.5464386861e-08 
-7.2499999575 1.5 2.1185248045e-07 -7.1999999568 1.4499999993 -5.5655835496e-08 -7.1999999568 1.5 2.1260872529e-07 
-7.149999956 1.4499999993 -5.5876970606e-08 -7.149999956 1.5 2.133972572e-07 -7.0999999553 1.4499999993 -5.598643682e-08 
-7.0999999553 1.5 2.137919779e-07 -7.0499999546 1.4499999993 -5.6191982623e-08 -7.0499999546 1.5 2.1461279687e-07 
-6.9999999538 1.4499999993 -5.6443457908e-08 -6.9999999538 1.5 2.1545089623e-07 -6.9499999531 1.4499999993 -5.6645820479e-08 
-6.9499999531 1.5 2.1627444369e-07 -6.8999999523 1.4499999993 -5.6870010923e-08 -6.8999999523 1.5 2.1715347032e-07 
-6.8499999516 1.4499999993 -5.7088744398e-08 -6.8499999516 1.5 2.1806296502e-07 -6.7999999508 1.4499999993 -5.7300656664e-08 
-6.7999999508 1.5 2.1894653912e-07 -6.7499999501 1.4499999993 -5.7545765486e-08 -6.7499999501 1.5 2.1977145082e-07 
-6.6999999493 1.4499999993 -5.7787691077e-08 -6.6999999493 1.5 2.2065638916e-07 -6.6499999486 1.4499999993 -5.8009153037e-08 
-6.6499999486 1.5 2.2149630752e-07 -6.5999999478 1.4499999993 -5.8213334597e-08 -6.5999999478 1.5 2.2233440689e-07 
-6.5499999471 1.4499999993 -5.8471176345e-08 -6.5499999471 1.5 2.2313339798e-07 -6.4999999464 1.4499999993 -5.8634430644e-08 
-6.4999999464 1.5 2.2392283938e-07 -6.4499999456 1.4499999993 -5.8810872616e-08 -6.4499999456 1.5 2.2462951677e-07 
-6.3999999449 1.4499999993 -5.8991862062e-08 -6.3999999449 1.5 2.2531800425e-07 -6.3499999441 1.4499999993 -5.9174670497e-08 
-6.3499999441 1.5 2.2591008531e-07 -6.2999999434 1.4499999993 -5.9264710472e-08 -6.2999999434 1.5 2.2647488152e-07 
-6.2499999426 1.4499999993 -5.9394540841e-08 -6.2499999426 1.5 2.2691575907e-07 -6.1999999419 1.4499999993 -5.951755e-08 
-6.1999999419 1.5 2.2725477322e-07 -6.1499999411 1.4499999993 -5.9548018072e-08 -6.1499999411 1.5 2.2748805861e-07 
-6.0999999404 1.4499999993 -5.9600768765e-08 -6.0999999404 1.5 2.2757355111e-07 -6.0499999397 1.4499999993 -5.9579850387e-08 
-6.0499999397 1.5 2.2749624407e-07 -5.9999999389 1.4499999993 -5.9507545558e-08 -5.9999999389 1.5 2.2728819715e-07 
-5.9499999382 1.4499999993 -5.9404317909e-08 -5.9499999382 1.5 2.2683117606e-07 -5.8999999374 1.4499999993 -5.9202410085e-08 
-5.8999999374 1.5 2.2615746786e-07 -5.8499999367 1.4499999993 -5.8971853178e-08 -5.8499999367 1.5 2.2521818721e-07 
-5.7999999359 1.4499999993 -5.863420327e-08 -5.7999999359 1.5 2.2395421695e-07 -5.7499999352 1.4499999993 -5.8250851254e-08 
-5.7499999352 1.5 2.2237351516e-07 -5.6999999344 1.4499999993 -5.7720843216e-08 -5.6999999344 1.5 2.2039036196e-07 
-5.6499999337 1.4499999993 -5.7060095315e-08 -5.6499999337 1.5 2.1796110161e-07 -5.5999999329 1.4499999993 -5.631684985e-08 
-5.5999999329 1.5 2.1499410252e-07 -5.5499999322 1.4499999993 -5.5848875746e-08 -5.5499999322 1.5 2.1331790379e-07 
-5.4999999315 1.4499999993 -5.4846157838e-08 -5.4999999315 1.5 2.0950302826e-07 -5.4499999307 1.4499999993 -5.365608402e-08 
-5.4499999307 1.5 2.0495419051e-07 -5.39999993 1.4499999993 -5.2272287832e-08 -5.39999993 1.5 1.9960522479e-07 
-5.3499999292 1.4499999993 -5.0623146564e-08 -5.3499999292 1.5 1.9334108003e-07 -5.2999999285 1.4499999993 -4.8693880927e-08 
-5.2999999285 1.5 1.8603283536e-07 -5.2499999277 1.4499999993 -4.6474259108e-08 -5.2499999277 1.5 1.7752451242e-07 
-5.199999927 1.4499999993 -4.3893795265e-08 -5.199999927 1.5 1.6761897825e-07 -5.1499999262 1.4499999993 -4.0875864471e-08 
-5.1499999262 1.5 1.5610704907e-07 -5.0999999255 1.4499999993 -3.7371581385e-08 -5.0999999255 1.5 1.4279341087e-07 
-5.0499999247 1.4499999993 -3.3339336625e-08 -5.0499999247 1.5 1.2732267862e-07 -4.999999924 1.4499999993 -2.8622812565e-08 
-4.999999924 1.5 1.093977815e-07 -4.9499999233 1.4499999993 -2.3178804653e-08 -4.9499999233 1.5 8.8586951108e-08 
-4.8999999225 1.4499999993 -1.6839171835e-08 -4.8999999225 1.5 6.4427361224e-08 -4.8499999218 1.4499999993 -9.4748795476e-09 
-4.8499999218 1.5 3.6297830519e-08 -4.799999921 1.4499999993 -8.7617535449e-10 -4.799999921 1.5 3.5158882472e-09 
-4.7499999203 1.4499999993 9.1651006784e-09 -4.7499999203 1.5 -3.4752350331e-08 -4.6999999195 1.4499999993 2.0937600098e-08 
-4.6999999195 1.5 -7.9583962531e-08 -4.6499999188 1.4499999993 3.4738274479e-08 -4.6499999188 1.5 -1.322865586e-07 
-4.599999918 1.4499999993 5.1064613871e-08 -4.599999918 1.5 -1.9442892096e-07 -4.5499999173 1.4499999993 7.0382277784e-08 
-4.5499999173 1.5 -2.6804138997e-07 -4.4999999166 1.4499999993 9.3374531218e-08 -4.4999999166 1.5 -3.5567643408e-07 
-4.4499999158 1.4499999993 1.2095064506e-07 -4.4499999158 1.5 -4.6057698455e-07 -4.3999999151 1.4499999993 1.5413469612e-07 
-4.3999999151 1.5 -5.8698969951e-07 -4.3499999143 1.4499999993 1.9446373756e-07 -4.3499999143 1.5 -7.4036597653e-07 
-4.2999999136 1.4499999993 2.4384985409e-07 -4.2999999136 1.5 -9.2811546892e-07 -4.2499999128 1.4499999993 3.0493526992e-07 
-4.2499999128 1.5 -1.1601647429e-06 -4.1999999121 1.4499999993 3.8131861402e-07 -4.1999999121 1.5 -1.4501356418e-06 
-4.1499999113 1.4499999993 4.7813898618e-07 -4.1499999113 1.5 -1.8172748923e-06 -4.0999999106 1.4499999993 6.027589734e-07 
-4.0999999106 1.5 -2.2892406832e-06 -4.0499999098 1.4499999993 7.6620642631e-07 -4.0499999098 1.5 -2.9071277368e-06 
-3.9999999091 1.4499999993 9.8542636806e-07 -3.9999999091 1.5 -3.7340157633e-06 -3.9499999084 1.4499999993 1.1239126252e-06 
[...]
CELL_DATA 9510
FIELD FieldData 4
Water_Depth_m 1 9510 float
0.75 0.750001 0.750001 0.750001 0.750002 0.750002 0.750002 0.750003 0.750003 
0.750003 0.750004 0.750004 0.750004 0.750005 0.750005 0.750006 0.750006 0.750006 
0.750007 0.750007 0.750007 0.750008 0.750008 0.750008 0.750009 0.750009 0.75001 
0.75001 0.75001 0.750011 0.750011 0.750011 0.750012 0.750012 0.750012 0.750013 
0.750013 0.750013 0.750014 0.750014 0.750015 0.750015 0.750015 0.750016 0.750016 
0.750016 0.750017 0.750017 0.750018 0.750018 0.750018 0.750019 0.750019 0.750019 
0.75002 0.75002 0.75002 0.750021 0.750021 0.750022 0.750022 0.750022 0.750023 
0.750023 0.750023 0.750024 0.750024 0.750025 0.750025 0.750025 0.750026 0.750026 
0.750027 0.750027 0.750027 0.750028 0.750028 0.750028 0.750029 0.750029 0.75003 
0.75003 0.75003 0.750031 0.750031 0.750031 0.750032 0.750032 0.750033 0.750033 
0.750034 0.750034 0.750034 0.750035 0.750035 0.750036 0.750036 0.750036 0.750037 
0.750037 0.750038 0.750038 0.750039 0.750039 0.75004 0.75004 0.750041 0.750041 
0.750042 0.750042 0.750043 0.750044 0.750044 0.750045 0.750046 0.750047 0.750048 
0.750049 0.75005 0.750051 0.750053 0.750055 0.750057 0.750059 0.750062 0.750066 
0.750072 0.750082 0.750102 0.750166 0.75037 0.750261 0.744818 0.731504 0.712082 
0.688223 0.661225 0.632214 0.602236 0.572288 0.543876 0.51783 0.495136 0.477236 
0.466114 0.464225 0.464223 0.464222 0.464225 0.464228 0.464231 0.464235 0.464238 
0.464242 0.464245 0.464249 0.464253 0.464257 0.464261 0.464265 0.46427 0.464274 
0.464279 0.464285 0.46429 0.464296 0.464303 0.46431 0.464317 0.464324 0.464332 
0.464349 0.467874 0.482928 0.483686 0.482463 0.482176 0.480753 0.480423 0.480827 
0.481873 0.476227 0.447106 0.415707 0.382804 0.35536 0.325571 0.30389 0.315136 
0.328627 0.344812 0.360758 0.384228 0.411154 0.443245 0.476543 0.51367 0.552794 
0.633265 0.603 0.577363 0.548985 0.520536 0.503574 0.503231 0.506023 0.505727 
0.495151 0.494872 0.494702 0.494629 0.494576 0.494527 0.494481 0.494443 0.494416 
0.494402 0.494398 0.494399 0.494402 0.494404 0.494405 0.494405 0.494405 0.494405 
0.494408 0.494413 0.494421 0.494433 0.49445 0.494472 0.494498 0.494527 0.494558 
0.494587 0.494614 0.494636 0.494654 0.494667 0.494678 0.494687 0.494697 0.494708 
0.49472 0.494729 0.494731 0.494723 0.494698 0.49465 0.494581 0.494505 0.494438 
0.49439 0.494362 0.494348 0.494341 0.494336 0.494326 0.494311 0.494299 0.494311 
0.494363 0.494448 0.494534 0.494594 0.494626 0.49464 0.494649 0.494655 0.494657 
0.494652 0.49464 0.494621 0.49459 0.494546 0.494488 0.494418 0.494335 0.494237 
0.494116 0.493967 0.493788 0.493584 0.493365 0.493156 0.492959 0.492779 0.492656 
0.492555 0.492518 0.49272 0.493099 0.49249 0.490846 0.488089 0.750001 0.750001 
0.750001 0.750001 0.750002 0.750002 0.750002 0.750003 0.750003 0.750003 0.750004 
0.750004 0.750005 0.750005 0.750005 0.750006 0.750006 0.750006 0.750007 0.750007 
0.750007 0.750008 0.750008 0.750009 0.750009 0.750009 0.75001 0.75001 0.75001 
0.750011 0.750011 0.750011 0.750012 0.750012 0.750012 0.750013 0.750013 0.750013 
0.750014 0.750014 0.750015 0.750015 0.750015 0.750016 0.750016 0.750016 0.750017 
0.750017 0.750018 0.750018 0.750018 0.750019 0.750019 0.750019 0.75002 0.75002 
0.75002 0.750021 0.750021 0.750022 0.750022 0.750022 0.750023 0.750023 0.750023 
0.750024 0.750024 0.750025 0.750025 0.750025 0.750026 0.750026 0.750027 0.750027 
0.750027 0.750028 0.750028 0.750028 0.750029 0.750029 0.75003 0.75003 0.75003 
0.750031 0.750031 0.750032 0.750032 0.750032 0.750033 0.750033 0.750034 0.750034 
0.750034 0.750035 0.750035 0.750036 0.750036 0.750037 0.750037 0.750037 0.750038 
0.750038 0.750039 0.750039 0.75004 0.75004 0.750041 0.750041 0.750042 0.750042 
0.750043 0.750043 0.750044 0.750045 0.750045 0.750046 0.750047 0.750048 0.750048 
0.750049 0.75005 0.750051 0.750053 0.750054 0.750055 0.750056 0.750058 0.750059 
0.750062 0.750065 0.7501 0.750059 0.745178 0.732554 0.713587 0.689837 0.662677 
0.633327 0.602906 0.57243 0.543202 0.516341 0.493266 0.475679 0.465774 0.464242 
0.464232 0.464226 0.464227 0.464229 0.464232 0.464236 0.464239 0.464243 0.464246 
0.46425 0.464254 0.464258 0.464262 0.464266 0.46427 0.464275 0.46428 0.464285 
0.464291 0.464297 0.464304 0.464311 0.464318 0.464325 0.464331 0.464348 0.467811 
0.482653 0.483626 0.482019 0.481895 0.481339 0.48059 0.481033 0.480642 0.471619 
0.4333 0.401452 0.367337 0.331821 0.307333 0.297713 0.304812 0.31689 0.334377 
0.35558 0.382696 0.417688 0.453687 0.482534 0.523159 0.545336 0.62308 0.593064 
0.561607 0.538091 0.521663 0.506837 0.510844 0.512061 0.509701 0.495775 0.494627 
0.494605 0.494575 0.49454 0.4945 0.494458 0.494422 0.494398 0.49439 0.494392 
0.494398 0.494404 0.494406 0.494407 0.494406 0.494405 0.494404 0.494404 0.494407 
0.494414 0.494426 0.494443 0.494465 0.494491 0.494521 0.494552 0.494582 0.494608 
0.49463 0.494647 0.494659 0.494668 0.494676 0.494688 0.494704 0.494719 0.494729 
0.49473 0.494716 0.494683 0.494626 0.49455 0.494472 0.494411 0.494372 0.49435 
0.49434 0.494336 0.494333 0.494322 0.494301 0.49428 0.494285 0.494337 0.494421 
0.494504 0.494561 0.49459 0.494603 0.494612 0.494624 0.494637 0.494647 0.494651 
0.494643 0.494613 0.494562 0.494499 0.494426 0.494344 0.494247 0.494123 0.493967 
0.493778 0.493561 0.493331 0.493112 0.492915 0.492759 0.492622 0.492467 0.492285 
0.49214 0.492267 0.491749 0.490349 0.487977 0.75 0.750001 0.750001 0.750001 
0.750002 0.750002 0.750002 0.750003 0.750003 0.750003 0.750004 0.750004 0.750004 
0.750005 0.750005 0.750006 0.750006 0.750006 0.750007 0.750007 0.750007 0.750008 
0.750008 0.750008 0.750009 0.750009 0.75001 0.75001 0.75001 0.750011 0.750011 
0.750011 0.750012 0.750012 0.750012 0.750013 0.750013 0.750013 0.750014 0.750014 
0.750015 0.750015 0.750015 0.750016 0.750016 0.750016 0.750017 0.750017 0.750018 
0.750018 0.750018 0.750019 0.750019 0.750019 0.75002 0.75002 0.75002 0.750021 
0.750021 0.750022 0.750022 0.750022 0.750023 0.750023 0.750023 0.750024 0.750024 
0.750025 0.750025 0.750025 0.750026 0.750026 0.750027 0.750027 0.750027 0.750028 
0.750028 0.750028 0.750029 0.750029 0.75003 0.75003 0.75003 0.750031 0.750031 
0.750031 0.750032 0.750032 0.750033 0.750033 0.750033 0.750034 0.750034 0.750035 
0.750035 0.750036 0.750036 0.750036 0.750037 0.750037 0.750038 0.750038 0.750039 
0.750039 0.75004 0.75004 0.750041 0.750041 0.750042 0.750042 0.750043 0.750043 
0.750044 0.750045 0.750045 0.750046 0.750047 0.750048 0.750048 0.750049 0.75005 
0.750051 0.750053 0.750054 0.750055 0.750057 0.750058 0.75006 0.750064 0.750071 
0.750154 0.750059 0.745326 0.733046 0.714406 0.690815 0.663621 0.634076 0.603346 
0.572517 0.542863 0.515644 0.492495 0.475217 0.465701 0.464212 0.464215 0.464219 
0.464223 0.464226 0.46423 0.464234 0.464237 0.464241 0.464245 0.464248 0.464252 
0.464256 0.46426 0.464264 0.464268 0.464273 0.464278 0.464283 0.464288 0.464294 
0.4643 0.464307 0.464314 0.464322 0.464331 0.464348 0.467553 0.481826 0.483121 
0.481264 0.481077 0.481002 0.480408 0.481076 0.479031 0.462191 0.430545 0.400557 
0.363563 0.328801 0.297066 0.271596 0.280399 0.30494 0.329623 0.357752 0.389256 
0.42367 0.457782 0.494521 0.532003 0.556411 0.630508 0.596187 0.572846 0.549123 
0.522989 0.510355 0.515662 0.516419 0.513034 0.495427 0.494625 0.494602 0.494569 
0.494531 0.494489 0.494445 0.494409 0.494388 0.494386 0.494392 0.494399 0.494405 
0.494411 0.494413 0.494411 0.494407 0.494402 0.494399 0.494398 0.494403 0.494413 
0.494429 0.494451 0.494478 0.494508 0.49454 0.49457 0.494598 0.49462 0.494636 
0.494647 0.494655 0.494662 0.494669 0.494677 0.494688 0.494698 0.494701 0.494688 
0.494652 0.494592 0.494514 0.494435 0.494371 0.494331 0.494317 0.494324 0.49434 
0.494351 0.494345 0.49432 0.494289 0.49428 0.494316 0.494389 0.494468 0.494521 
0.494545 0.494557 0.494572 0.494592 0.494612 0.494623 0.494622 0.494602 0.494563 
0.494533 0.494501 0.494436 0.494353 0.494248 0.494114 0.493944 0.493737 0.493501 
0.493254 0.493023 0.492834 0.492706 0.492603 0.492475 0.492262 0.491861 0.491336 
0.490585 0.489529 0.4877 0.75 0.750001 0.750001 0.750001 0.750002 0.750002 
0.750002 0.750003 0.750003 0.750003 0.750004 0.750004 0.750004 0.750005 0.750005 
0.750005 0.750006 0.750006 0.750007 0.750007 0.750007 0.750008 0.750008 0.750008 
0.750009 0.750009 0.75001 0.75001 0.75001 0.750011 0.750011 0.750011 0.750012 
0.750012 0.750012 0.750013 0.750013 0.750013 0.750014 0.750014 0.750014 0.750015 
0.750015 0.750016 0.750016 0.750016 0.750017 0.750017 0.750018 0.750018 0.750018 
0.750019 0.750019 0.750019 0.75002 0.75002 0.75002 0.750021 0.750021 0.750021 
0.750022 0.750022 0.750023 0.750023 0.750023 0.750024 0.750024 0.750025 0.750025 
0.750025 0.750026 0.750026 0.750027 0.750027 0.750027 0.750028 0.750028 0.750028 
0.750029 0.750029 0.75003 0.75003 0.75003 0.750031 0.750031 0.750031 0.750032 
0.750032 0.750033 0.750033 0.750033 0.750034 0.750034 0.750035 0.750035 0.750036 
0.750036 0.750036 0.750037 0.750037 0.750038 0.750038 0.750039 0.750039 0.75004 
0.75004 0.75004 0.750041 0.750041 0.750042 0.750043 0.750043 0.750044 0.750044 
0.750045 0.750046 0.750047 0.750047 0.750048 0.750049 0.75005 0.750051 0.750052 
0.750053 0.750054 0.750056 0.750057 0.750059 0.75006 0.750063 0.750139 0.750057 
0.74539 0.73328 0.714835 0.691368 0.664181 0.634528 0.603605 0.572565 0.542686 
0.515341 0.492214 0.475082 0.4657 0.464212 0.464216 0.464219 0.464223 0.464227 
0.46423 0.464234 0.464237 0.464241 0.464244 0.464248 0.464252 0.464256 0.464259 
0.464264 0.464268 0.464272 0.464277 0.464282 0.464287 0.464293 0.464299 0.464305 
0.464312 0.46432 0.464329 0.464347 0.467659 0.481926 0.482713 0.481106 0.480446 
0.479656 0.478953 0.480748 0.476047 0.445614 0.416218 0.390446 0.354728 0.319974 
0.291058 0.279255 0.294927 0.313582 0.338792 0.36316 0.391745 0.42453 0.456433 
0.494312 0.529573 0.554194 0.634642 0.596536 0.572505 0.548872 0.522888 0.514199 
0.518996 0.519072 0.514284 0.4957 0.494598 0.494579 0.494552 0.494518 0.494478 
0.494439 0.494408 0.494393 0.494388 0.49439 0.494395 0.494399 0.494404 0.494409 
0.494409 0.494405 0.494397 0.49439 0.494385 0.494387 0.494396 0.494411 0.494431 
0.494457 0.494488 0.49452 0.494552 0.494579 0.494601 0.494616 0.494626 0.494633 
0.494639 0.494644 0.494649 0.494655 0.494658 0.494657 0.494644 0.494611 0.494556 
0.494482 0.49441 0.494356 0.494326 0.494314 0.494312 0.49432 0.494334 0.494342 
0.494334 0.494316 0.494307 0.494331 0.494385 0.494458 0.494503 0.494515 0.49452 
0.494534 0.494557 0.494582 0.494601 0.494607 0.494589 0.494544 0.494478 0.494394 
0.494321 0.49426 0.49417 0.494047 0.493887 0.493688 0.493463 0.493235 0.493037 
0.492887 0.492805 0.492651 0.492391 0.492019 0.491615 0.491115 0.49025 0.48908 
0.488781 0.75 0.750001 0.750001 0.750001 0.750002 0.750002 0.750002 0.750003 
0.750003 0.750003 0.750004 0.750004 0.750004 0.750005 0.750005 0.750005 0.750006 
0.750006 0.750007 0.750007 0.750007 0.750008 0.750008 0.750008 0.750009 0.750009 
0.75001 0.75001 0.75001 0.750011 0.750011 0.750011 0.750012 0.750012 0.750012 
0.750013 0.750013 0.750013 0.750014 0.750014 0.750014 0.750015 0.750015 0.750016 
0.750016 0.750016 0.750017 0.750017 0.750018 0.750018 0.750018 0.750019 0.750019 
0.750019 0.75002 0.75002 0.75002 0.750021 0.750021 0.750021 0.750022 0.750022 
0.750023 0.750023 0.750023 0.750024 0.750024 0.750025 0.750025 0.750025 0.750026 
0.750026 0.750027 0.750027 0.750027 0.750028 0.750028 0.750028 0.750029 0.750029 
0.75003 0.75003 0.75003 0.750031 0.750031 0.750031 0.750032 0.750032 0.750033 
0.750033 0.750033 0.750034 0.750034 0.750035 0.750035 0.750036 0.750036 0.750036 
0.750037 0.750037 0.750038 0.750038 0.750039 0.750039 0.750039 0.75004 0.75004 
0.750041 0.750041 0.750042 0.750042 0.750043 0.750044 0.750044 0.750045 0.750046 
0.750046 0.750047 0.750048 0.750049 0.75005 0.750051 0.750052 0.750053 0.750054 
0.750055 0.750057 0.750059 0.75006 0.750064 0.750142 0.750058 0.745417 0.733387 
0.715047 0.691658 0.664485 0.634775 0.603744 0.572589 0.542598 0.515212 0.492117 
0.475047 0.465697 0.464211 0.464215 0.464219 0.464223 0.464227 0.46423 0.464234 
0.464237 0.464241 0.464244 0.464248 0.464251 0.464255 0.464259 0.464263 0.464267 
0.464271 0.464275 0.46428 0.464285 0.464291 0.464297 0.464303 0.46431 0.464317 
0.464326 0.464344 0.4677 0.48211 0.483073 0.480826 0.481498 0.481184 0.480829 
0.478123 0.468852 0.430885 0.400998 0.372075 0.341017 0.306606 0.295658 0.310061 
0.323855 0.342355 0.360495 0.377383 0.39817 0.425097 0.446135 0.484386 0.511412 
0.54005 0.629362 0.590438 0.564548 0.542013 0.522074 0.517852 0.521963 0.521863 
0.515927 0.495584 0.494579 0.494561 0.494535 0.494505 0.494471 0.494437 0.49441 
0.494395 0.494392 0.494393 0.494395 0.494398 0.4944 0.494401 0.4944 0.494395 
0.494387 0.494377 0.494371 0.49437 0.494375 0.494386 0.494405 0.494431 0.494462 
0.494495 0.494526 0.494553 0.494573 0.494587 0.494595 0.4946 0.494604 0.494607 
0.49461 0.494611 0.49461 0.494604 0.494589 0.494561 0.494515 0.494453 0.494391 
0.494342 0.494315 0.494305 0.494304 0.494313 0.494323 0.494331 0.494335 0.494337 
0.494344 0.494367 0.494415 0.494475 0.494498 0.49449 0.494482 0.494486 0.494503 
0.49453 0.494558 0.494576 0.494573 0.49454 0.494473 0.494373 0.494256 0.494147 
0.494075 0.493968 0.493832 0.493675 0.493502 0.493348 0.493273 0.49317 0.493011 
0.492782 0.492407 0.491869 0.491201 0.490497 0.489924 0.489286 0.488799 0.75 
0.750001 0.750001 0.750001 0.750002 0.750002 0.750002 0.750003 0.750003 0.750003 
0.750004 0.750004 0.750004 0.750005 0.750005 0.750005 0.750006 0.750006 0.750007 
0.750007 0.750007 0.750008 0.750008 0.750008 0.750009 0.750009 0.75001 0.75001 
0.75001 0.750011 0.750011 0.750011 0.750012 0.750012 0.750012 0.750013 0.750013 
0.750013 0.750014 0.750014 0.750015 0.750015 0.750015 0.750016 0.750016 0.750016 
0.750017 0.750017 0.750018 0.750018 0.750018 0.750019 0.750019 0.750019 0.75002 
0.75002 0.75002 0.750021 0.750021 0.750022 0.750022 0.750022 0.750023 0.750023 
0.750023 0.750024 0.750024 0.750025 0.750025 0.750025 0.750026 0.750026 0.750026 
0.750027 0.750027 0.750028 0.750028 0.750028 0.750029 0.750029 0.75003 0.75003 
0.75003 0.750031 0.750031 0.750032 0.750032 0.750032 0.750033 0.750033 0.750033 
0.750034 0.750034 0.750035 0.750035 0.750036 0.750036 0.750036 0.750037 0.750037 
0.750038 0.750038 0.750039 0.750039 0.750039 0.75004 0.75004 0.750041 0.750041 
0.750042 0.750042 0.750043 0.750044 0.750044 0.750045 0.750045 0.750046 0.750047 
0.750048 0.750048 0.750049 0.75005 0.750051 0.750052 0.750053 0.750055 0.750056 
0.750058 0.75006 0.750064 0.750142 0.750059 0.745428 0.733431 0.715142 0.691794 
0.664633 0.634896 0.603811 0.5726 0.542554 0.515156 0.492083 0.475039 0.465699 
0.464211 0.464215 0.464219 0.464223 0.464227 0.46423 0.464234 0.464237 0.46424 
0.464244 0.464247 0.464251 0.464254 0.464258 0.464262 0.464266 0.46427 0.464274 
0.464278 0.464283 0.464288 0.464294 0.4643 0.464307 0.464314 0.464322 0.46434 
0.467827 0.483163 0.484308 0.482139 0.481393 0.481783 0.482489 0.477508 0.454175 
0.417509 0.38616 0.353922 0.322836 0.303076 0.311389 0.325267 0.337434 0.354453 
0.368759 0.385976 0.404336 0.429103 0.454013 0.482988 0.520581 0.539267 0.615002 
0.591634 0.57169 0.548 0.527175 0.520778 0.524694 0.524544 0.517633 0.4957 
0.494556 0.494537 0.494514 0.494488 0.49446 0.494432 0.49441 0.494397 0.494393 
0.494395 0.494398 0.494399 0.494399 0.494396 0.494391 0.494383 0.494373 0.494362 
0.494353 0.494349 0.49435 0.494358 0.494376 0.494401 0.494432 0.494465 0.494495 
0.49452 0.494537 0.494548 0.494554 0.494558 0.49456 0.494561 0.494561 0.494558 
0.494553 0.494543 0.494526 0.4945 0.494464 0.494418 0.494369 0.494329 0.494303 
0.494292 0.494296 0.494308 0.494322 0.494329 0.494331 0.494343 0.494366 0.494397 
0.494438 0.494485 0.49448 0.494446 0.49442 0.494412 0.494429 0.494463 0.494504 
0.494544 0.494564 0.494555 0.494508 0.494419 0.494288 0.494132 0.493985 0.493868 
0.493775 0.4937 0.493622 0.493564 0.493484 0.493273 0.493042 0.492767 0.492394 
0.491898 0.491338 0.490872 0.490168 0.489786 0.487769 0.75 0.750001 0.750001 
0.750001 0.750002 0.750002 0.750002 0.750003 0.750003 0.750003 0.750004 0.750004 
0.750004 0.750005 0.750005 0.750006 0.750006 0.750006 0.750007 0.750007 0.750007 
0.750008 0.750008 0.750008 0.750009 0.750009 0.750009 0.75001 0.75001 0.750011 
0.750011 0.750011 0.750012 0.750012 0.750012 0.750013 0.750013 0.750014 0.750014 
0.750014 0.750015 0.750015 0.750015 0.750016 0.750016 0.750016 0.750017 0.750017 
0.750017 0.750018 0.750018 0.750019 0.750019 0.750019 0.75002 0.75002 0.75002 
0.750021 0.750021 0.750022 0.750022 0.750022 0.750023 0.750023 0.750023 0.750024 
0.750024 0.750025 0.750025 0.750025 0.750026 0.750026 0.750026 0.750027 0.750027 
0.750027 0.750028 0.750028 0.750029 0.750029 0.75003 0.75003 0.75003 0.750031 
0.750031 0.750032 0.750032 0.750032 0.750033 0.750033 0.750033 0.750034 0.750034 
0.750035 0.750035 0.750035 0.750036 0.750036 0.750037 0.750037 0.750037 0.750038 
0.750038 0.750039 0.750039 0.75004 0.75004 0.750041 0.750041 0.750042 0.750043 
0.750043 0.750044 0.750044 0.750045 0.750045 0.750046 0.750046 0.750047 0.750048 
0.750049 0.750049 0.75005 0.750051 0.750053 0.750054 0.750055 0.750057 0.750059 
0.750063 0.750141 0.750059 0.74543 0.733443 0.715175 0.691847 0.664693 0.634947 
0.603839 0.572605 0.542533 0.515132 0.492071 0.475038 0.465699 0.464211 0.464216 
0.46422 0.464223 0.464227 0.46423 0.464234 0.464237 0.46424 0.464243 0.464247 
0.46425 0.464253 0.464257 0.464261 0.464264 0.464268 0.464272 0.464276 0.464281 
0.464286 0.464291 0.464297 0.464303 0.464309 0.464317 0.464335 0.467789 0.482983 
0.484207 0.482081 0.481272 0.481676 0.482461 0.476479 0.446297 0.409581 0.378855 
0.347157 0.314962 0.315367 0.325023 0.334089 0.346648 0.360893 0.375635 0.39051 
0.405925 0.428688 0.45379 0.48395 0.52212 0.551288 0.629011 0.600511 0.579086 
0.555316 0.529836 0.523247 0.527529 0.52733 0.519354 0.495753 0.49453 0.494511 
0.494489 0.494466 0.494443 0.494421 0.494405 0.494395 0.494392 0.494395 0.494399 
0.494401 0.494399 0.494392 0.494382 0.49437 0.494357 0.494344 0.494333 0.494326 
0.494323 0.49433 0.494346 0.494371 0.494401 0.494432 0.49446 0.494481 0.494495 
0.494503 0.494508 0.49451 0.49451 0.494508 0.494504 0.494497 0.494487 0.494474 
0.494456 0.494431 0.494401 0.494369 0.494337 0.494311 0.494294 0.494285 0.49429 
0.494307 0.494327 0.494338 0.494337 0.494344 0.49437 0.494405 0.494442 0.494461 
0.494421 0.494369 0.494334 0.494339 0.494378 0.494437 0.494498 0.494551 0.49459 
0.494606 0.494591 0.49453 0.494419 0.494262 0.494076 0.493879 0.493725 0.493635 
0.493566 0.493479 0.493343 0.493116 0.492843 0.492536 0.49227 0.492078 0.492066 
0.492368 0.491805 0.490515 0.488011 0.75 0.750001 0.750001 0.750001 0.750002 
0.750002 0.750002 0.750003 0.750003 0.750003 0.750004 0.750004 0.750005 0.750005 
0.750005 0.750006 0.750006 0.750006 0.750007 0.750007 0.750007 0.750008 0.750008 
0.750008 0.750009 0.750009 0.750009 0.75001 0.75001 0.75001 0.750011 0.750011 
0.750012 0.750012 0.750012 0.750013 0.750013 0.750014 0.750014 0.750014 0.750015 
0.750015 0.750015 0.750016 0.750016 0.750016 0.750017 0.750017 0.750017 0.750018 
0.750018 0.750018 0.750019 0.750019 0.75002 0.75002 0.75002 0.750021 0.750021 
0.750022 0.750022 0.750022 0.750023 0.750023 0.750023 0.750024 0.750024 0.750025 
0.750025 0.750025 0.750026 0.750026 0.750026 0.750027 0.750027 0.750027 0.750028 
0.750028 0.750029 0.750029 0.75003 0.75003 0.75003 0.750031 0.750031 0.750032 
0.750032 0.750033 0.750033 0.750033 0.750034 0.750034 0.750034 0.750035 0.750035 
0.750035 0.750036 0.750036 0.750036 0.750037 0.750037 0.750038 0.750038 0.750039 
0.750039 0.75004 0.75004 0.750041 0.750042 0.750042 0.750042 0.750043 0.750044 
0.750044 0.750044 0.750045 0.750045 0.750046 0.750047 0.750047 0.750048 0.750049 
0.75005 0.750051 0.750052 0.750053 0.750055 0.750056 0.750058 0.750062 0.75014 
0.750058 0.745427 0.733443 0.715178 0.691858 0.664709 0.634961 0.603848 0.572607 
0.542525 0.515122 0.492067 0.475039 0.465701 0.464212 0.464217 0.46422 0.464224 