# vtk DataFile Version 5.1
vtk output
ASCII
DATASET UNSTRUCTURED_GRID
POINTS 10043 double
-10.1 1.4499999993 0 -10.049999999 1.4499999993 0 -10.049999999 1.5 0 
-9.9999999985 1.4499999993 0 -9.9999999985 1.5 0 -9.9499999978 1.4499999993 0 
-9.9499999978 1.5 0 -9.899999997 1.4499999993 0 -9.899999997 1.5 0 
-9.8499999963 1.4499999993 0 -9.8499999963 1.5 0 -9.7999999955 1.4499999993 0 
-9.7999999955 1.5 0 -9.7499999948 1.4499999993 0 -9.7499999948 1.5 0 
-9.699999994 1.4499999993 0 -9.699999994 1.5 0 -9.6499999933 1.4499999993 0 
-9.6499999933 1.5 0 -9.5999999925 1.4499999993 0 -9.5999999925 1.5 0 
-9.5499999918 1.4499999993 0 -9.5499999918 1.5 0 -9.4999999911 1.4499999993 0 
-9.4999999911 1.5 0 -9.4499999903 1.4499999993 0 -9.4499999903 1.5 0 
-9.3999999896 1.4499999993 0 -9.3999999896 1.5 0 -9.3499999888 1.4499999993 0 
-9.3499999888 1.5 0 -9.2999999881 1.4499999993 0 -9.2999999881 1.5 0 
-9.2499999873 1.4499999993 0 -9.2499999873 1.5 0 -9.1999999866 1.4499999993 0 
-9.1999999866 1.5 0 -9.1499999858 1.4499999993 0 -9.1499999858 1.5 0 
-9.0999999851 1.4499999993 0 -9.0999999851 1.5 0 -9.0499999844 1.4499999993 0 
-9.0499999844 1.5 0 -8.9999999836 1.4499999993 0 -8.9999999836 1.5 0 
-8.9499999829 1.4499999993 0 -8.9499999829 1.5 0 -8.8999999821 1.4499999993 0 
-8.8999999821 1.5 0 -8.8499999814 1.4499999993 0 -8.8499999814 1.5 0 
-8.7999999806 1.4499999993 0 -8.7999999806 1.5 0 -8.7499999799 1.4499999993 0 
-8.7499999799 1.5 0 -8.6999999791 1.4499999993 0 -8.6999999791 1.5 0 
-8.6499999784 1.4499999993 0 -8.6499999784 1.5 0 -8.5999999776 1.4499999993 0 
-8.5999999776 1.5 0 -8.5499999769 1.4499999993 0 -8.5499999769 1.5 0 
-8.4999999762 1.4499999993 0 -8.4999999762 1.5 0 -8.4499999754 1.4499999993 0 
-8.4499999754 1.5 0 -8.3999999747 1.4499999993 0 -8.3999999747 1.5 0 
-8.3499999739 1.4499999993 0 -8.3499999739 1.5 0 -8.2999999732 1.4499999993 0 
-8.2999999732 1.5 0 -8.2499999724 1.4499999993 0 -8.2499999724 1.5 0 
-8.1999999717 1.4499999993 0 -8.1999999717 1.5 0 -8.1499999709 1.4499999993 0 
-8.1499999709 1.5 0 -8.0999999702 1.4499999993 0 -8.0999999702 1.5 0 
-8.0499999695 1.4499999993 0 -8.0499999695 1.5 0 -7.9999999687 1.4499999993 0 
-7.9999999687 1.5 0 -7.949999968 1.4499999993 0 -7.949999968 1.5 0 
-7.8999999672 1.4499999993 0 -7.8999999672 1.5 0 -7.8499999665 1.4499999993 0 
-7.8499999665 1.5 0 -7.7999999657 1.4499999993 0 -7.7999999657 1.5 0 
-7.749999965 1.4499999993 0 -7.749999965 1.5 0 -7.6999999642 1.4499999993 0 
-7.6999999642 1.5 0 -7.6499999635 1.4499999993 0 -7.6499999635 1.5 0 
-7.5999999627 1.4499999993 0 -7.5999999627 1.5 0 -7.549999962 1.4499999993 0 
-7.549999962 1.5 0 -7.4999999613 1.4499999993 0 -7.4999999613 1.5 0 
-7.4499999605 1.4499999993 0 -7.4499999605 1.5 0 -7.3999999598 1.4499999993 0 
-7.3999999598 1.5 0 -7.349999959 1.4499999993 0 -7.349999959 1.5 0 
-7.2999999583 1.4499999993 0 -7.2999999583 1.5 0 -7.2499999575 1.4499999993 0 
-7.2499999575 1.5 0 -7.1999999568 1.4499999993 0 -7.1999999568 1.5 0 
-7.149999956 1.4499999993 0 -7.149999956 1.5 0 -7.0999999553 1.4499999993 0 
-7.0999999553 1.5 0 -7.0499999546 1.4499999993 0 -7.0499999546 1.5 0 
-6.9999999538 1.4499999993 0 -6.9999999538 1.5 0 -6.9499999531 1.4499999993 0 
-6.9499999531 1.5 0 -6.8999999523 1.4499999993 0 -6.8999999523 1.5 0 
-6.8499999516 1.4499999993 0 -6.8499999516 1.5 0 -6.7999999508 1.4499999993 0 
-6.7999999508 1.5 0 -6.7499999501 1.4499999993 0 -6.7499999501 1.5 0 
-6.6999999493 1.4499999993 0 -6.6999999493 1.5 0 -6.6499999486 1.4499999993 0 
-6.6499999486 1.5 0 -6.5999999478 1.4499999993 0 -6.5999999478 1.5 0 
-6.5499999471 1.4499999993 0 -6.5499999471 1.5 0 -6.4999999464 1.4499999993 0 
-6.4999999464 1.5 0 -6.4499999456 1.4499999993 0 -6.4499999456 1.5 0 
-6.3999999449 1.4499999993 0 -6.3999999449 1.5 0 -6.3499999441 1.4499999993 0 
-6.3499999441 1.5 0 -6.2999999434 1.4499999993 0 -6.2999999434 1.5 0 
-6.2499999426 1.4499999993 0 -6.2499999426 1.5 0 -6.1999999419 1.4499999993 0 
-6.1999999419 1.5 0 -6.1499999411 1.4499999993 0 -6.1499999411 1.5 0 
-6.0999999404 1.4499999993 0 -6.0999999404 1.5 0 -6.0499999397 1.4499999993 0 
-6.0499999397 1.5 0 -5.9999999389 1.4499999993 0 -5.9999999389 1.5 0 
-5.9499999382 1.4499999993 0 -5.9499999382 1.5 0 -5.8999999374 1.4499999993 0 
-5.8999999374 1.5 0 -5.8499999367 1.4499999993 0 -5.8499999367 1.5 0 
-5.7999999359 1.4499999993 0 -5.7999999359 1.5 0 -5.7499999352 1.4499999993 0 
-5.7499999352 1.5 0 -5.6999999344 1.4499999993 0 -5.6999999344 1.5 0 
-5.6499999337 1.4499999993 0 -5.6499999337 1.5 0 -5.5999999329 1.4499999993 0 
-5.5999999329 1.5 0 -5.5499999322 1.4499999993 0 -5.5499999322 1.5 0 
-5.4999999315 1.4499999993 0 -5.4999999315 1.5 0 -5.4499999307 1.4499999993 0 
-5.4499999307 1.5 0 -5.39999993 1.4499999993 0 -5.39999993 1.5 0 
-5.3499999292 1.4499999993 0 -5.3499999292 1.5 0 -5.2999999285 1.4499999993 0 
-5.2999999285 1.5 0 -5.2499999277 1.4499999993 0 -5.2499999277 1.5 0 
-5.199999927 1.4499999993 0 -5.199999927 1.5 0 -5.1499999262 1.4499999993 0 
-5.1499999262 1.5 0 -5.0999999255 1.4499999993 0 -5.0999999255 1.5 0 
-5.0499999247 1.4499999993 0 -5.0499999247 1.5 0 -4.999999924 1.4499999993 0 
-4.999999924 1.5 0 -4.9499999233 1.4499999993 0 -4.9499999233 1.5 0 
-4.8999999225 1.4499999993 0 -4.8999999225 1.5 0 -4.8499999218 1.4499999993 0 
-4.8499999218 1.5 0 -4.799999921 1.4499999993 0 -4.799999921 1.5 0 
-4.7499999203 1.4499999993 0 -4.7499999203 1.5 0 -4.6999999195 1.4499999993 0 
-4.6999999195 1.5 0 -4.6499999188 1.4499999993 0 -4.6499999188 1.5 0 
-4.599999918 1.4499999993 0 -4.599999918 1.5 0 -4.5499999173 1.4499999993 0 
-4.5499999173 1.5 0 -4.4999999166 1.4499999993 0 -4.4999999166 1.5 0 
-4.4499999158 1.4499999993 0 -4.4499999158 1.5 0 -4.3999999151 1.4499999993 0 
-4.3999999151 1.5 0 -4.3499999143 1.4499999993 0 -4.3499999143 1.5 0 
-4.2999999136 1.4499999993 0 -4.2999999136 1.5 0 -4.2499999128 1.4499999993 0 
-4.2499999128 1.5 0 -4.1999999121 1.4499999993 0 -4.1999999121 1.5 0 
-4.1499999113 1.4499999993 0 -4.1499999113 1.5 0 -4.0999999106 1.4499999993 0 
-4.0999999106 1.5 0 -4.0499999098 1.4499999993 0 -4.0499999098 1.5 0 
-3.9999999091 1.4499999993 0 -3.9999999091 1.5 0 -3.9499999084 1.4499999993 0 
-3.9499999084 1.5 0 -3.8999999076 1.4499999993 0 -3.8999999076 1.5 0 
-3.8499999069 1.4499999993 0 -3.8499999069 1.5 0 -3.7999999061 1.4499999993 0 
-3.7999999061 1.5 0 -3.7499999054 1.4499999993 0 -3.7499999054 1.5 0 
-3.6999999046 1.4499999993 0 -3.6999999046 1.5 0 -3.6499999039 1.4499999993 0 
-3.6499999039 1.5 0 -3.5999999031 1.4499999993 0 -3.5999999031 1.5 0 
-3.5499999024 1.4499999993 0 -3.5499999024 1.5 0 -3.4999999017 1.4499999993 0 
-3.4999999017 1.5 0 -3.4499999009 1.4499999993 0 -3.4499999009 1.5 0 
-3.3999999002 1.4499999993 0 -3.3999999002 1.5 0 -3.3499998994 1.4499999993 0 
-3.3499998994 1.5 0 -3.2999998987 1.4499999993 0 -3.2999998987 1.5 0 
-3.2499998979 1.4499999993 0 -3.2499998979 1.5 0 -3.1999998972 1.4499999993 0 
-3.1999998972 1.5 0 -3.1499998964 1.4499999993 0 -3.1499998964 1.5 0 
-3.0999998957 1.4499999993 0 -3.0999998957 1.5 0 -3.0499998949 1.4499999993 0 
-3.0499998949 1.5 0 -2.9999998942 1.4499999993 0 -2.9999998942 1.5 0 
-2.9499998935 1.4499999993 0 -2.9499998935 1.5 0 -2.8999998927 1.4499999993 0 
-2.8999998927 1.5 0 -2.849999892 1.4499999993 0 -2.849999892 1.5 0 
-2.7999998912 1.4499999993 0 -2.7999998912 1.5 0 -2.7499998905 1.4499999993 0 
-2.7499998905 1.5 0 -2.6999998897 1.4499999993 0 -2.6999998897 1.5 0 
-2.649999889 1.4499999993 0 -2.649999889 1.5 0 -2.5999998882 1.4499999993 0 
-2.5999998882 1.5 0 -2.5499998875 1.4499999993 0 -2.5499998875 1.5 0 
-2.4999998868 1.4499999993 0 -2.4999998868 1.5 0 -2.449999886 1.4499999993 0 
-2.449999886 1.5 0 -2.3999998853 1.4499999993 0 -2.3999998853 1.5 0 
-2.3499998845 1.4499999993 0 -2.3499998845 1.5 0 -2.2999998838 1.4499999993 0 
-2.2999998838 1.5 0 -2.249999883 1.4499999993 0 -2.249999883 1.5 0 
-2.1999998823 1.4499999993 0 -2.1999998823 1.5 0 -2.1499998815 1.4499999993 0 
-2.1499998815 1.5 0 -2.0999998808 1.4499999993 0 -2.0999998808 1.5 0 
-2.04999988 1.4499999993 0 -2.04999988 1.5 0 -1.9999998793 1.4499999993 0 
-1.9999998793 1.5 0 -1.9499998786 1.4499999993 0 -1.9499998786 1.5 0 
-1.8999998778 1.4499999993 0 -1.8999998778 1.5 0 -1.8499998771 1.4499999993 0 
-1.8499998771 1.5 0 -1.7999998763 1.4499999993 0 -1.7999998763 1.5 0 
-1.7499998756 1.4499999993 0 -1.7499998756 1.5 0 -1.6999998748 1.4499999993 0 
-1.6999998748 1.5 0 -1.6499998741 1.4499999993 0 -1.6499998741 1.5 0 
-1.5999998733 1.4499999993 0 -1.5999998733 1.5 0 -1.5499998726 1.4499999993 0 
-1.5499998726 1.5 0 -1.4999998718 1.4499999993 0 -1.4999998718 1.5 0 
-1.4499998711 1.4499999993 0 -1.4499998711 1.5 0 -1.3999998704 1.4499999993 0 
-1.3999998704 1.5 0 -1.3499998696 1.4499999993 0 -1.3499998696 1.5 0 
-1.2999998689 1.4499999993 0 -1.2999998689 1.5 0 -1.2499998681 1.4499999993 0 
-1.2499998681 1.5 0 -1.1999998674 1.4499999993 0 -1.1999998674 1.5 0 
-1.1499998666 1.4499999993 0 -1.1499998666 1.5 0 -1.0999998659 1.4499999993 0 
-1.0999998659 1.5 0 -1.0499998651 1.4499999993 0 -1.0499998651 1.5 0 
-0.9999998644 1.4499999993 0 -0.9999998644 1.5 0 -0.94999986365 1.4499999993 0 
-0.94999986365 1.5 0 -0.89999986291 1.4499999993 0 -0.89999986291 1.5 0 
-0.84999986216 1.4499999993 0 -0.84999986216 1.5 0 -0.79999986142 1.4499999993 0 
-0.79999986142 1.5 0 -0.74999986067 1.4499999993 0 -0.74999986067 1.5 0 
-0.69999985993 1.4499999993 0 -0.69999985993 1.5 0 -0.64999985918 1.4499999993 0 
-0.64999985918 1.5 0 -0.59999985844 1.4499999993 0 -0.59999985844 1.5 0 
-0.54999985769 1.4499999993 0 -0.54999985769 1.5 0 -0.49999985695 1.4499999993 0 
-0.49999985695 1.5 0 -0.4499998562 1.4499999993 0 -0.4499998562 1.5 0 
-0.39999985546 1.4499999993 0 -0.39999985546 1.5 0 -0.34999985471 1.4499999993 0 
-0.34999985471 1.5 0 -0.29999985397 1.4499999993 0 -0.29999985397 1.5 0 
-0.24999985322 1.4499999993 0 -0.24999985322 1.5 0 -0.191663057 1.4499999993 0 
-0.17548248559 1.5 0 0.18862900414 1.4499999993 0 0.25000015423 1.4499999993 0 
[...]
CELL_DATA 9510
FIELD FieldData 4
Water_Depth_m 1 9510 float
0.344999 0.344996 0.344993 0.34499 0.344987 0.344984 0.344982 0.34498 0.344979 
0.344978 0.344979 0.34498 0.344982 0.344985 0.34499 0.344996 0.345004 0.345014 
0.345026 0.34504 0.345057 0.345076 0.345098 0.345123 0.345151 0.345182 0.345217 
0.345254 0.345295 0.345338 0.345385 0.345434 0.345486 0.34554 0.345596 0.345654 
0.345712 0.345772 0.345832 0.345891 0.34595 0.346008 0.346064 0.346118 0.346169 
0.346217 0.346262 0.346302 0.346338 0.346369 0.346394 0.346414 0.346427 0.346433 
0.346433 0.346425 0.34641 0.346386 0.346355 0.346315 0.346266 0.346209 0.346144 
0.346071 0.345991 0.345905 0.345814 0.345719 0.345621 0.345522 0.345423 0.345327 
0.345234 0.345145 0.345063 0.344988 0.34492 0.344861 0.344811 0.34477 0.344739 
0.344718 0.344707 0.344705 0.344713 0.34473 0.344755 0.344789 0.344829 0.344875 
0.344926 0.344982 0.345039 0.345099 0.345158 0.345216 0.345272 0.345324 0.345371 
0.345412 0.345446 0.345472 0.345488 0.345495 0.345491 0.345475 0.345449 0.34541 
0.34536 0.345298 0.345225 0.345142 0.345049 0.344948 0.344841 0.34473 0.344618 
0.344508 0.344401 0.344301 0.344211 0.344133 0.344068 0.344019 0.343986 0.343969 
0.343969 0.343984 0.344014 0.344055 0.344106 0.344165 0.344228 0.344294 0.344361 
0.344425 0.344486 0.344542 0.344592 0.344635 0.34467 0.344698 0.34472 0.344735 
0.344744 0.344748 0.344749 0.344747 0.344744 0.34474 0.344737 0.344735 0.344735 
0.344737 0.344741 0.344748 0.344757 0.344768 0.34478 0.344794 0.344808 0.344822 
0.344837 0.344852 0.344867 0.344883 0.344898 0.344915 0.344933 0.344951 0.344971 
0.344993 0.345017 0.345043 0.345072 0.345104 0.34514 0.34518 0.345225 0.345276 
0.345332 0.345397 0.34547 0.345553 0.345647 0.345753 0.345874 0.346011 0.346165 
0.346336 0.346528 0.346741 0.346975 0.347232 0.347507 0.347816 0.348129 0.348515 
0.351588 0.351922 0.352198 0.352453 0.352686 0.352899 0.353091 0.353264 0.353419 
0.353559 0.353683 0.353794 0.353892 0.35398 0.354058 0.354127 0.354189 0.354243 
0.354291 0.354334 0.354371 0.354405 0.354434 0.354459 0.354482 0.354502 0.354519 
0.354534 0.354547 0.354559 0.354568 0.354577 0.354584 0.35459 0.354594 0.354598 
0.354602 0.354604 0.354606 0.354607 0.354608 0.354609 0.354609 0.354608 0.354608 
0.354607 0.354606 0.354604 0.354603 0.354601 0.3546 0.354598 0.354596 0.354594 
0.354591 0.354589 0.354587 0.354585 0.354582 0.35458 0.354578 0.354575 0.354573 
0.354571 0.354568 0.354566 0.354564 0.354562 0.35456 0.354557 0.354555 0.354553 
0.354551 0.354549 0.354547 0.354545 0.354544 0.354542 0.35454 0.354538 0.354537 
0.354535 0.354534 0.354532 0.354531 0.354529 0.354528 0.354527 0.354525 0.354524 
0.354523 0.354522 0.354518 0.354504 0.354067 0.352017 0.348682 0.344999 0.344995 
0.344992 0.344989 0.344986 0.344984 0.344982 0.34498 0.344978 0.344978 0.344978 
0.344978 0.34498 0.344984 0.344988 0.344994 0.345002 0.345011 0.345023 0.345037 
0.345054 0.345073 0.345095 0.34512 0.345148 0.345179 0.345213 0.34525 0.345291 
0.345335 0.345381 0.345431 0.345483 0.345537 0.345594 0.345652 0.345711 0.345771 
0.345831 0.345891 0.34595 0.346009 0.346065 0.34612 0.346172 0.34622 0.346265 
0.346306 0.346343 0.346374 0.3464 0.34642 0.346433 0.34644 0.34644 0.346432 
0.346417 0.346393 0.346361 0.34632 0.346271 0.346213 0.346148 0.346074 0.345993 
0.345906 0.345813 0.345717 0.345618 0.345517 0.345418 0.34532 0.345227 0.345138 
0.345055 0.344979 0.344911 0.344852 0.344801 0.344761 0.34473 0.344708 0.344697 
0.344696 0.344704 0.344721 0.344747 0.344781 0.344822 0.344869 0.344921 0.344978 
0.345037 0.345097 0.345158 0.345218 0.345275 0.345328 0.345377 0.345419 0.345454 
0.34548 0.345498 0.345505 0.345501 0.345486 0.345459 0.345421 0.34537 0.345307 
0.345232 0.345147 0.345052 0.344949 0.34484 0.344727 0.344613 0.3445 0.344391 
0.344289 0.344197 0.344118 0.344052 0.344003 0.34397 0.343954 0.343955 0.343971 
0.344002 0.344045 0.344099 0.344159 0.344225 0.344293 0.344362 0.344428 0.34449 
0.344547 0.344598 0.344641 0.344677 0.344705 0.344726 0.34474 0.344748 0.344752 
0.344751 0.344748 0.344744 0.344739 0.344735 0.344733 0.344732 0.344734 0.344739 
0.344746 0.344755 0.344767 0.344779 0.344793 0.344807 0.344822 0.344837 0.344852 
0.344867 0.344882 0.344898 0.344914 0.344931 0.34495 0.34497 0.344991 0.345015 
0.34504 0.345069 0.345101 0.345136 0.345176 0.34522 0.345269 0.345325 0.345389 
0.34546 0.345542 0.345634 0.34574 0.345859 0.345993 0.346144 0.346314 0.346504 
0.346715 0.346947 0.347201 0.34748 0.347783 0.3481 0.348475 0.35159 0.351927 
0.352205 0.352462 0.352696 0.352909 0.353102 0.353275 0.35343 0.353568 0.353692 
0.353802 0.3539 0.353988 0.354065 0.354134 0.354194 0.354248 0.354296 0.354338 
0.354375 0.354408 0.354437 0.354462 0.354485 0.354504 0.354521 0.354536 0.354549 
0.35456 0.35457 0.354578 0.354585 0.354591 0.354595 0.354599 0.354602 0.354605 
0.354607 0.354608 0.354609 0.354609 0.354609 0.354609 0.354608 0.354607 0.354606 
0.354605 0.354603 0.354601 0.3546 0.354598 0.354596 0.354594 0.354591 0.354589 
0.354587 0.354585 0.354582 0.35458 0.354578 0.354575 0.354573 0.354571 0.354569 
0.354566 0.354564 0.354562 0.35456 0.354557 0.354555 0.354553 0.354551 0.354549 
0.354547 0.354545 0.354544 0.354542 0.35454 0.354538 0.354537 0.354535 0.354534 
0.354532 0.354531 0.354529 0.354528 0.354527 0.354525 0.354524 0.354523 0.354522 
0.354518 0.354504 0.354067 0.352017 0.348682 0.344998 0.344995 0.344992 0.344989 
0.344986 0.344983 0.34498 0.344978 0.344977 0.344976 0.344976 0.344976 0.344978 
0.344981 0.344985 0.34499 0.344998 0.345007 0.345018 0.345032 0.345048 0.345067 
0.345088 0.345113 0.345141 0.345172 0.345206 0.345243 0.345284 0.345328 0.345375 
0.345424 0.345477 0.345532 0.345589 0.345647 0.345707 0.345768 0.345829 0.34589 
0.345951 0.34601 0.346068 0.346124 0.346177 0.346227 0.346273 0.346315 0.346352 
0.346384 0.346411 0.346431 0.346446 0.346453 0.346453 0.346445 0.34643 0.346406 
0.346373 0.346332 0.346281 0.346222 0.346155 0.346079 0.345996 0.345907 0.345812 
0.345713 0.345611 0.345509 0.345407 0.345308 0.345212 0.345122 0.345038 0.344961 
0.344893 0.344833 0.344782 0.344741 0.34471 0.344689 0.344678 0.344677 0.344686 
0.344704 0.344731 0.344766 0.344808 0.344857 0.344911 0.34497 0.345031 0.345094 
0.345158 0.34522 0.34528 0.345336 0.345388 0.345432 0.345469 0.345498 0.345517 
0.345525 0.345522 0.345507 0.34548 0.345441 0.345388 0.345324 0.345246 0.345158 
0.345059 0.344952 0.344838 0.344721 0.344601 0.344483 0.34437 0.344264 0.344169 
0.344087 0.34402 0.34397 0.343937 0.343922 0.343925 0.343944 0.343979 0.344026 
0.344083 0.344149 0.344219 0.344292 0.344364 0.344434 0.344499 0.344558 0.344611 
0.344655 0.344691 0.344718 0.344738 0.344751 0.344757 0.344759 0.344756 0.344751 
0.344744 0.344738 0.344732 0.344729 0.344727 0.344729 0.344734 0.344741 0.344752 
0.344764 0.344777 0.344792 0.344806 0.344822 0.344837 0.344851 0.344866 0.344881 
0.344896 0.344912 0.344929 0.344947 0.344966 0.344987 0.34501 0.345035 0.345063 
0.345094 0.345128 0.345167 0.345209 0.345257 0.345311 0.345372 0.345441 0.34552 
0.345609 0.345711 0.345826 0.345957 0.346104 0.34627 0.346456 0.346662 0.346891 
0.347144 0.347422 0.347722 0.348038 0.348415 0.351595 0.351938 0.352221 0.35248 
0.352717 0.352931 0.353123 0.353296 0.353451 0.353588 0.353711 0.35382 0.353917 
0.354003 0.354079 0.354146 0.354206 0.354259 0.354305 0.354347 0.354383 0.354415 
0.354443 0.354468 0.35449 0.354509 0.354525 0.35454 0.354552 0.354563 0.354572 
0.35458 0.354587 0.354593 0.354597 0.354601 0.354604 0.354606 0.354608 0.354609 
0.35461 0.35461 0.35461 0.354609 0.354609 0.354608 0.354607 0.354605 0.354604 
0.354602 0.3546 0.354598 0.354596 0.354594 0.354592 0.354589 0.354587 0.354585 
0.354583 0.35458 0.354578 0.354576 0.354573 0.354571 0.354569 0.354566 0.354564 
0.354562 0.35456 0.354558 0.354555 0.354553 0.354551 0.354549 0.354547 0.354545 
0.354544 0.354542 0.35454 0.354538 0.354537 0.354535 0.354534 0.354532 0.354531 
0.354529 0.354528 0.354527 0.354525 0.354524 0.354523 0.354522 0.354518 0.354504 
0.354067 0.352017 0.348682 0.344998 0.344995 0.344991 0.344988 0.344985 0.344982 
0.344979 0.344976 0.344975 0.344973 0.344973 0.344973 0.344974 0.344976 0.34498 
0.344985 0.344992 0.345 0.345011 0.345024 0.34504 0.345058 0.345079 0.345103 
0.34513 0.345161 0.345195 0.345232 0.345273 0.345317 0.345364 0.345414 0.345467 
0.345523 0.345581 0.345641 0.345702 0.345764 0.345827 0.345889 0.345952 0.346013 
0.346072 0.34613 0.346184 0.346236 0.346284 0.346327 0.346366 0.3464 0.346428 
0.346449 0.346464 0.346472 0.346473 0.346465 0.34645 0.346425 0.346392 0.346349 
0.346297 0.346236 0.346166 0.346087 0.346001 0.345908 0.345809 0.345706 0.345601 
0.345495 0.34539 0.345288 0.34519 0.345098 0.345012 0.344934 0.344865 0.344805 
0.344754 0.344713 0.344681 0.34466 0.344649 0.344649 0.344658 0.344677 0.344705 
0.344742 0.344787 0.344838 0.344896 0.344957 0.345022 0.34509 0.345157 0.345224 
0.345288 0.345349 0.345404 0.345452 0.345493 0.345524 0.345546 0.345556 0.345554 
0.34554 0.345512 0.345472 0.345417 0.345349 0.345268 0.345175 0.34507 0.344957 
0.344836 0.34471 0.344583 0.344458 0.344338 0.344226 0.344126 0.34404 0.34397 
0.343919 0.343886 0.343873 0.343879 0.343903 0.343943 0.343996 0.34406 0.344132 
0.34421 0.344289 0.344368 0.344443 0.344513 0.344576 0.34463 0.344676 0.344712 
0.344739 0.344757 0.344767 0.344771 0.344769 0.344763 0.344754 0.344745 0.344735 
0.344727 0.344722 0.34472 0.344721 0.344726 0.344735 0.344746 0.344759 0.344774 
0.34479 0.344805 0.344821 0.344836 0.344851 0.344866 0.34488 0.344895 0.34491 
0.344926 0.344943 0.344961 0.344981 0.345004 0.345028 0.345055 0.345084 0.345117 
0.345153 0.345194 0.345239 0.34529 0.345348 0.345413 0.345487 0.345572 0.345668 
0.345778 0.345903 0.346044 0.346204 0.346383 0.346584 0.346808 0.347056 0.347331 
0.347629 0.347945 0.348323 0.351603 0.351955 0.352244 0.352508 0.352748 0.352963 
0.353156 0.353329 0.353482 0.353618 0.353739 0.353846 0.353941 0.354025 0.354099 
0.354165 0.354223 0.354274 0.354319 0.354359 0.354394 0.354425 0.354453 0.354477 
0.354497 0.354516 0.354532 0.354545 0.354557 0.354568 0.354576 0.354584 0.35459 
0.354596 0.3546 0.354603 0.354606 0.354608 0.35461 0.354611 0.354611 0.354611 
0.354611 0.354611 0.35461 0.354609 0.354607 0.354606 0.354604 0.354602 0.3546 
0.354598 0.354596 0.354594 0.354592 0.35459 0.354587 0.354585 0.354583 0.35458 
0.354578 0.354576 0.354573 0.354571 0.354569 0.354566 0.354564 0.354562 0.35456 
0.354558 0.354555 0.354553 0.354551 0.354549 0.354547 0.354545 0.354544 0.354542 
0.35454 0.354538 0.354537 0.354535 0.354534 0.354532 0.354531 0.354529 0.354528 
0.354527 0.354525 0.354524 0.354523 0.354522 0.354518 0.354504 0.354067 0.352017 
0.348682 0.344998 0.344994 0.344991 0.344987 0.344983 0.34498 0.344977 0.344974 
0.344972 0.34497 0.344969 0.344968 0.344969 0.344971 0.344973 0.344978 0.344984 
0.344991 0.345001 0.345013 0.345028 0.345046 0.345066 0.345089 0.345116 0.345146 
0.34518 0.345217 0.345258 0.345302 0.34535 0.345401 0.345455 0.345511 0.34557 
0.345632 0.345694 0.345758 0.345823 0.345888 0.345952 0.346016 0.346077 0.346137 
0.346194 0.346248 0.346298 0.346344 0.346385 0.34642 0.34645 0.346473 0.346489 
0.346498 0.346499 0.346492 0.346476 0.346451 0.346416 0.346372 0.346318 0.346254 
0.34618 0.346098 0.346007 0.345909 0.345805 0.345697 0.345587 0.345476 0.345367 
0.345261 0.34516 0.345065 0.344977 0.344898 0.344828 0.344767 0.344715 0.344674 
0.344643 0.344622 0.344611 0.344611 0.344621 0.344641 0.344671 0.344711 0.344758 
0.344813 0.344874 0.34494 0.34501 0.345083 0.345156 0.345228 0.345298 0.345364 
0.345425 0.345479 0.345524 0.34556 0.345584 0.345597 0.345597 0.345583 0.345555 
0.345513 0.345456 0.345384 0.345297 0.345197 0.345085 0.344963 0.344832 0.344696 
0.344559 0.344423 0.344293 0.344173 0.344065 0.343974 0.343901 0.343848 0.343817 
0.343806 0.343816 0.343846 0.343893 0.343955 0.344029 0.344111 0.344198 0.344287 
0.344374 0.344457 0.344533 0.3446 0.344658 0.344705 0.344742 0.344767 0.344783 
0.34479 0.34479 0.344783 0.344772 0.344759 0.344744 0.344731 0.34472 0.344712 
0.344708 0.34471 0.344715 0.344725 0.344738 0.344753 0.34477 0.344787 0.344804 
0.344821 0.344836 0.344851 0.344865 0.344879 0.344892 0.344906 0.344921 0.344937 
0.344955 0.344974 0.344995 0.345018 0.345044 0.345072 0.345102 0.345136 0.345174 
0.345216 0.345263 0.345316 0.345376 0.345444 0.345523 0.345612 0.345714 0.345831 
0.345964 0.346115 0.346287 0.346479 0.346695 0.346936 0.347207 0.347501 0.347816 
0.348197 0.351614 0.35198 0.352278 0.352548 0.352791 0.353009 0.353202 0.353373 
0.353524 0.353658 0.353777 0.353881 0.353973 0.354055 0.354126 0.35419 0.354246 
0.354295 0.354338 0.354376 0.35441 0.354439 0.354465 0.354488 0.354508 0.354525 
0.35454 0.354553 0.354564 0.354574 0.354582 0.354589 0.354595 0.354599 0.354603 
0.354607 0.354609 0.354611 0.354612 0.354613 0.354613 0.354613 0.354613 0.354612 
0.354611 0.35461 0.354608 0.354607 0.354605 0.354603 0.354601 0.354599 0.354597 
0.354595 0.354592 0.35459 0.354588 0.354585 0.354583 0.354581 0.354578 0.354576 
0.354574 0.354571 0.354569 0.354567 0.354564 0.354562 0.35456 0.354558 0.354556 
0.354553 0.354551 0.354549 0.354547 0.354546 0.354544 0.354542 0.35454 0.354538 
0.354537 0.354535 0.354534 0.354532 0.354531 0.354529 0.354528 0.354527 0.354525 
0.354524 0.354523 0.354522 0.354518 0.354504 0.354067 0.352017 0.348682 0.344998 
0.344994 0.34499 0.344986 0.344982 0.344978 0.344974 0.344971 0.344968 0.344966 
0.344964 0.344963 0.344963 0.344964 0.344966 0.344969 0.344974 0.344981 0.344989 
0.345001 0.345014 0.345031 0.34505 0.345072 0.345098 0.345128 0.345161 0.345198 
0.345239 0.345283 0.345331 0.345383 0.345438 0.345496 0.345557 0.34562 0.345685 
0.345751 0.345818 0.345885 0.345952 0.346019 0.346083 0.346146 0.346206 0.346263 
0.346316 0.346364 0.346407 0.346445 0.346477 0.346502 0.346519 0.34653 0.346532 
0.346525 0.346509 0.346483 0.346447 0.346401 0.346344 0.346276 0.346199 0.346111 
0.346015 0.34591 0.3458 0.345685 0.345568 0.345451 0.345337 0.345226 0.345121 
0.345023 0.344933 0.344852 0.344781 0.344719 0.344667 0.344626 0.344594 0.344573 
0.344562 0.344563 0.344574 0.344596 0.344628 0.34467 0.344721 0.34478 0.344846 
0.344918 0.344994 0.345073 0.345153 0.345233 0.34531 0.345384 0.345451 0.345512 
0.345563 0.345604 0.345633 0.345649 0.345651 0.345638 0.34561 0.345565 0.345505 
0.345428 0.345335 0.345226 0.345104 0.34497 0.344827 0.344677 0.344526 0.344377 
0.344235 0.344103 0.343987 0.343888 0.343811 0.343757 0.343726 0.343719 0.343735 
0.343773 0.343829 0.343902 0.343989 0.344084 0.344184 0.344285 0.344383 0.344476 
0.34456 0.344633 0.344695 0.344744 0.344781 0.344805 0.344818 0.34482 0.344814 
0.344801 0.344784 0.344763 0.344743 0.344724 0.344708 0.344698 0.344693 0.344694 
0.344701 0.344712 0.344728 0.344746 0.344765 0.344785 0.344804 0.344821 0.344837 
0.344852 0.344865 0.344877 0.34489 0.344902 0.344916 0.34493 0.344947 0.344965 
0.344984 0.345006 0.34503 0.345056 0.345085 0.345116 0.34515 0.345188 0.34523 
0.345277 0.345331 0.345392 0.345462 0.345543 0.345636 0.345742 0.345865 0.346005 
0.346165 0.346347 0.346553 0.346784 0.347047 0.347334 0.347647 0.348031 0.351631 
0.352015 0.352324 0.352601 0.352848 0.353067 0.35326 0.353429 0.353578 0.353709 
0.353824 0.353925 0.354014 0.354092 0.35416 0.354221 0.354273 0.35432 0.354361 
0.354397 0.354428 0.354456 0.35448 0.354501 0.35452 0.354536 0.35455 0.354562 
0.354572 0.354581 0.354588 0.354595 0.3546 0.354604 0.354608 0.35461 0.354612 
0.354614 0.354615 0.354615 0.354615 0.354615 0.354614 0.354614 0.354612 0.354611 
0.35461 0.354608 0.354606 0.354604 0.354602 0.3546 0.354598 0.354595 0.354593 
0.354591 0.354588 0.354586 0.354583 0.354581 0.354579 0.354576 0.354574 0.354571 
0.354569 0.354567 0.354564 0.354562 0.35456 0.354558 0.354556 0.354554 0.354551 
0.354549 0.354547 0.354546 0.354544 0.354542 0.35454 0.354538 0.354537 0.354535 
0.354534 0.354532 0.354531 0.354529 0.354528 0.354527 0.354525 0.354524 0.354523 
0.354522 0.354518 0.354504 0.354067 0.352017 0.348682 0.344998 0.344993 0.344989 
0.344985 0.34498 0.344976 0.344972 0.344968 0.344964 0.344961 0.344959 0.344957 
0.344956 0.344956 0.344956 0.344959 0.344962 0.344968 0.344975 0.344985 0.344997 
0.345013 0.345031 0.345052 0.345077 0.345106 0.345139 0.345175 0.345216 0.34526 
0.345309 0.345362 0.345418 0.345477 0.34554 0.345605 0.345672 0.345741 0.345811 
0.345882 0.345952 0.346022 0.34609 0.346156 0.346219 0.34628 0.346336 0.346387 
0.346434 0.346474 0.346509 0.346536 0.346555 0.346567 0.34657 0.346564 0.346548 
0.346522 0.346484 0.346436 0.346375 0.346304 0.346221 0.346127 0.346023 0.345911 
0.345792 0.345669 0.345544 0.34542 0.345298 0.345182 0.345072 0.344971 0.344879 
0.344796 0.344724 0.344662 0.34461 0.344568 0.344536 0.344515 0.344504 0.344505 
0.344517 0.344541 0.344576 0.344621 0.344676 0.34474 0.344811 0.34489 0.344973 
0.34506 0.345149 0.345237 0.345323 0.345406 0.345482 0.345551 0.345609 0.345657 
0.345691 0.345711 0.345716 0.345704 0.345676 0.345629 0.345565 0.345482 0.34538 
0.345262 0.345127 0.344979 0.34482 0.344654 0.344485 0.344319 0.34416 0.344014 
0.343886 0.34378 0.343697 0.343641 0.343612 0.34361 0.343634 0.343681 0.34375 
0.343837 0.343939 0.344051 0.344167 0.344284 0.344397 0.344501 0.344595 0.344676 
0.344743 0.344794 0.344831 0.344853 0.344861 0.344858 0.344845 0.344823 0.344797 
0.344768 0.34474 0.344714 0.344693 0.344678 0.344671 0.344673 0.344681 0.344696 
0.344715 0.344737 0.344761 0.344783 0.344805 0.344823 0.344839 0.344853 0.344865 
0.344876 0.344887 0.344897 0.344909 0.344922 0.344937 0.344954 0.344972 0.344993 
0.345015 0.345039 0.345065 0.345093 0.345123 0.345156 0.345192 0.345233 0.345279 
0.345332 0.345392 0.345462 0.345544 0.345638 0.345747 0.345874 0.34602 0.346188 
0.34638 0.346598 0.346849 0.347126 0.347433 0.347818 0.351656 0.352061 0.352383 
0.352669 0.35292 0.35314 0.353331 0.353498 0.353644 0.35377 0.353881 0.353977 
0.354062 0.354136 0.3542 0.354257 0.354306 0.35435 0.354388 0.354421 0.35445 
0.354476 0.354498 0.354518 0.354534 0.354549 0.354562 0.354573 0.354582 0.35459 
0.354596 0.354602 0.354606 0.35461 0.354613 0.354615 0.354617 0.354618 0.354618 
0.354618 0.354618 0.354618 0.354617 0.354616 0.354614 0.354613 0.354611 0.354609 
0.354607 0.354605 0.354603 0.354601 0.354598 0.354596 0.354594 0.354591 0.354589 
0.354586 0.354584 0.354581 0.354579 0.354576 0.354574 0.354572 0.354569 0.354567 
0.354565 0.354562 0.35456 0.354558 0.354556 0.354554 0.354552 0.354549 0.354548 
0.354546 0.354544 0.354542 0.35454 0.354538 0.354537 0.354535 0.354534 0.354532 
0.354531 0.354529 0.354528 0.354527 0.354525 0.354524 0.354523 0.354522 0.354518 
0.354504 0.354067 0.352017 0.348682 0.344998 0.344993 0.344988 0.344983 0.344978 
0.344974 0.344969 0.344964 0.34496 0.344957 0.344953 0.34495 0.344948 0.344947 
0.344946 0.344947 0.34495 0.344954 0.344959 0.344968 0.344978 0.344992 0.345009 
0.345029 0.345053 0.34508 0.345112 0.345148 0.345189 0.345234 0.345283 0.345336 
0.345393 0.345455 0.345519 0.345587 0.345657 0.345729 0.345802 0.345876 0.34595 
0.346024 0.346096 0.346166 0.346234 0.346298 0.346358 0.346414 0.346464 0.346507 
0.346545 0.346575 0.346596 0.34661 0.346614 0.346609 0.346593 0.346566 0.346527 
0.346476 0.346412 0.346335 0.346246 0.346145 0.346032 0.345911 0.345782 0.345649 
0.345514 0.34538 0.345251 0.345128 0.345014 0.344909 0.344815 0.344731 0.344658 
0.344596 0.344543 0.344501 0.34447 0.344448 0.344437 0.344438 0.344451 0.344477 
0.344514 0.344562 0.344621 0.344691 0.344769 0.344855 0.344947 0.345043 0.345142 
0.34524 0.345337 0.34543 0.345517 0.345595 0.345662 0.345718 0.345759 0.345784 
0.345792 0.345782 0.345753 0.345705 0.345636 0.345546 0.345435 0.345304 0.345155 
0.34499 0.344811 0.344624 0.344433 0.344245 0.344067 0.343904 0.343761 0.343645 
0.343557 0.343499 0.343473 0.343477 0.34351 0.34357 0.343653 0.343758 0.34388 
0.344012 0.344149 0.344286 0.344416 0.344535 0.344641 0.344731 0.344802 0.344856 
0.344892 0.344911 0.344915 0.344904 0.344881 0.34485 0.344812 0.344772 0.344733 