# vtk DataFile Version 5.1
vtk output
ASCII
DATASET UNSTRUCTURED_GRID
POINTS 10043 double
-10.1 1.4499999993 -6.5110748437e-07 -10.049999999 1.4499999993 -4.742580586e-07 -10.049999999 1.5 1.7679119537e-06 
-9.9999999985 1.4499999993 -4.035521215e-07 -9.9999999985 1.5 1.5303246528e-06 -9.9499999978 1.4499999993 -3.6664664549e-07 
-9.9499999978 1.5 1.3956757812e-06 -9.899999997 1.4499999993 -3.4299978324e-07 -9.899999997 1.5 1.3077440144e-06 
-9.8499999963 1.4499999993 -3.2643606573e-07 -9.8499999963 1.5 1.2454199805e-06 -9.7999999955 1.4499999993 -3.1417971513e-07 
-9.7999999955 1.5 1.1994832221e-06 -9.7499999948 1.4499999993 -3.0487740332e-07 -9.7499999948 1.5 1.1643348898e-06 
-9.699999994 1.4499999993 -2.9767784326e-07 -9.699999994 1.5 1.1368626929e-06 -9.6499999933 1.4499999993 -2.9196075957e-07 
-9.6499999933 1.5 1.1152694697e-06 -9.5999999925 1.4499999993 -2.8744966585e-07 -9.5999999925 1.5 1.0980974139e-06 
-9.5499999918 1.4499999993 -2.8384442885e-07 -9.5499999918 1.5 1.084492169e-06 -9.4999999911 1.4499999993 -2.8108138395e-07 
-9.4999999911 1.5 1.0737182947e-06 -9.4499999903 1.4499999993 -2.7887858778e-07 -9.4499999903 1.5 1.065432798e-06 
-9.3999999896 1.4499999993 -2.7716146178e-07 -9.3999999896 1.5 1.0590517832e-06 -9.3499999888 1.4499999993 -2.7598093766e-07 
-9.3499999888 1.5 1.0543515145e-06 -9.2999999881 1.4499999993 -2.7515329748e-07 -9.2999999881 1.5 1.0511701021e-06 
-9.2499999873 1.4499999993 -2.7466580832e-07 -9.2499999873 1.5 1.0493238278e-06 -9.1999999866 1.4499999993 -2.7437295103e-07 
-9.1999999866 1.5 1.0485216535e-06 -9.1499999858 1.4499999993 -2.7442388273e-07 -9.1499999858 1.5 1.048774493e-06 
-9.0999999851 1.4499999993 -2.7480405151e-07 -9.0999999851 1.5 1.0498367828e-06 -9.0499999844 1.4499999993 -2.7528062674e-07 
-9.0499999844 1.5 1.0519904663e-06 -8.9999999836 1.4499999993 -2.7602095543e-07 -8.9999999836 1.5 1.0547626061e-06 
-8.9499999829 1.4499999993 -2.7695955396e-07 -8.9499999829 1.5 1.0582023151e-06 -8.8999999821 1.4499999993 -2.7799637792e-07 
-8.8999999821 1.5 1.062340516e-06 -8.8499999814 1.4499999993 -2.7923329071e-07 -8.8499999814 1.5 1.0671772088e-06 
-8.7999999806 1.4499999993 -2.8065028346e-07 -8.7999999806 1.5 1.0724395452e-06 -8.7499999799 1.4499999993 -2.8220915738e-07 
-8.7499999799 1.5 1.078471314e-06 -8.6999999791 1.4499999993 -2.8303134059e-07 -8.6999999791 1.5 1.0816945633e-06 
-8.6499999784 1.4499999993 -2.8484123504e-07 -8.6499999784 1.5 1.0884848507e-06 -8.5999999776 1.4499999993 -2.8673844099e-07 
-8.5999999776 1.5 1.0957735412e-06 -8.5499999769 1.4499999993 -2.8880026548e-07 -8.5499999769 1.5 1.1035178886e-06 
-8.4999999762 1.4499999993 -2.9096577236e-07 -8.4999999762 1.5 1.1117933809e-06 -8.4499999754 1.4499999993 -2.9324132811e-07 
-8.4499999754 1.5 1.1205809187e-06 -8.3999999747 1.4499999993 -2.9567786441e-07 -8.3999999747 1.5 1.1297249785e-06 
-8.3499999739 1.4499999993 -2.9820262171e-07 -8.3499999739 1.5 1.1394256489e-06 -8.2999999732 1.4499999993 -3.0080650504e-07 
-8.2999999732 1.5 1.1496074421e-06 -8.2499999724 1.4499999993 -3.0361775316e-07 -8.2499999724 1.5 1.1601848655e-06 
-8.1999999717 1.4499999993 -3.0648629945e-07 -8.1999999717 1.5 1.1712370451e-06 -8.1499999709 1.4499999993 -3.0947944651e-07 
-8.1499999709 1.5 1.1827439721e-06 -8.0999999702 1.4499999993 -3.1259810385e-07 -8.0999999702 1.5 1.1947211078e-06 
-8.0499999695 1.4499999993 -3.1591321203e-07 -8.0499999695 1.5 1.2071129731e-06 -7.9999999687 1.4499999993 -3.19266519e-07 
-7.9999999687 1.5 1.2200305264e-06 -7.949999968 1.4499999993 -3.2275534068e-07 -7.949999968 1.5 1.2334264738e-06 
-7.8999999672 1.4499999993 -3.2638240555e-07 -7.8999999672 1.5 1.2472471553e-06 -7.8499999665 1.4499999993 -3.3012861422e-07 
-7.8499999665 1.5 1.2616045524e-06 -7.7999999657 1.4499999993 -3.3401397559e-07 -7.7999999657 1.5 1.2764364783e-06 
-7.749999965 1.4499999993 -3.3799665289e-07 -7.749999965 1.5 1.2917814729e-06 -7.6999999642 1.4499999993 -3.4214758671e-07 
-7.6999999642 1.5 1.3075584775e-06 -7.6499999635 1.4499999993 -3.4645495361e-07 -7.6499999635 1.5 1.3239803138e-06 
-7.5999999627 1.4499999993 -3.5084690353e-07 -7.5999999627 1.5 1.3407868664e-06 -7.549999962 1.4499999993 -3.5546349864e-07 
-7.549999962 1.5 1.3582655356e-06 -7.4999999613 1.4499999993 -3.6018104765e-07 -7.4999999613 1.5 1.376303544e-06 
-7.4499999605 1.4499999993 -3.6505957723e-07 -7.4499999605 1.5 1.3948972537e-06 -7.3999999598 1.4499999993 -3.7002450881e-07 
-7.3999999598 1.5 1.4140202893e-06 -7.349999959 1.4499999993 -3.7520044316e-07 -7.349999959 1.5 1.4338718302e-06 
-7.2999999583 1.4499999993 -3.8055918594e-07 -7.2999999583 1.5 1.4542872577e-06 -7.2499999575 1.4499999993 -3.8607890929e-07 
-7.2499999575 1.5 1.475349336e-06 -7.1999999568 1.4499999993 -3.9182418732e-07 -7.1999999568 1.5 1.4971562905e-06 
-7.149999956 1.4499999993 -3.9767678572e-07 -7.149999956 1.5 1.5195507785e-06 -7.0999999553 1.4499999993 -4.0066356632e-07 
-7.0999999553 1.5 1.5310176877e-06 -7.0499999546 1.4499999993 -4.0681811697e-07 -7.0499999546 1.5 1.5546127088e-06 
-6.9999999538 1.4499999993 -4.1320640776e-07 -6.9999999538 1.5 1.578864385e-06 -6.9499999531 1.4499999993 -4.1973021325e-07 
-6.9499999531 1.5 1.6039928141e-06 -6.8999999523 1.4499999993 -4.2655142352e-07 -6.8999999523 1.5 1.6298988612e-06 
-6.8499999516 1.4499999993 -4.3358090807e-07 -6.8499999516 1.5 1.6566116301e-06 -6.7999999508 1.4499999993 -4.4074954531e-07 
-6.7999999508 1.5 1.6843084722e-06 -6.7499999501 1.4499999993 -4.4825105761e-07 -6.7499999501 1.5 1.7128643321e-06 
-6.6999999493 1.4499999993 -4.5597448661e-07 -6.6999999493 1.5 1.7424297312e-06 -6.6499999486 1.4499999993 -4.6396485232e-07 
-6.6499999486 1.5 1.7729564661e-06 -6.5999999478 1.4499999993 -4.7226171773e-07 -6.5999999478 1.5 1.8045377601e-06 
-6.5499999471 1.4499999993 -4.8081324167e-07 -6.5499999471 1.5 1.837251375e-06 -6.4999999464 1.4499999993 -4.8966717259e-07 
-6.4999999464 1.5 1.8710959466e-06 -6.4499999456 1.4499999993 -4.9884579312e-07 -6.4499999456 1.5 1.906130592e-06 
-6.3999999449 1.4499999993 -5.0834864851e-07 -6.3999999449 1.5 1.9424294351e-06 -6.3499999441 1.4499999993 -5.1820029512e-07 
-6.3499999441 1.5 1.9800402242e-06 -6.2999999434 1.4499999993 -5.2840118769e-07 -6.2999999434 1.5 2.0190702799e-06 
-6.2499999426 1.4499999993 -5.3899043451e-07 -6.2499999426 1.5 2.0595432488e-06 -6.1999999419 1.4499999993 -5.5000532484e-07 
-6.1999999419 1.5 2.1015418952e-06 -6.1499999411 1.4499999993 -5.6141448113e-07 -6.1499999411 1.5 2.1452076453e-06 
-6.0999999404 1.4499999993 -5.7329748415e-07 -6.0999999404 1.5 2.1905323138e-06 -6.0499999397 1.4499999993 -5.8564523897e-07 
-6.0499999397 1.5 2.2376837023e-06 -5.9999999389 1.4499999993 -5.9848593992e-07 -5.9999999389 1.5 2.2867909593e-06 
-5.9499999382 1.4499999993 -6.1184687183e-07 -5.9499999382 1.5 2.3378609058e-06 -5.8999999374 1.4499999993 -6.2579488258e-07 
-5.8999999374 1.5 2.3911131848e-06 -5.8499999367 1.4499999993 -6.4033088165e-07 -5.8499999367 1.5 2.4466351078e-06 
-5.7999999359 1.4499999993 -6.5552035267e-07 -5.7999999359 1.5 2.5046058454e-06 -5.7499999352 1.4499999993 -6.7138785198e-07 
-5.7499999352 1.5 2.5651422675e-06 -5.6999999344 1.4499999993 -6.8796202868e-07 -5.6999999344 1.5 2.6284953947e-06 
-5.6499999337 1.4499999993 -7.052865385e-07 -5.6499999337 1.5 2.6947529932e-06 -5.5999999329 1.4499999993 -7.2349553193e-07 
-5.5999999329 1.5 2.7641897304e-06 -5.5499999322 1.4499999993 -7.3291926128e-07 -5.5499999322 1.5 2.8001702503e-06 
-5.4999999315 1.4499999993 -7.5245293374e-07 -5.4999999315 1.5 2.8747879242e-06 -5.4499999307 1.4499999993 -7.7296976997e-07 
-5.4499999307 1.5 2.9531895507e-06 -5.39999993 1.4499999993 -7.9458595792e-07 -5.39999993 1.5 3.0356638945e-06 
-5.3499999292 1.4499999993 -8.173299193e-07 -5.3499999292 1.5 3.1225681596e-06 -5.2999999285 1.4499999993 -8.413278465e-07 
-5.2999999285 1.5 3.2142240798e-06 -5.2499999277 1.4499999993 -8.6668546828e-07 -5.2499999277 1.5 3.3110475215e-06 
-5.199999927 1.4499999993 -8.9354170996e-07 -5.199999927 1.5 3.4135091482e-06 -5.1499999262 1.4499999993 -9.2199002211e-07 
-5.1499999262 1.5 3.5221303278e-06 -5.0999999255 1.4499999993 -9.5219229479e-07 -5.0999999255 1.5 3.6374453884e-06 
-5.0499999247 1.4499999993 -9.8431746665e-07 -5.0499999247 1.5 3.7601485019e-06 -4.999999924 1.4499999993 -1.0185947303e-06 
-4.999999924 1.5 3.8909161049e-06 -4.9499999233 1.4499999993 -1.0551846117e-06 -4.9499999233 1.5 4.0306472329e-06 
-4.8999999225 1.4499999993 -1.0943685993e-06 -4.8999999225 1.5 4.1802341002e-06 -4.8499999218 1.4499999993 -1.1364654711e-06 
-4.8499999218 1.5 4.3407562771e-06 -4.799999921 1.4499999993 -1.1817196537e-06 -4.799999921 1.5 4.5135006985e-06 
-4.7499999203 1.4499999993 -1.2305599739e-06 -4.7499999203 1.5 4.6998593461e-06 -4.6999999195 1.4499999993 -1.283410711e-06 
-4.6999999195 1.5 4.9014583965e-06 -4.6499999188 1.4499999993 -1.3407670849e-06 -4.6499999188 1.5 5.1202009672e-06 
-4.599999918 1.4499999993 -1.4031663795e-06 -4.599999918 1.5 5.3582434703e-06 -4.5499999173 1.4499999993 -1.4712975371e-06 
-4.5499999173 1.5 5.6180747379e-06 -4.4999999166 1.4499999993 -1.5458783764e-06 -4.4999999166 1.5 5.9025178416e-06 
-4.4499999158 1.4499999993 -1.627789743e-06 -4.4499999158 1.5 6.2148028519e-06 -4.3999999151 1.4499999993 -1.7179445422e-06 
-4.3999999151 1.5 6.5585095399e-06 -4.3499999143 1.4499999993 -1.8173378749e-06 -4.3499999143 1.5 6.9374714258e-06 
-4.2999999136 1.4499999993 -1.9269762106e-06 -4.2999999136 1.5 7.3554924711e-06 -4.2499999128 1.4499999993 -2.0476709324e-06 
-4.2499999128 1.5 7.8158309407e-06 -4.1999999121 1.4499999993 -2.1797031877e-06 -4.1999999121 1.5 8.3197892309e-06 
-4.1499999113 1.4499999993 -2.3220243293e-06 -4.1499999113 1.5 8.8640254035e-06 -4.0999999106 1.4499999993 -2.4705921078e-06 
-4.0999999106 1.5 9.4343968158e-06 -4.0499999098 1.4499999993 -2.6144921321e-06 -4.0499999098 1.5 9.9926628536e-06 
-3.9999999091 1.4499999993 -2.7268406484e-06 -3.9999999091 1.5 1.0444807231e-05 -3.9499999084 1.4499999993 -2.7532391869e-06 
[...]
CELL_DATA 9510
FIELD FieldData 4
Water_Depth_m 1 9510 float
0.639999 0.639998 0.639996 0.639996 0.639996 0.639997 0.64 0.640004 0.64001 
0.640017 0.640026 0.640036 0.640048 0.640061 0.640076 0.640092 0.640108 0.640125 
0.640143 0.640161 0.640179 0.640196 0.640213 0.640229 0.640244 0.640258 0.64027 
0.640281 0.64029 0.640297 0.640302 0.640304 0.640305 0.640302 0.640298 0.640291 
0.640281 0.640268 0.640253 0.640235 0.640214 0.64019 0.640164 0.640135 0.640103 
0.640069 0.640032 0.639993 0.639952 0.63991 0.639866 0.639821 0.639776 0.639731 
0.639686 0.639642 0.6396 0.63956 0.639523 0.639489 0.639459 0.639434 0.639414 
0.639399 0.63939 0.639387 0.63939 0.639398 0.639413 0.639433 0.63946 0.63949 
0.639526 0.639565 0.639609 0.639655 0.639703 0.639753 0.639803 0.639854 0.639905 
0.639955 0.640003 0.64005 0.640095 0.640137 0.640177 0.640213 0.640247 0.640278 
0.640305 0.64033 0.640351 0.64037 0.640386 0.6404 0.640411 0.640421 0.640429 
0.640435 0.64044 0.640445 0.640449 0.640453 0.640458 0.640463 0.64047 0.640479 
0.640489 0.640503 0.64052 0.640541 0.640565 0.640595 0.640629 0.640668 0.640713 
0.640763 0.640819 0.64088 0.640945 0.641015 0.641088 0.641162 0.641237 0.641309 
0.641392 0.641549 0.641975 0.641383 0.623659 0.585975 0.540119 0.494198 0.455697 
0.423783 0.394487 0.3641 0.328826 0.291738 0.258054 0.231807 0.216775 0.213315 
0.218411 0.225351 0.232259 0.238468 0.246102 0.251238 0.254874 0.260144 0.265968 
0.273447 0.282443 0.292504 0.304685 0.314702 0.32482 0.336865 0.342496 0.342132 
0.336276 0.324207 0.320901 0.329309 0.33599 0.340906 0.346628 0.353018 0.360081 
0.366804 0.373027 0.379649 0.386489 0.394077 0.401552 0.408915 0.415781 0.423383 
0.432588 0.442039 0.448986 0.455309 0.461524 0.468026 0.474954 0.482364 0.487782 
0.492796 0.496832 0.503048 0.512369 0.515299 0.516594 0.518897 0.519149 0.516416 
0.478865 0.463451 0.450823 0.438204 0.42633 0.40715 0.384015 0.367082 0.363763 
0.36459 0.364542 0.363088 0.362962 0.362957 0.359505 0.355785 0.355809 0.355837 
0.355868 0.355898 0.355927 0.355955 0.355981 0.356006 0.35603 0.356052 0.356072 
0.356091 0.356108 0.356124 0.356139 0.356152 0.356165 0.356176 0.356186 0.356196 
0.356205 0.356213 0.35622 0.356227 0.356233 0.356239 0.356244 0.356249 0.356254 
0.356258 0.356262 0.356266 0.356269 0.356273 0.356276 0.356279 0.356281 0.356284 
0.356286 0.356289 0.356291 0.356294 0.356296 0.356298 0.3563 0.356302 0.356304 
0.356306 0.356308 0.35631 0.356312 0.356314 0.356315 0.356317 0.356319 0.356321 
0.356323 0.356325 0.356327 0.356329 0.356331 0.356333 0.356335 0.356337 0.356339 
0.356341 0.356343 0.356345 0.356347 0.35635 0.356352 0.356354 0.356356 0.356359 
0.356361 0.356363 0.356347 0.356318 0.3549 0.35246 0.349316 0.64 0.639998 
0.639996 0.639995 0.639995 0.639996 0.639998 0.640002 0.640008 0.640015 0.640024 
0.640034 0.640046 0.640059 0.640074 0.64009 0.640107 0.640124 0.640142 0.64016 
0.640178 0.640196 0.640213 0.64023 0.640245 0.640259 0.640272 0.640283 0.640292 
0.640299 0.640304 0.640307 0.640307 0.640305 0.640301 0.640293 0.640284 0.640271 
0.640256 0.640237 0.640216 0.640193 0.640166 0.640137 0.640104 0.64007 0.640033 
0.639993 0.639952 0.639909 0.639865 0.639819 0.639773 0.639727 0.639682 0.639638 
0.639595 0.639555 0.639517 0.639484 0.639454 0.639428 0.639408 0.639393 0.639384 
0.639381 0.639384 0.639393 0.639408 0.639428 0.639454 0.639486 0.639522 0.639562 
0.639606 0.639652 0.639701 0.639751 0.639802 0.639854 0.639905 0.639955 0.640004 
0.640051 0.640096 0.640138 0.640178 0.640215 0.640249 0.64028 0.640307 0.640332 
0.640354 0.640372 0.640388 0.640402 0.640413 0.640423 0.64043 0.640436 0.640441 
0.640445 0.640449 0.640453 0.640457 0.640462 0.640469 0.640477 0.640487 0.640501 
0.640517 0.640537 0.640562 0.64059 0.640624 0.640663 0.640708 0.640758 0.640814 
0.640875 0.640941 0.641012 0.641086 0.641162 0.641239 0.641314 0.641383 0.641437 
0.641595 0.641159 0.623511 0.584419 0.534781 0.48516 0.445429 0.413815 0.385471 
0.355826 0.321726 0.285451 0.252472 0.228527 0.214562 0.220571 0.231302 0.238067 
0.241805 0.245942 0.249931 0.255805 0.262749 0.268825 0.274231 0.280088 0.286243 
0.291549 0.301999 0.313233 0.326414 0.348715 0.386315 0.412086 0.391506 0.341936 
0.333146 0.343244 0.349736 0.353891 0.356059 0.359447 0.364438 0.370796 0.379414 
0.387597 0.395231 0.403358 0.409579 0.416934 0.421144 0.426973 0.433973 0.441922 
0.451353 0.459606 0.462334 0.466645 0.468596 0.473306 0.480858 0.488891 0.492578 
0.496003 0.503037 0.509401 0.510008 0.509095 0.512087 0.513715 0.473801 0.463278 
0.45752 0.449003 0.440664 0.427752 0.407832 0.384967 0.367023 0.366162 0.366084 
0.364037 0.363004 0.362991 0.359424 0.355783 0.355812 0.355839 0.35587 0.3559 
0.355929 0.355958 0.355984 0.356009 0.356033 0.356055 0.356075 0.356094 0.356111 
0.356127 0.356141 0.356155 0.356167 0.356178 0.356188 0.356198 0.356206 0.356214 
0.356222 0.356228 0.356235 0.35624 0.356246 0.35625 0.356255 0.356259 0.356263 
0.356267 0.35627 0.356273 0.356277 0.356279 0.356282 0.356285 0.356287 0.35629 
0.356292 0.356294 0.356296 0.356298 0.356301 0.356302 0.356304 0.356306 0.356308 
0.35631 0.356312 0.356314 0.356316 0.356318 0.35632 0.356322 0.356323 0.356325 
0.356327 0.356329 0.356331 0.356333 0.356335 0.356337 0.356339 0.356341 0.356343 
0.356346 0.356348 0.35635 0.356352 0.356354 0.356357 0.356359 0.356361 0.356363 
0.356347 0.356318 0.354901 0.352461 0.349317 0.639999 0.639996 0.639994 0.639992 
0.639992 0.639993 0.639995 0.639998 0.640003 0.64001 0.640019 0.64003 0.640042 
0.640055 0.64007 0.640086 0.640103 0.640121 0.64014 0.640158 0.640177 0.640195 
0.640213 0.64023 0.640246 0.640261 0.640274 0.640285 0.640295 0.640303 0.640308 
0.640311 0.640312 0.64031 0.640306 0.640298 0.640289 0.640276 0.64026 0.640242 
0.640221 0.640196 0.640169 0.640139 0.640106 0.640071 0.640033 0.639993 0.63995 
0.639906 0.639861 0.639814 0.639767 0.63972 0.639674 0.639629 0.639585 0.639544 
0.639506 0.639471 0.639441 0.639415 0.639394 0.639379 0.63937 0.639367 0.63937 
0.63938 0.639395 0.639417 0.639443 0.639476 0.639512 0.639553 0.639598 0.639645 
0.639695 0.639746 0.639799 0.639851 0.639903 0.639954 0.640003 0.640051 0.640097 
0.64014 0.64018 0.640217 0.640251 0.640282 0.64031 0.640335 0.640356 0.640375 
0.640391 0.640405 0.640415 0.640424 0.640431 0.640437 0.640441 0.640445 0.640448 
0.640451 0.640454 0.640459 0.640464 0.640471 0.640481 0.640493 0.640508 0.640527 
0.64055 0.640578 0.640611 0.64065 0.640694 0.640743 0.640799 0.64086 0.640927 
0.640999 0.641075 0.641155 0.641236 0.641318 0.641399 0.641469 0.641725 0.641179 
0.62278 0.581873 0.529583 0.478128 0.436093 0.403944 0.376311 0.34809 0.315601 
0.280515 0.24885 0.225015 0.219984 0.228375 0.238776 0.245781 0.249909 0.254142 
0.258899 0.265116 0.272529 0.279828 0.286587 0.291285 0.294016 0.296544 0.3002 
0.30918 0.325731 0.347315 0.378612 0.39662 0.381336 0.342893 0.347401 0.355386 
0.362148 0.366262 0.366406 0.369754 0.376396 0.38482 0.39424 0.403126 0.410279 
0.417181 0.422612 0.428128 0.435532 0.442639 0.450022 0.458651 0.466246 0.472572 
0.473828 0.475359 0.483209 0.492238 0.498766 0.504716 0.512691 0.52103 0.524707 
0.526531 0.526696 0.530173 0.533763 0.53413 0.49951 0.48551 0.474736 0.465103 
0.454847 0.444183 0.429095 0.411699 0.385395 0.367238 0.36638 0.36523 0.363522 
0.363495 0.359381 0.355775 0.355802 0.355834 0.355867 0.355898 0.355928 0.355957 
0.355984 0.356009 0.356033 0.356055 0.356075 0.356094 0.356111 0.356127 0.356141 
0.356154 0.356167 0.356178 0.356188 0.356197 0.356206 0.356214 0.356221 0.356228 
0.356234 0.35624 0.356245 0.35625 0.356254 0.356258 0.356262 0.356266 0.356269 
0.356273 0.356276 0.356279 0.356281 0.356284 0.356286 0.356289 0.356291 0.356293 
0.356296 0.356298 0.3563 0.356302 0.356304 0.356306 0.356308 0.35631 0.356311 
0.356313 0.356315 0.356317 0.356319 0.356321 0.356323 0.356325 0.356327 0.356329 
0.356331 0.356333 0.356335 0.356337 0.356339 0.356341 0.356343 0.356345 0.356347 
0.356349 0.356352 0.356354 0.356356 0.356358 0.356361 0.356363 0.356346 0.356317 
0.3549 0.35246 0.349316 0.639998 0.639995 0.639991 0.639989 0.639988 0.639988 
0.639989 0.639992 0.639997 0.640004 0.640012 0.640023 0.640035 0.640049 0.640064 
0.640081 0.640099 0.640117 0.640136 0.640156 0.640175 0.640195 0.640213 0.640231 
0.640248 0.640264 0.640278 0.64029 0.640301 0.640309 0.640315 0.640319 0.64032 
0.640318 0.640314 0.640307 0.640297 0.640284 0.640268 0.640249 0.640228 0.640203 
0.640175 0.640144 0.64011 0.640073 0.640034 0.639992 0.639948 0.639902 0.639855 
0.639807 0.639758 0.63971 0.639662 0.639615 0.63957 0.639527 0.639488 0.639452 
0.639421 0.639394 0.639373 0.639358 0.639349 0.639346 0.63935 0.63936 0.639376 
0.639398 0.639426 0.63946 0.639498 0.63954 0.639586 0.639636 0.639687 0.63974 
0.639793 0.639847 0.639901 0.639953 0.640004 0.640052 0.640099 0.640143 0.640184 
0.640221 0.640256 0.640288 0.640316 0.640341 0.640363 0.640381 0.640397 0.64041 
0.640421 0.640429 0.640436 0.64044 0.640444 0.640446 0.640448 0.64045 0.640452 
0.640455 0.640459 0.640464 0.640472 0.640483 0.640496 0.640514 0.640536 0.640562 
0.640594 0.640631 0.640674 0.640723 0.640779 0.64084 0.640908 0.640982 0.641062 
0.641146 0.641234 0.641324 0.641415 0.641482 0.641745 0.641199 0.622096 0.579623 
0.524963 0.469771 0.427244 0.394629 0.367254 0.341114 0.310964 0.280449 0.258476 
0.243018 0.234643 0.236755 0.242112 0.24947 0.256934 0.263121 0.269249 0.276015 
0.283487 0.291065 0.297625 0.301778 0.303757 0.305575 0.309316 0.315822 0.323771 
0.334274 0.336015 0.337357 0.345429 0.354018 0.360566 0.365605 0.367311 0.369046 
0.374732 0.38144 0.39024 0.399801 0.40834 0.416151 0.422153 0.428308 0.436053 
0.443973 0.451528 0.459655 0.466212 0.472234 0.479519 0.485393 0.487883 0.492382 
0.504731 0.51703 0.523528 0.527656 0.536655 0.544547 0.545663 0.548678 0.551309 
0.554819 0.555376 0.554338 0.530652 0.521715 0.509473 0.491564 0.475059 0.460247 
0.444769 0.429263 0.406687 0.378735 0.36682 0.365928 0.364042 0.363843 0.359307 
0.355767 0.355799 0.355834 0.355868 0.355901 0.355932 0.355961 0.355989 0.356014 
0.356038 0.356059 0.356079 0.356098 0.356115 0.35613 0.356145 0.356158 0.35617 
0.356181 0.356191 0.3562 0.356208 0.356216 0.356223 0.356229 0.356236 0.356241 
0.356246 0.356251 0.356255 0.356259 0.356263 0.356267 0.35627 0.356273 0.356276 
0.356279 0.356282 0.356284 0.356287 0.356289 0.356291 0.356294 0.356296 0.356298 
0.3563 0.356302 0.356304 0.356306 0.356308 0.35631 0.356312 0.356313 0.356315 
0.356317 0.356319 0.356321 0.356323 0.356325 0.356327 0.356329 0.356331 0.356333 
0.356335 0.356337 0.356339 0.356341 0.356343 0.356345 0.356347 0.356349 0.356352 
0.356354 0.356356 0.356358 0.356361 0.356363 0.356346 0.356317 0.3549 0.35246 
0.349316 0.639997 0.639992 0.639988 0.639984 0.639982 0.639981 0.639981 0.639984 
0.639988 0.639995 0.640003 0.640014 0.640026 0.64004 0.640056 0.640073 0.640092 
0.640111 0.640131 0.640152 0.640173 0.640194 0.640214 0.640233 0.640251 0.640268 
0.640284 0.640297 0.640309 0.640318 0.640325 0.64033 0.640331 0.64033 0.640326 
0.640319 0.640309 0.640296 0.64028 0.640261 0.640238 0.640212 0.640183 0.64015 
0.640115 0.640077 0.640035 0.639991 0.639945 0.639897 0.639848 0.639797 0.639746 
0.639695 0.639644 0.639595 0.639548 0.639503 0.639462 0.639425 0.639392 0.639365 
0.639343 0.639328 0.639319 0.639316 0.639321 0.639332 0.639349 0.639373 0.639402 
0.639437 0.639477 0.639522 0.63957 0.639622 0.639675 0.63973 0.639786 0.639842 
0.639897 0.639951 0.640004 0.640054 0.640102 0.640147 0.640189 0.640228 0.640263 
0.640295 0.640324 0.640349 0.640371 0.64039 0.640406 0.640418 0.640428 0.640436 
0.640442 0.640446 0.640448 0.640449 0.640449 0.640449 0.64045 0.64045 0.640452 
0.640455 0.640461 0.640469 0.64048 0.640495 0.640515 0.640539 0.640569 0.640604 
0.640646 0.640694 0.640749 0.640811 0.640881 0.640957 0.64104 0.64113 0.641226 
0.641327 0.641431 0.641513 0.641788 0.641219 0.621619 0.578109 0.522505 0.467581 
0.421507 0.386285 0.357656 0.331725 0.305939 0.283558 0.26858 0.258511 0.251293 
0.2477 0.251812 0.258209 0.265673 0.272814 0.279403 0.286387 0.293831 0.301163 
0.307672 0.311622 0.313317 0.315102 0.31816 0.323107 0.329395 0.335794 0.342796 
0.349874 0.356797 0.363811 0.370163 0.374282 0.375549 0.378983 0.385187 0.393307 
0.402524 0.411568 0.419591 0.426768 0.433519 0.440612 0.449288 0.45813 0.465641 
0.473712 0.483277 0.491017 0.494196 0.496924 0.506344 0.5178 0.529164 0.542182 
0.550719 0.558737 0.563245 0.565405 0.568663 0.576639 0.57751 0.578598 0.579865 
0.581154 0.553086 0.547947 0.538039 0.521121 0.499766 0.480319 0.462164 0.444358 
0.424095 0.399361 0.375534 0.365661 0.364359 0.363936 0.359233 0.35576 0.355795 
0.355833 0.35587 0.355904 0.355937 0.355967 0.355994 0.35602 0.356044 0.356065 
0.356085 0.356103 0.35612 0.356135 0.356149 0.356162 0.356173 0.356184 0.356194 
0.356203 0.356211 0.356218 0.356225 0.356231 0.356237 0.356243 0.356248 0.356252 
0.356256 0.35626 0.356264 0.356268 0.356271 0.356274 0.356277 0.35628 0.356282 
0.356285 0.356287 0.35629 0.356292 0.356294 0.356296 0.356298 0.3563 0.356302 
0.356304 0.356306 0.356308 0.35631 0.356312 0.356313 0.356315 0.356317 0.356319 
0.356321 0.356323 0.356325 0.356327 0.356329 0.356331 0.356333 0.356335 0.356337 
0.356339 0.356341 0.356343 0.356345 0.356347 0.356349 0.356352 0.356354 0.356356 
0.356358 0.356361 0.356363 0.356346 0.356317 0.3549 0.35246 0.349316 0.639996 
0.639989 0.639983 0.639978 0.639974 0.639971 0.639971 0.639973 0.639977 0.639983 
0.639991 0.640001 0.640014 0.640029 0.640045 0.640064 0.640083 0.640104 0.640125 
0.640148 0.64017 0.640192 0.640214 0.640235 0.640256 0.640274 0.640292 0.640307 
0.64032 0.640331 0.640339 0.640344 0.640347 0.640346 0.640343 0.640336 0.640326 
0.640313 0.640296 0.640276 0.640252 0.640225 0.640194 0.64016 0.640122 0.640081 
0.640038 0.639991 0.639942 0.639891 0.639838 0.639784 0.63973 0.639675 0.639622 
0.639569 0.639519 0.639472 0.639429 0.63939 0.639356 0.639327 0.639305 0.639289 
0.63928 0.639278 0.639283 0.639295 0.639314 0.63934 0.639371 0.639409 0.639451 
0.639499 0.63955 0.639604 0.639661 0.639719 0.639777 0.639836 0.639893 0.63995 
0.640004 0.640056 0.640106 0.640152 0.640196 0.640236 0.640272 0.640305 0.640334 
0.64036 0.640382 0.640401 0.640417 0.640429 0.640439 0.640446 0.64045 0.640453 
0.640453 0.640453 0.640451 0.640449 0.640447 0.640445 0.640444 0.640444 0.640447 
0.640452 0.64046 0.640472 0.640489 0.64051 0.640537 0.64057 0.64061 0.640656 
0.640711 0.640773 0.640843 0.640921 0.641009 0.641104 0.641209 0.641322 0.64144 
0.641532 0.641817 0.641233 0.621161 0.576653 0.519785 0.462116 0.41536 0.378724 
0.349466 0.324129 0.302736 0.285433 0.274095 0.267833 0.262107 0.258813 0.262363 
0.268521 0.275832 0.283008 0.290071 0.296491 0.302453 0.308539 0.314747 0.318633 
0.320538 0.323326 0.327137 0.331676 0.336815 0.342905 0.350353 0.358179 0.36544 
0.371088 0.373723 0.376977 0.383368 0.389775 0.396842 0.40475 0.413976 0.422683 
0.429927 0.437123 0.445683 0.454273 0.462414 0.470685 0.479881 0.488703 0.499156 
0.508336 0.511516 0.517092 0.528535 0.541417 0.551123 0.558751 0.57393 0.586128 
0.589884 0.591422 0.59734 0.601899 0.603596 0.607969 0.611593 0.611857 0.566922 
0.564144 0.556789 0.545761 0.527176 0.50609 0.484884 0.462329 0.438998 0.418666 
0.390921 0.36821 0.36477 0.364407 0.359185 0.355754 0.355793 0.355835 0.355874 
0.35591 0.355944 0.355974 0.356002 0.356028 0.356051 0.356073 0.356092 0.35611 
0.356126 0.356141 0.356155 0.356167 0.356178 0.356188 0.356198 0.356206 0.356214 
0.356221 0.356228 0.356234 0.35624 0.356245 0.356249 0.356254 0.356258 0.356262 
0.356265 0.356269 0.356272 0.356275 0.356278 0.35628 0.356283 0.356285 0.356288 
0.35629 0.356292 0.356294 0.356296 0.356298 0.3563 0.356302 0.356304 0.356306 
0.356308 0.35631 0.356312 0.356314 0.356315 0.356317 0.356319 0.356321 0.356323 
0.356325 0.356327 0.356329 0.356331 0.356333 0.356335 0.356337 0.356339 0.356341 
0.356343 0.356345 0.356347 0.356349 0.356352 0.356354 0.356356 0.356358 0.356361 
0.356363 0.356346 0.356317 0.3549 0.35246 0.349316 0.639995 0.639986 0.639977 
0.63997 0.639964 0.63996 0.639959 0.639959 0.639962 0.639968 0.639976 0.639987 
0.64 0.640015 0.640032 0.640051 0.640072 0.640095 0.640118 0.640142 0.640166 
0.640191 0.640215 0.640238 0.640261 0.640282 0.640301 0.640318 0.640334 0.640346 
0.640356 0.640363 0.640366 0.640367 0.640364 0.640357 0.640347 0.640333 0.640316 
0.640295 0.64027 0.640241 0.640208 0.640172 0.640132 0.640088 0.640041 0.639991 
0.639938 0.639883 0.639826 0.639768 0.63971 0.639651 0.639594 0.639538 0.639484 
0.639434 0.639388 0.639346 0.63931 0.63928 0.639257 0.639241 0.639232 0.63923 
0.639237 0.639251 0.639271 0.639299 0.639333 0.639374 0.63942 0.639471 0.639526 
0.639584 0.639644 0.639706 0.639767 0.639829 0.63989 0.639948 0.640005 0.64006 
0.640111 0.64016 0.640205 0.640246 0.640284 0.640317 0.640347 0.640374 0.640396 
0.640415 0.640431 0.640443 0.640451 0.640457 0.640461 0.640462 0.64046 0.640458 
0.640454 0.640449 0.640444 0.640439 0.640434 0.640431 0.64043 0.640431 0.640436 
0.640444 0.640457 0.640474 0.640498 0.640528 0.640565 0.640609 0.640662 0.640723 
0.640794 0.640874 0.640965 0.641066 0.641179 0.641303 0.641435 0.641539 0.641843 
0.641238 0.620481 0.574518 0.51624 0.459075 0.409126 0.371332 0.343294 0.321753 
0.302047 0.285671 0.274809 0.268915 0.264443 0.267921 0.27424 0.279955 0.285343 
0.291709 0.298447 0.303986 0.308345 0.312462 0.31603 0.319929 0.324367 0.328957 
0.334335 0.33897 0.342831 0.348074 0.354607 0.36227 0.370141 0.375724 0.379256 
0.384081 0.391461 0.399819 0.407497 0.416037 0.423801 0.432146 0.440957 0.449279 
0.458183 0.467209 0.476641 0.486712 0.497118 0.505685 0.512215 0.517985 0.526351 
0.537322 0.550447 0.56429 0.574948 0.585754 0.59632 0.606193 0.612267 0.617812 
0.625312 0.629483 0.632145 0.638633 0.640727 0.640908 0.575157 0.573538 0.571818 
0.566853 0.555009 0.537391 0.512103 0.484888 0.45626 0.432273 0.407211 0.377969 
0.364868 0.364423 0.359147 0.355749 0.355794 0.355839 0.355881 0.355919 0.355953 
0.355984 0.356012 0.356038 0.356061 0.356082 0.356101 0.356119 0.356134 0.356149 
0.356161 0.356173 0.356184 0.356194 0.356203 0.356211 0.356218 0.356225 0.356231 
0.356237 0.356242 0.356247 0.356252 0.356256 0.35626 0.356264 0.356267 0.35627 
0.356273 0.356276 0.356279 0.356281 0.356284 0.356286 0.356288 0.356291 0.356293 
0.356295 0.356297 0.356299 0.356301 0.356303 0.356305 0.356306 0.356308 0.35631 
0.356312 0.356314 0.356316 0.356317 0.356319 0.356321 0.356323 0.356325 0.356327 
0.356329 0.356331 0.356333 0.356335 0.356337 0.356339 0.356341 0.356343 0.356345 
0.356347 0.356349 0.356352 0.356354 0.356356 0.356358 0.356361 0.356363 0.356346 
0.356317 0.3549 0.35246 0.349316 0.639993 0.639981 0.63997 0.63996 0.639953 
0.639947 0.639944 0.639944 0.639946 0.639951 0.639959 0.639969 0.639983 0.639998 
0.640017 0.640037 0.640059 0.640083 0.640109 0.640135 0.640162 0.640189 0.640216 
0.640242 0.640267 0.640291 0.640313 0.640333 0.64035 0.640365 0.640376 0.640385 
0.64039 0.640392 0.640389 0.640383 0.640373 0.640359 0.640341 0.640319 0.640292 
0.640261 0.640226 0.640187 0.640144 0.640097 0.640046 0.639991 0.639934 0.639874 
0.639813 0.63975 0.639686 0.639623 0.63956 0.6395 0.639442 0.639388 0.639339 
0.639294 0.639256 0.639224 0.6392 0.639183 0.639174 0.639174 0.639182 0.639198 
0.639221 0.639252 0.63929 0.639333 0.639384 0.63944 0.639499 0.639562 0.639627 
0.639692 0.639758 0.639823 0.639887 0.639949 0.640008 0.640065 0.640119 0.640169 
0.640216 0.640259 0.640297 0.640332 0.640363 0.64039 0.640413 0.640432 0.640447 
0.640459 0.640467 0.640472 0.640473 0.640473 0.640469 0.640464 0.640457 0.640449 
0.640441 0.640432 0.640423 0.640416 0.640411 0.640407 0.640407 0.640411 0.640419 
0.640432 0.640451 0.640477 0.64051 0.640552 0.640602 0.640662 0.640732 0.640813 
0.640906 0.641013 0.641133 0.641267 0.641412 0.641527 0.641848 0.641225 0.619614 
0.571678 0.510049 0.447666 0.399252 0.363253 0.336091 0.31525 0.297935 0.284019 
0.273893 0.267505 0.267873 0.273318 0.279586 0.285881 0.291721 0.297429 0.302884 