# vtk DataFile Version 5.1
vtk output
ASCII
DATASET UNSTRUCTURED_GRID
POINTS 10043 double
-10.1 1.4499999993 0 -10.049999999 1.4499999993 0 -10.049999999 1.5 0 
-9.9999999985 1.4499999993 0 -9.9999999985 1.5 0 -9.9499999978 1.4499999993 0 
-9.9499999978 1.5 0 -9.899999997 1.4499999993 0 -9.899999997 1.5 0 
-9.8499999963 1.4499999993 0 -9.8499999963 1.5 0 -9.7999999955 1.4499999993 0 
-9.7999999955 1.5 0 -9.7499999948 1.4499999993 0 -9.7499999948 1.5 0 
-9.699999994 1.4499999993 0 -9.699999994 1.5 0 -9.6499999933 1.4499999993 0 
-9.6499999933 1.5 0 -9.5999999925 1.4499999993 0 -9.5999999925 1.5 0 
-9.5499999918 1.4499999993 0 -9.5499999918 1.5 0 -9.4999999911 1.4499999993 0 
-9.4999999911 1.5 0 -9.4499999903 1.4499999993 0 -9.4499999903 1.5 0 
-9.3999999896 1.4499999993 0 -9.3999999896 1.5 0 -9.3499999888 1.4499999993 0 
-9.3499999888 1.5 0 -9.2999999881 1.4499999993 0 -9.2999999881 1.5 0 
-9.2499999873 1.4499999993 0 -9.2499999873 1.5 0 -9.1999999866 1.4499999993 0 
-9.1999999866 1.5 0 -9.1499999858 1.4499999993 0 -9.1499999858 1.5 0 
-9.0999999851 1.4499999993 0 -9.0999999851 1.5 0 -9.0499999844 1.4499999993 0 
-9.0499999844 1.5 0 -8.9999999836 1.4499999993 0 -8.9999999836 1.5 0 
-8.9499999829 1.4499999993 0 -8.9499999829 1.5 0 -8.8999999821 1.4499999993 0 
-8.8999999821 1.5 0 -8.8499999814 1.4499999993 0 -8.8499999814 1.5 0 
-8.7999999806 1.4499999993 0 -8.7999999806 1.5 0 -8.7499999799 1.4499999993 0 
-8.7499999799 1.5 0 -8.6999999791 1.4499999993 0 -8.6999999791 1.5 0 
-8.6499999784 1.4499999993 0 -8.6499999784 1.5 0 -8.5999999776 1.4499999993 0 
-8.5999999776 1.5 0 -8.5499999769 1.4499999993 0 -8.5499999769 1.5 0 
-8.4999999762 1.4499999993 0 -8.4999999762 1.5 0 -8.4499999754 1.4499999993 0 
-8.4499999754 1.5 0 -8.3999999747 1.4499999993 0 -8.3999999747 1.5 0 
-8.3499999739 1.4499999993 0 -8.3499999739 1.5 0 -8.2999999732 1.4499999993 0 
-8.2999999732 1.5 0 -8.2499999724 1.4499999993 0 -8.2499999724 1.5 0 
-8.1999999717 1.4499999993 0 -8.1999999717 1.5 0 -8.1499999709 1.4499999993 0 
-8.1499999709 1.5 0 -8.0999999702 1.4499999993 0 -8.0999999702 1.5 0 
-8.0499999695 1.4499999993 0 -8.0499999695 1.5 0 -7.9999999687 1.4499999993 0 
-7.9999999687 1.5 0 -7.949999968 1.4499999993 0 -7.949999968 1.5 0 
-7.8999999672 1.4499999993 0 -7.8999999672 1.5 0 -7.8499999665 1.4499999993 0 
-7.8499999665 1.5 0 -7.7999999657 1.4499999993 0 -7.7999999657 1.5 0 
-7.749999965 1.4499999993 0 -7.749999965 1.5 0 -7.6999999642 1.4499999993 0 
-7.6999999642 1.5 0 -7.6499999635 1.4499999993 0 -7.6499999635 1.5 0 
-7.5999999627 1.4499999993 0 -7.5999999627 1.5 0 -7.549999962 1.4499999993 0 
-7.549999962 1.5 0 -7.4999999613 1.4499999993 0 -7.4999999613 1.5 0 
-7.4499999605 1.4499999993 0 -7.4499999605 1.5 0 -7.3999999598 1.4499999993 0 
-7.3999999598 1.5 0 -7.349999959 1.4499999993 0 -7.349999959 1.5 0 
-7.2999999583 1.4499999993 0 -7.2999999583 1.5 0 -7.2499999575 1.4499999993 0 
-7.2499999575 1.5 0 -7.1999999568 1.4499999993 0 -7.1999999568 1.5 0 
-7.149999956 1.4499999993 0 -7.149999956 1.5 0 -7.0999999553 1.4499999993 0 
-7.0999999553 1.5 0 -7.0499999546 1.4499999993 0 -7.0499999546 1.5 0 
-6.9999999538 1.4499999993 0 -6.9999999538 1.5 0 -6.9499999531 1.4499999993 0 
-6.9499999531 1.5 0 -6.8999999523 1.4499999993 0 -6.8999999523 1.5 0 
-6.8499999516 1.4499999993 0 -6.8499999516 1.5 0 -6.7999999508 1.4499999993 0 
-6.7999999508 1.5 0 -6.7499999501 1.4499999993 0 -6.7499999501 1.5 0 
-6.6999999493 1.4499999993 0 -6.6999999493 1.5 0 -6.6499999486 1.4499999993 0 
-6.6499999486 1.5 0 -6.5999999478 1.4499999993 0 -6.5999999478 1.5 0 
-6.5499999471 1.4499999993 0 -6.5499999471 1.5 0 -6.4999999464 1.4499999993 0 
-6.4999999464 1.5 0 -6.4499999456 1.4499999993 0 -6.4499999456 1.5 0 
-6.3999999449 1.4499999993 0 -6.3999999449 1.5 0 -6.3499999441 1.4499999993 0 
-6.3499999441 1.5 0 -6.2999999434 1.4499999993 0 -6.2999999434 1.5 0 
-6.2499999426 1.4499999993 0 -6.2499999426 1.5 0 -6.1999999419 1.4499999993 0 
-6.1999999419 1.5 0 -6.1499999411 1.4499999993 0 -6.1499999411 1.5 0 
-6.0999999404 1.4499999993 0 -6.0999999404 1.5 0 -6.0499999397 1.4499999993 0 
-6.0499999397 1.5 0 -5.9999999389 1.4499999993 0 -5.9999999389 1.5 0 
-5.9499999382 1.4499999993 0 -5.9499999382 1.5 0 -5.8999999374 1.4499999993 0 
-5.8999999374 1.5 0 -5.8499999367 1.4499999993 0 -5.8499999367 1.5 0 
-5.7999999359 1.4499999993 0 -5.7999999359 1.5 0 -5.7499999352 1.4499999993 0 
-5.7499999352 1.5 0 -5.6999999344 1.4499999993 0 -5.6999999344 1.5 0 
-5.6499999337 1.4499999993 0 -5.6499999337 1.5 0 -5.5999999329 1.4499999993 0 
-5.5999999329 1.5 0 -5.5499999322 1.4499999993 0 -5.5499999322 1.5 0 
-5.4999999315 1.4499999993 0 -5.4999999315 1.5 0 -5.4499999307 1.4499999993 0 
-5.4499999307 1.5 0 -5.39999993 1.4499999993 0 -5.39999993 1.5 0 
-5.3499999292 1.4499999993 0 -5.3499999292 1.5 0 -5.2999999285 1.4499999993 0 
-5.2999999285 1.5 0 -5.2499999277 1.4499999993 0 -5.2499999277 1.5 0 
-5.199999927 1.4499999993 0 -5.199999927 1.5 0 -5.1499999262 1.4499999993 0 
-5.1499999262 1.5 0 -5.0999999255 1.4499999993 0 -5.0999999255 1.5 0 
-5.0499999247 1.4499999993 0 -5.0499999247 1.5 0 -4.999999924 1.4499999993 0 
-4.999999924 1.5 0 -4.9499999233 1.4499999993 0 -4.9499999233 1.5 0 
-4.8999999225 1.4499999993 0 -4.8999999225 1.5 0 -4.8499999218 1.4499999993 0 
-4.8499999218 1.5 0 -4.799999921 1.4499999993 0 -4.799999921 1.5 0 
-4.7499999203 1.4499999993 0 -4.7499999203 1.5 0 -4.6999999195 1.4499999993 0 
-4.6999999195 1.5 0 -4.6499999188 1.4499999993 0 -4.6499999188 1.5 0 
-4.599999918 1.4499999993 0 -4.599999918 1.5 0 -4.5499999173 1.4499999993 0 
-4.5499999173 1.5 0 -4.4999999166 1.4499999993 0 -4.4999999166 1.5 0 
-4.4499999158 1.4499999993 0 -4.4499999158 1.5 0 -4.3999999151 1.4499999993 0 
-4.3999999151 1.5 0 -4.3499999143 1.4499999993 0 -4.3499999143 1.5 0 
-4.2999999136 1.4499999993 0 -4.2999999136 1.5 0 -4.2499999128 1.4499999993 0 
-4.2499999128 1.5 0 -4.1999999121 1.4499999993 0 -4.1999999121 1.5 0 
-4.1499999113 1.4499999993 0 -4.1499999113 1.5 0 -4.0999999106 1.4499999993 0 
-4.0999999106 1.5 0 -4.0499999098 1.4499999993 0 -4.0499999098 1.5 0 
-3.9999999091 1.4499999993 0 -3.9999999091 1.5 0 -3.9499999084 1.4499999993 0 
-3.9499999084 1.5 0 -3.8999999076 1.4499999993 0 -3.8999999076 1.5 0 
-3.8499999069 1.4499999993 0 -3.8499999069 1.5 0 -3.7999999061 1.4499999993 0 
-3.7999999061 1.5 0 -3.7499999054 1.4499999993 0 -3.7499999054 1.5 0 
-3.6999999046 1.4499999993 0 -3.6999999046 1.5 0 -3.6499999039 1.4499999993 0 
-3.6499999039 1.5 0 -3.5999999031 1.4499999993 0 -3.5999999031 1.5 0 
-3.5499999024 1.4499999993 0 -3.5499999024 1.5 0 -3.4999999017 1.4499999993 0 
-3.4999999017 1.5 0 -3.4499999009 1.4499999993 0 -3.4499999009 1.5 0 
-3.3999999002 1.4499999993 0 -3.3999999002 1.5 0 -3.3499998994 1.4499999993 0 
-3.3499998994 1.5 0 -3.2999998987 1.4499999993 0 -3.2999998987 1.5 0 
-3.2499998979 1.4499999993 0 -3.2499998979 1.5 0 -3.1999998972 1.4499999993 0 
-3.1999998972 1.5 0 -3.1499998964 1.4499999993 0 -3.1499998964 1.5 0 
-3.0999998957 1.4499999993 0 -3.0999998957 1.5 0 -3.0499998949 1.4499999993 0 
-3.0499998949 1.5 0 -2.9999998942 1.4499999993 0 -2.9999998942 1.5 0 
-2.9499998935 1.4499999993 0 -2.9499998935 1.5 0 -2.8999998927 1.4499999993 0 
-2.8999998927 1.5 0 -2.849999892 1.4499999993 0 -2.849999892 1.5 0 
-2.7999998912 1.4499999993 0 -2.7999998912 1.5 0 -2.7499998905 1.4499999993 0 
-2.7499998905 1.5 0 -2.6999998897 1.4499999993 0 -2.6999998897 1.5 0 
-2.649999889 1.4499999993 0 -2.649999889 1.5 0 -2.5999998882 1.4499999993 0 
-2.5999998882 1.5 0 -2.5499998875 1.4499999993 0 -2.5499998875 1.5 0 
-2.4999998868 1.4499999993 0 -2.4999998868 1.5 0 -2.449999886 1.4499999993 0 
-2.449999886 1.5 0 -2.3999998853 1.4499999993 0 -2.3999998853 1.5 0 
-2.3499998845 1.4499999993 0 -2.3499998845 1.5 0 -2.2999998838 1.4499999993 0 
-2.2999998838 1.5 0 -2.249999883 1.4499999993 0 -2.249999883 1.5 0 
-2.1999998823 1.4499999993 0 -2.1999998823 1.5 0 -2.1499998815 1.4499999993 0 
-2.1499998815 1.5 0 -2.0999998808 1.4499999993 0 -2.0999998808 1.5 0 
-2.04999988 1.4499999993 0 -2.04999988 1.5 0 -1.9999998793 1.4499999993 0 
-1.9999998793 1.5 0 -1.9499998786 1.4499999993 0 -1.9499998786 1.5 0 
-1.8999998778 1.4499999993 0 -1.8999998778 1.5 0 -1.8499998771 1.4499999993 0 
-1.8499998771 1.5 0 -1.7999998763 1.4499999993 0 -1.7999998763 1.5 0 
-1.7499998756 1.4499999993 0 -1.7499998756 1.5 0 -1.6999998748 1.4499999993 0 
-1.6999998748 1.5 0 -1.6499998741 1.4499999993 0 -1.6499998741 1.5 0 
-1.5999998733 1.4499999993 0 -1.5999998733 1.5 0 -1.5499998726 1.4499999993 0 
-1.5499998726 1.5 0 -1.4999998718 1.4499999993 0 -1.4999998718 1.5 0 
-1.4499998711 1.4499999993 0 -1.4499998711 1.5 0 -1.3999998704 1.4499999993 0 
-1.3999998704 1.5 0 -1.3499998696 1.4499999993 0 -1.3499998696 1.5 0 
-1.2999998689 1.4499999993 0 -1.2999998689 1.5 0 -1.2499998681 1.4499999993 0 
-1.2499998681 1.5 0 -1.1999998674 1.4499999993 0 -1.1999998674 1.5 0 
-1.1499998666 1.4499999993 0 -1.1499998666 1.5 0 -1.0999998659 1.4499999993 0 
-1.0999998659 1.5 0 -1.0499998651 1.4499999993 0 -1.0499998651 1.5 0 
-0.9999998644 1.4499999993 0 -0.9999998644 1.5 0 -0.94999986365 1.4499999993 0 
-0.94999986365 1.5 0 -0.89999986291 1.4499999993 0 -0.89999986291 1.5 0 
-0.84999986216 1.4499999993 0 -0.84999986216 1.5 0 -0.79999986142 1.4499999993 0 
-0.79999986142 1.5 0 -0.74999986067 1.4499999993 0 -0.74999986067 1.5 0 
-0.69999985993 1.4499999993 0 -0.69999985993 1.5 0 -0.64999985918 1.4499999993 0 
-0.64999985918 1.5 0 -0.59999985844 1.4499999993 0 -0.59999985844 1.5 0 
-0.54999985769 1.4499999993 0 -0.54999985769 1.5 0 -0.49999985695 1.4499999993 0 
-0.49999985695 1.5 0 -0.4499998562 1.4499999993 0 -0.4499998562 1.5 0 
-0.39999985546 1.4499999993 0 -0.39999985546 1.5 0 -0.34999985471 1.4499999993 0 
-0.34999985471 1.5 0 -0.29999985397 1.4499999993 0 -0.29999985397 1.5 0 
-0.24999985322 1.4499999993 0 -0.24999985322 1.5 0 -0.191663057 1.4499999993 0 
-0.17548248559 1.5 0 0.18862900414 1.4499999993 0 0.25000015423 1.4499999993 0 
[...]
CELL_DATA 9510
FIELD FieldData 4
Water_Depth_m 1 9510 float
0.479959 0.479874 0.479786 0.479695 0.4796 0.479502 0.479401 0.479297 0.479189 
0.479079 0.478966 0.478852 0.478735 0.478618 0.478501 0.478384 0.478268 0.478154 
0.478043 0.477935 0.47783 0.47773 0.477636 0.477547 0.477466 0.477391 0.477325 
0.477268 0.477219 0.47718 0.477151 0.477133 0.477125 0.477127 0.47714 0.477163 
0.477196 0.477238 0.477288 0.477347 0.477413 0.477485 0.477563 0.477646 0.477734 
0.477825 0.477919 0.478016 0.478115 0.478215 0.478316 0.478417 0.478517 0.478617 
0.478715 0.47881 0.478903 0.478992 0.479078 0.479158 0.479234 0.479305 0.479369 
0.479428 0.47948 0.479526 0.479564 0.479596 0.479621 0.479638 0.479647 0.479649 
0.479643 0.479629 0.479608 0.479577 0.479539 0.479492 0.479437 0.479373 0.479301 
0.479221 0.479133 0.479038 0.478937 0.478831 0.478722 0.478611 0.478499 0.478389 
0.478283 0.478184 0.478092 0.47801 0.477939 0.47788 0.477834 0.477802 0.477782 
0.477775 0.47778 0.477796 0.477821 0.477853 0.477892 0.477934 0.477978 0.478022 
0.478065 0.478105 0.478139 0.478168 0.47819 0.478203 0.478207 0.478202 0.478187 
0.478161 0.478125 0.478079 0.478022 0.477956 0.47788 0.477796 0.477704 0.477605 
0.477502 0.477395 0.477287 0.477181 0.477078 0.47698 0.476891 0.476813 0.476747 
0.476694 0.476656 0.476632 0.476622 0.476626 0.476642 0.476668 0.476701 0.47674 
0.476782 0.476825 0.476867 0.476906 0.47694 0.476968 0.476991 0.477006 0.477015 
0.477017 0.477013 0.477004 0.47699 0.476972 0.476952 0.47693 0.476907 0.476884 
0.476862 0.476842 0.476825 0.476811 0.476801 0.476793 0.47679 0.47679 0.476793 
0.476801 0.476811 0.476825 0.476843 0.476864 0.47689 0.47692 0.476955 0.476995 
0.477043 0.477097 0.477159 0.477232 0.477314 0.477407 0.477514 0.477634 0.47777 
0.477922 0.47809 0.478276 0.478483 0.478708 0.478949 0.47922 0.479494 0.479833 
0.482531 0.482825 0.483068 0.483292 0.483497 0.483683 0.483851 0.484003 0.484139 
0.484261 0.48437 0.484467 0.484553 0.48463 0.484698 0.484758 0.484811 0.484859 
0.4849 0.484937 0.484969 0.484998 0.485023 0.485045 0.485064 0.48508 0.485095 
0.485108 0.485118 0.485128 0.485136 0.485142 0.485148 0.485153 0.485156 0.48516 
0.485162 0.485164 0.485165 0.485166 0.485166 0.485166 0.485166 0.485165 0.485165 
0.485164 0.485163 0.485161 0.48516 0.485158 0.485157 0.485155 0.485154 0.485152 
0.48515 0.485148 0.485147 0.485145 0.485143 0.485141 0.48514 0.485138 0.485137 
0.485135 0.485133 0.485132 0.485131 0.485129 0.485128 0.485127 0.485126 0.485125 
0.485124 0.485123 0.485122 0.485122 0.485121 0.485121 0.48512 0.48512 0.485119 
0.485119 0.485119 0.485119 0.485119 0.485119 0.48512 0.48512 0.485121 0.485121 
0.485122 0.485123 0.485122 0.485108 0.484944 0.482751 0.47855 0.479959 0.479874 
0.479786 0.479694 0.479599 0.479501 0.4794 0.479295 0.479187 0.479076 0.478963 
0.478848 0.478731 0.478614 0.478496 0.478379 0.478263 0.478148 0.478036 0.477928 
0.477823 0.477723 0.477628 0.477539 0.477457 0.477383 0.477316 0.477258 0.477209 
0.47717 0.477141 0.477123 0.477115 0.477117 0.47713 0.477153 0.477186 0.477228 
0.477279 0.477338 0.477404 0.477476 0.477555 0.477638 0.477726 0.477817 0.477912 
0.478009 0.478108 0.478208 0.47831 0.478411 0.478512 0.478612 0.478711 0.478807 
0.478901 0.478991 0.479077 0.479159 0.479235 0.479307 0.479372 0.479432 0.479484 
0.479531 0.47957 0.479602 0.479627 0.479645 0.479655 0.479657 0.479651 0.479637 
0.479615 0.479585 0.479547 0.479499 0.479444 0.479379 0.479306 0.479225 0.479136 
0.47904 0.478938 0.47883 0.478719 0.478606 0.478493 0.478382 0.478274 0.478173 
0.478081 0.477998 0.477926 0.477867 0.477821 0.477789 0.47777 0.477764 0.47777 
0.477787 0.477813 0.477847 0.477887 0.477931 0.477977 0.478023 0.478067 0.478108 
0.478145 0.478175 0.478197 0.478212 0.478217 0.478212 0.478197 0.478171 0.478135 
0.478088 0.478031 0.477964 0.477887 0.477801 0.477707 0.477607 0.477502 0.477393 
0.477283 0.477174 0.477069 0.47697 0.476879 0.4768 0.476733 0.476679 0.476641 
0.476618 0.476609 0.476615 0.476632 0.47666 0.476696 0.476737 0.476781 0.476826 
0.476869 0.47691 0.476945 0.476974 0.476997 0.477013 0.477022 0.477023 0.477019 
0.477009 0.476994 0.476975 0.476954 0.47693 0.476906 0.476883 0.47686 0.47684 
0.476822 0.476808 0.476797 0.47679 0.476787 0.476787 0.47679 0.476797 0.476808 
0.476822 0.476839 0.47686 0.476885 0.476915 0.476949 0.476989 0.477035 0.477089 
0.47715 0.477221 0.477302 0.477394 0.477499 0.477618 0.477751 0.477901 0.478069 
0.478254 0.478458 0.47868 0.478925 0.479192 0.479469 0.479799 0.482533 0.482829 
0.483074 0.4833 0.483505 0.483692 0.483861 0.484013 0.484148 0.48427 0.484378 
0.484475 0.48456 0.484636 0.484704 0.484764 0.484816 0.484863 0.484904 0.484941 
0.484973 0.485001 0.485026 0.485047 0.485066 0.485083 0.485097 0.485109 0.48512 
0.485129 0.485137 0.485143 0.485149 0.485154 0.485157 0.48516 0.485163 0.485164 
0.485166 0.485166 0.485167 0.485167 0.485166 0.485166 0.485165 0.485164 0.485163 
0.485162 0.48516 0.485159 0.485157 0.485155 0.485154 0.485152 0.48515 0.485148 
0.485147 0.485145 0.485143 0.485141 0.48514 0.485138 0.485137 0.485135 0.485134 
0.485132 0.485131 0.485129 0.485128 0.485127 0.485126 0.485125 0.485124 0.485123 
0.485122 0.485122 0.485121 0.485121 0.48512 0.48512 0.485119 0.485119 0.485119 
0.485119 0.485119 0.485119 0.48512 0.48512 0.485121 0.485121 0.485122 0.485122 
0.485122 0.485108 0.484944 0.482751 0.47855 0.479959 0.479874 0.479785 0.479693 
0.479598 0.4795 0.479397 0.479292 0.479183 0.479071 0.478957 0.478841 0.478724 
0.478605 0.478486 0.478368 0.478251 0.478136 0.478023 0.477914 0.477808 0.477708 
0.477612 0.477523 0.47744 0.477365 0.477298 0.477239 0.47719 0.477151 0.477121 
0.477103 0.477094 0.477096 0.47711 0.477133 0.477166 0.477209 0.47726 0.47732 
0.477386 0.477459 0.477538 0.477621 0.477709 0.477801 0.477896 0.477994 0.478094 
0.478195 0.478297 0.4784 0.478502 0.478604 0.478704 0.478801 0.478896 0.478988 
0.479076 0.47916 0.479238 0.479311 0.479378 0.479439 0.479493 0.47954 0.479581 
0.479614 0.47964 0.479659 0.479669 0.479672 0.479667 0.479653 0.479631 0.479601 
0.479562 0.479514 0.479457 0.479391 0.479316 0.479233 0.479142 0.479044 0.478938 
0.478828 0.478714 0.478597 0.478481 0.478366 0.478256 0.478153 0.478058 0.477973 
0.477901 0.477841 0.477795 0.477763 0.477745 0.47774 0.477748 0.477768 0.477797 
0.477834 0.477877 0.477924 0.477974 0.478024 0.478072 0.478116 0.478155 0.478188 
0.478213 0.478229 0.478236 0.478232 0.478217 0.478192 0.478155 0.478107 0.478049 
0.477979 0.4779 0.477811 0.477714 0.47761 0.477501 0.477388 0.477274 0.477161 
0.477051 0.476948 0.476855 0.476773 0.476704 0.47665 0.476612 0.47659 0.476583 
0.476591 0.476612 0.476644 0.476684 0.47673 0.476778 0.476827 0.476875 0.476918 
0.476955 0.476987 0.47701 0.477026 0.477035 0.477036 0.47703 0.477018 0.477002 
0.476981 0.476957 0.476932 0.476906 0.47688 0.476856 0.476835 0.476817 0.476802 
0.47679 0.476783 0.476779 0.47678 0.476784 0.476791 0.476801 0.476815 0.476832 
0.476853 0.476877 0.476905 0.476938 0.476977 0.477021 0.477073 0.477132 0.4772 
0.477278 0.477368 0.47747 0.477585 0.477715 0.477862 0.478026 0.478208 0.478409 
0.478629 0.478873 0.479137 0.479415 0.479745 0.482537 0.482839 0.483088 0.483316 
0.483523 0.483711 0.48388 0.484031 0.484167 0.484288 0.484395 0.48449 0.484575 
0.48465 0.484716 0.484775 0.484827 0.484872 0.484913 0.484948 0.48498 0.485007 
0.485031 0.485052 0.485071 0.485087 0.485101 0.485113 0.485123 0.485132 0.485139 
0.485146 0.485151 0.485155 0.485159 0.485162 0.485164 0.485165 0.485167 0.485167 
0.485167 0.485167 0.485167 0.485166 0.485166 0.485164 0.485163 0.485162 0.48516 
0.485159 0.485157 0.485156 0.485154 0.485152 0.48515 0.485149 0.485147 0.485145 
0.485143 0.485142 0.48514 0.485138 0.485137 0.485135 0.485134 0.485132 0.485131 
0.485129 0.485128 0.485127 0.485126 0.485125 0.485124 0.485123 0.485122 0.485122 
0.485121 0.485121 0.48512 0.48512 0.485119 0.485119 0.485119 0.485119 0.485119 
0.485119 0.48512 0.48512 0.485121 0.485121 0.485122 0.485122 0.485122 0.485108 
0.484944 0.482751 0.47855 0.479959 0.479873 0.479785 0.479692 0.479596 0.479497 
0.479394 0.479287 0.479177 0.479064 0.478948 0.478831 0.478712 0.478592 0.478472 
0.478352 0.478234 0.478117 0.478004 0.477893 0.477787 0.477685 0.477588 0.477498 
0.477414 0.477338 0.47727 0.477211 0.477161 0.477121 0.477091 0.477072 0.477064 
0.477066 0.477079 0.477103 0.477137 0.477181 0.477233 0.477293 0.47736 0.477434 
0.477513 0.477597 0.477686 0.477778 0.477874 0.477972 0.478073 0.478176 0.478279 
0.478383 0.478487 0.47859 0.478692 0.478792 0.47889 0.478984 0.479074 0.47916 
0.479241 0.479317 0.479386 0.479449 0.479506 0.479555 0.479597 0.479632 0.47966 
0.47968 0.479691 0.479695 0.47969 0.479677 0.479655 0.479624 0.479584 0.479535 
0.479477 0.479409 0.479332 0.479246 0.479151 0.479049 0.478939 0.478824 0.478705 
0.478584 0.478462 0.478343 0.478228 0.478121 0.478023 0.477936 0.477861 0.477801 
0.477755 0.477724 0.477707 0.477705 0.477715 0.477738 0.477772 0.477813 0.477862 
0.477915 0.47797 0.478025 0.478078 0.478128 0.478172 0.478208 0.478237 0.478256 
0.478265 0.478262 0.478248 0.478223 0.478185 0.478136 0.478075 0.478003 0.47792 
0.477827 0.477725 0.477616 0.4775 0.477381 0.47726 0.47714 0.477024 0.476915 
0.476817 0.476731 0.476659 0.476604 0.476566 0.476546 0.476543 0.476555 0.476582 
0.47662 0.476667 0.476719 0.476775 0.47683 0.476883 0.476931 0.476972 0.477005 
0.477031 0.477047 0.477055 0.477055 0.477047 0.477033 0.477013 0.476989 0.476962 
0.476934 0.476905 0.476876 0.47685 0.476827 0.476807 0.476791 0.47678 0.476772 
0.476769 0.47677 0.476774 0.476781 0.476792 0.476805 0.476822 0.476842 0.476865 
0.476891 0.476923 0.476959 0.477001 0.477049 0.477105 0.477169 0.477244 0.477329 
0.477426 0.477536 0.477661 0.477803 0.477961 0.478138 0.478335 0.478552 0.478793 
0.479055 0.479332 0.479664 0.482544 0.482854 0.483109 0.483341 0.483551 0.48374 
0.483909 0.48406 0.484195 0.484314 0.48442 0.484513 0.484596 0.48467 0.484734 
0.484791 0.484842 0.484886 0.484925 0.48496 0.48499 0.485016 0.485039 0.48506 
0.485077 0.485093 0.485106 0.485118 0.485127 0.485136 0.485143 0.485149 0.485154 
0.485158 0.485161 0.485164 0.485166 0.485167 0.485168 0.485169 0.485169 0.485169 
0.485168 0.485167 0.485166 0.485165 0.485164 0.485163 0.485161 0.485159 0.485158 
0.485156 0.485154 0.485152 0.485151 0.485149 0.485147 0.485145 0.485144 0.485142 
0.48514 0.485138 0.485137 0.485135 0.485134 0.485132 0.485131 0.48513 0.485128 
0.485127 0.485126 0.485125 0.485124 0.485123 0.485122 0.485122 0.485121 0.485121 
0.48512 0.48512 0.485119 0.485119 0.485119 0.485119 0.485119 0.485119 0.48512 
0.48512 0.485121 0.485121 0.485122 0.485122 0.485122 0.485108 0.484944 0.482751 
0.47855 0.479959 0.479873 0.479784 0.479691 0.479594 0.479493 0.479389 0.47928 
0.479169 0.479054 0.478936 0.478817 0.478695 0.478574 0.478452 0.47833 0.478211 
0.478093 0.477978 0.477866 0.477758 0.477655 0.477557 0.477465 0.477381 0.477303 
0.477234 0.477174 0.477123 0.477082 0.477052 0.477033 0.477024 0.477026 0.47704 
0.477065 0.4771 0.477145 0.477198 0.477259 0.477327 0.477401 0.477481 0.477566 
0.477655 0.477748 0.477844 0.477944 0.478046 0.478149 0.478254 0.47836 0.478467 
0.478572 0.478677 0.47878 0.478881 0.478978 0.479072 0.479161 0.479245 0.479324 
0.479396 0.479463 0.479522 0.479574 0.479619 0.479656 0.479686 0.479707 0.47972 
0.479725 0.479721 0.479708 0.479686 0.479654 0.479614 0.479563 0.479503 0.479433 
0.479353 0.479263 0.479163 0.479056 0.47894 0.478819 0.478693 0.478565 0.478436 
0.47831 0.47819 0.478077 0.477974 0.477884 0.477808 0.477746 0.4777 0.47767 
0.477655 0.477656 0.477671 0.477699 0.477738 0.477786 0.477841 0.477901 0.477964 
0.478026 0.478087 0.478143 0.478193 0.478236 0.478269 0.478292 0.478303 0.478303 
0.47829 0.478264 0.478225 0.478174 0.47811 0.478034 0.477947 0.477848 0.477739 
0.477622 0.477499 0.47737 0.47724 0.477111 0.476987 0.47687 0.476764 0.476672 
0.476597 0.476541 0.476503 0.476486 0.476487 0.476506 0.47654 0.476587 0.476643 
0.476706 0.476771 0.476835 0.476895 0.476949 0.476995 0.477032 0.477059 0.477076 
0.477083 0.477081 0.47707 0.477052 0.477029 0.477 0.476969 0.476936 0.476903 
0.476871 0.476841 0.476816 0.476794 0.476777 0.476765 0.476758 0.476755 0.476756 
0.476761 0.476769 0.47678 0.476793 0.476809 0.476827 0.476849 0.476874 0.476902 
0.476935 0.476974 0.477018 0.477069 0.477129 0.477198 0.477277 0.477368 0.477471 
0.47759 0.477724 0.477875 0.478045 0.478235 0.478446 0.478683 0.478942 0.479218 
0.479553 0.482554 0.482876 0.483139 0.483376 0.483589 0.48378 0.483949 0.484099 
0.484232 0.48435 0.484453 0.484545 0.484625 0.484696 0.484758 0.484813 0.484862 
0.484904 0.484942 0.484974 0.485003 0.485028 0.48505 0.48507 0.485086 0.485101 
0.485113 0.485124 0.485133 0.485141 0.485148 0.485153 0.485158 0.485161 0.485164 
0.485167 0.485168 0.485169 0.48517 0.48517 0.48517 0.48517 0.485169 0.485169 
0.485167 0.485166 0.485165 0.485163 0.485162 0.48516 0.485158 0.485157 0.485155 
0.485153 0.485151 0.485149 0.485147 0.485146 0.485144 0.485142 0.48514 0.485139 
0.485137 0.485135 0.485134 0.485132 0.485131 0.48513 0.485128 0.485127 0.485126 
0.485125 0.485124 0.485123 0.485122 0.485122 0.485121 0.485121 0.48512 0.48512 
0.485119 0.485119 0.485119 0.485119 0.485119 0.485119 0.48512 0.48512 0.485121 
0.485121 0.485122 0.485122 0.485122 0.485108 0.484944 0.482751 0.47855 0.479959 
0.479873 0.479783 0.479689 0.479591 0.479489 0.479383 0.479272 0.479158 0.479041 
0.478921 0.478799 0.478675 0.478551 0.478427 0.478304 0.478182 0.478062 0.477946 
0.477832 0.477723 0.477619 0.477519 0.477426 0.47734 0.477261 0.47719 0.477129 
0.477077 0.477035 0.477005 0.476985 0.476977 0.47698 0.476995 0.477021 0.477057 
0.477103 0.477157 0.47722 0.477289 0.477364 0.477444 0.47753 0.477619 0.477713 
0.47781 0.47791 0.478013 0.478118 0.478225 0.478333 0.478441 0.47855 0.478658 
0.478764 0.478869 0.47897 0.479068 0.479161 0.479249 0.479332 0.479409 0.479479 
0.479541 0.479597 0.479645 0.479685 0.479717 0.479741 0.479755 0.479761 0.479758 
0.479746 0.479724 0.479692 0.47965 0.479598 0.479536 0.479462 0.479378 0.479283 
0.479178 0.479064 0.478941 0.478812 0.478677 0.47854 0.478402 0.478268 0.478139 
0.47802 0.477912 0.477817 0.477738 0.477676 0.47763 0.477601 0.477589 0.477593 
0.477613 0.477647 0.477693 0.47775 0.477814 0.477884 0.477956 0.478028 0.478098 
0.478163 0.478221 0.47827 0.47831 0.478337 0.478352 0.478354 0.478342 0.478316 
0.478276 0.478222 0.478155 0.478074 0.47798 0.477875 0.477758 0.477631 0.477497 
0.477357 0.477215 0.477074 0.476937 0.47681 0.476695 0.476596 0.476516 0.476457 
0.476421 0.476406 0.476414 0.476441 0.476485 0.476544 0.476613 0.476689 0.476766 
0.476842 0.476912 0.476974 0.477027 0.477068 0.477097 0.477114 0.47712 0.477115 
0.4771 0.477078 0.477048 0.477014 0.476977 0.476938 0.476899 0.476862 0.476829 
0.4768 0.476776 0.476758 0.476746 0.476739 0.476737 0.47674 0.476745 0.476754 
0.476765 0.476778 0.476793 0.476811 0.47683 0.476852 0.476877 0.476907 0.476941 
0.47698 0.477026 0.477079 0.477141 0.477213 0.477296 0.477391 0.4775 0.477626 
0.477768 0.477928 0.478109 0.478312 0.478541 0.478795 0.479068 0.479405 0.482569 
0.482907 0.483179 0.483423 0.48364 0.483831 0.484 0.484149 0.48428 0.484394 
0.484495 0.484583 0.484661 0.484729 0.484788 0.484841 0.484886 0.484927 0.484962 
0.484993 0.48502 0.485043 0.485064 0.485082 0.485097 0.485111 0.485122 0.485132 
0.48514 0.485148 0.485154 0.485158 0.485162 0.485166 0.485168 0.48517 0.485171 
0.485172 0.485173 0.485173 0.485172 0.485172 0.485171 0.48517 0.485169 0.485167 
0.485166 0.485164 0.485163 0.485161 0.485159 0.485157 0.485155 0.485153 0.485151 
0.48515 0.485148 0.485146 0.485144 0.485142 0.485141 0.485139 0.485137 0.485136 
0.485134 0.485133 0.485131 0.48513 0.485128 0.485127 0.485126 0.485125 0.485124 
0.485123 0.485123 0.485122 0.485121 0.485121 0.48512 0.48512 0.48512 0.485119 
0.485119 0.485119 0.485119 0.485119 0.48512 0.48512 0.485121 0.485121 0.485122 
0.485122 0.485122 0.485108 0.484944 0.482751 0.47855 0.479959 0.479872 0.479782 
0.479687 0.479588 0.479484 0.479375 0.479263 0.479146 0.479026 0.478903 0.478778 
0.478652 0.478525 0.478398 0.478273 0.478149 0.478028 0.47791 0.477795 0.477684 
0.477578 0.477477 0.477383 0.477295 0.477214 0.477142 0.477079 0.477026 0.476984 
0.476953 0.476934 0.476926 0.47693 0.476946 0.476974 0.477012 0.47706 0.477115 
0.477179 0.477249 0.477325 0.477406 0.477491 0.477581 0.477675 0.477773 0.477873 
0.477977 0.478083 0.478192 0.478302 0.478413 0.478524 0.478636 0.478746 0.478854 
0.47896 0.479062 0.47916 0.479254 0.479341 0.479422 0.479497 0.479564 0.479623 
0.479675 0.479718 0.479753 0.479779 0.479796 0.479804 0.479802 0.47979 0.479769 
0.479736 0.479694 0.47964 0.479575 0.479498 0.479409 0.479309 0.479197 0.479074 
0.478942 0.478802 0.478656 0.478508 0.478359 0.478214 0.478076 0.477948 0.477833 
0.477734 0.477652 0.477588 0.477542 0.477516 0.477507 0.477515 0.477541 0.477583 
0.477639 0.477706 0.477781 0.477862 0.477946 0.47803 0.478111 0.478186 0.478254 
0.478312 0.478359 0.478392 0.478412 0.478416 0.478406 0.47838 0.478338 0.478281 
0.478209 0.478122 0.478021 0.477907 0.47778 0.477641 0.477494 0.47734 0.477183 
0.477026 0.476875 0.476733 0.476606 0.476498 0.476412 0.476351 0.476315 0.476306 
0.476321 0.476359 0.476417 0.476491 0.476577 0.476669 0.476762 0.476853 0.476935 
0.477008 0.477068 0.477114 0.477145 0.477162 0.477166 0.477157 0.477138 0.477109 
0.477073 0.477031 0.476986 0.47694 0.476894 0.476851 0.476812 0.476779 0.476753 
0.476734 0.476722 0.476716 0.476716 0.47672 0.476727 0.476737 0.476749 0.476762 
0.476776 0.476792 0.476809 0.476828 0.476849 0.476874 0.476903 0.476936 0.476976 
0.477022 0.477075 0.477138 0.477211 0.477296 0.477395 0.477508 0.477639 0.477787 
0.477957 0.478148 0.478366 0.47861 0.478879 0.479216 0.482591 0.482948 0.483232 
0.483482 0.483703 0.483896 0.484064 0.48421 0.484338 0.484449 0.484545 0.48463 
0.484703 0.484768 0.484824 0.484873 0.484916 0.484953 0.484986 0.485014 0.485039 
0.485061 0.48508 0.485096 0.48511 0.485122 0.485133 0.485141 0.485149 0.485155 
0.48516 0.485165 0.485168 0.485171 0.485173 0.485174 0.485175 0.485176 0.485176 
0.485175 0.485175 0.485174 0.485173 0.485172 0.48517 0.485169 0.485167 0.485165 
0.485164 0.485162 0.48516 0.485158 0.485156 0.485154 0.485152 0.48515 0.485148 
0.485146 0.485144 0.485143 0.485141 0.485139 0.485137 0.485136 0.485134 0.485133 
0.485131 0.48513 0.485129 0.485127 0.485126 0.485125 0.485124 0.485123 0.485123 
0.485122 0.485121 0.485121 0.48512 0.48512 0.48512 0.485119 0.485119 0.485119 
0.485119 0.485119 0.48512 0.48512 0.485121 0.485121 0.485122 0.485122 0.485122 
0.485108 0.484944 0.482751 0.47855 0.479959 0.479872 0.479781 0.479685 0.479585 
0.479479 0.479368 0.479252 0.479132 0.479009 0.478883 0.478755 0.478626 0.478496 
0.478368 0.47824 0.478114 0.477992 0.477872 0.477756 0.477644 0.477536 0.477434 
0.477338 0.477249 0.477167 0.477093 0.477029 0.476975 0.476932 0.476901 0.476882 
0.476875 0.476881 0.476899 0.476928 0.476968 0.477017 0.477075 0.477139 0.47721 
0.477286 0.477367 0.477453 0.477543 0.477636 0.477734 0.477835 0.477939 0.478047 
0.478157 0.478269 0.478383 0.478497 0.478612 0.478726 0.478838 0.478949 0.479056 
0.479159 0.479257 0.47935 0.479437 0.479516 0.479588 0.479652 0.479708 0.479755 
0.479794 0.479823 0.479842 0.479852 0.479852 0.479841 0.479819 0.479787 0.479743 
0.479687 0.479619 0.479538 0.479445 0.479338 0.479218 0.479085 0.478942 0.47879 
0.478631 0.478468 0.478306 0.478148 0.477998 0.47786 0.477737 0.477633 0.477547 
0.477482 0.477438 0.477413 0.477408 0.477422 0.477455 0.477507 0.477573 0.477652 
0.47774 0.477835 0.477933 0.478031 0.478126 0.478214 0.478293 0.478362 0.478417 
0.478457 0.478482 0.478489 0.47848 0.478454 0.47841 0.47835 0.478273 0.478179 
0.47807 0.477945 0.477806 0.477654 0.47749 0.477319 0.477143 0.476967 0.476797 
0.476638 0.476496 0.476376 0.476282 0.476218 0.476185 0.476182 0.476207 0.476258 
0.476332 0.476426 0.476533 0.476646 0.47676 0.476868 0.476967 0.477052 0.47712 