# vtk DataFile Version 5.1
vtk output
ASCII
DATASET UNSTRUCTURED_GRID
POINTS 10043 double
-10.1 1.4499999993 0 -10.049999999 1.4499999993 0 -10.049999999 1.5 0 
-9.9999999985 1.4499999993 0 -9.9999999985 1.5 0 -9.9499999978 1.4499999993 0 
-9.9499999978 1.5 0 -9.899999997 1.4499999993 0 -9.899999997 1.5 0 
-9.8499999963 1.4499999993 0 -9.8499999963 1.5 0 -9.7999999955 1.4499999993 0 
-9.7999999955 1.5 0 -9.7499999948 1.4499999993 0 -9.7499999948 1.5 0 
-9.699999994 1.4499999993 0 -9.699999994 1.5 0 -9.6499999933 1.4499999993 0 
-9.6499999933 1.5 0 -9.5999999925 1.4499999993 0 -9.5999999925 1.5 0 
-9.5499999918 1.4499999993 0 -9.5499999918 1.5 0 -9.4999999911 1.4499999993 0 
-9.4999999911 1.5 0 -9.4499999903 1.4499999993 0 -9.4499999903 1.5 0 
-9.3999999896 1.4499999993 0 -9.3999999896 1.5 0 -9.3499999888 1.4499999993 0 
-9.3499999888 1.5 0 -9.2999999881 1.4499999993 0 -9.2999999881 1.5 0 
-9.2499999873 1.4499999993 0 -9.2499999873 1.5 0 -9.1999999866 1.4499999993 0 
-9.1999999866 1.5 0 -9.1499999858 1.4499999993 0 -9.1499999858 1.5 0 
-9.0999999851 1.4499999993 0 -9.0999999851 1.5 0 -9.0499999844 1.4499999993 0 
-9.0499999844 1.5 0 -8.9999999836 1.4499999993 0 -8.9999999836 1.5 0 
-8.9499999829 1.4499999993 0 -8.9499999829 1.5 0 -8.8999999821 1.4499999993 0 
-8.8999999821 1.5 0 -8.8499999814 1.4499999993 0 -8.8499999814 1.5 0 
-8.7999999806 1.4499999993 0 -8.7999999806 1.5 0 -8.7499999799 1.4499999993 0 
-8.7499999799 1.5 0 -8.6999999791 1.4499999993 0 -8.6999999791 1.5 0 
-8.6499999784 1.4499999993 0 -8.6499999784 1.5 0 -8.5999999776 1.4499999993 0 
-8.5999999776 1.5 0 -8.5499999769 1.4499999993 0 -8.5499999769 1.5 0 
-8.4999999762 1.4499999993 0 -8.4999999762 1.5 0 -8.4499999754 1.4499999993 0 
-8.4499999754 1.5 0 -8.3999999747 1.4499999993 0 -8.3999999747 1.5 0 
-8.3499999739 1.4499999993 0 -8.3499999739 1.5 0 -8.2999999732 1.4499999993 0 
-8.2999999732 1.5 0 -8.2499999724 1.4499999993 0 -8.2499999724 1.5 0 
-8.1999999717 1.4499999993 0 -8.1999999717 1.5 0 -8.1499999709 1.4499999993 0 
-8.1499999709 1.5 0 -8.0999999702 1.4499999993 0 -8.0999999702 1.5 0 
-8.0499999695 1.4499999993 0 -8.0499999695 1.5 0 -7.9999999687 1.4499999993 0 
-7.9999999687 1.5 0 -7.949999968 1.4499999993 0 -7.949999968 1.5 0 
-7.8999999672 1.4499999993 0 -7.8999999672 1.5 0 -7.8499999665 1.4499999993 0 
-7.8499999665 1.5 0 -7.7999999657 1.4499999993 0 -7.7999999657 1.5 0 
-7.749999965 1.4499999993 0 -7.749999965 1.5 0 -7.6999999642 1.4499999993 0 
-7.6999999642 1.5 0 -7.6499999635 1.4499999993 0 -7.6499999635 1.5 0 
-7.5999999627 1.4499999993 0 -7.5999999627 1.5 0 -7.549999962 1.4499999993 0 
-7.549999962 1.5 0 -7.4999999613 1.4499999993 0 -7.4999999613 1.5 0 
-7.4499999605 1.4499999993 0 -7.4499999605 1.5 0 -7.3999999598 1.4499999993 0 
-7.3999999598 1.5 0 -7.349999959 1.4499999993 0 -7.349999959 1.5 0 
-7.2999999583 1.4499999993 0 -7.2999999583 1.5 0 -7.2499999575 1.4499999993 0 
-7.2499999575 1.5 0 -7.1999999568 1.4499999993 0 -7.1999999568 1.5 0 
-7.149999956 1.4499999993 0 -7.149999956 1.5 0 -7.0999999553 1.4499999993 0 
-7.0999999553 1.5 0 -7.0499999546 1.4499999993 0 -7.0499999546 1.5 0 
-6.9999999538 1.4499999993 0 -6.9999999538 1.5 0 -6.9499999531 1.4499999993 0 
-6.9499999531 1.5 0 -6.8999999523 1.4499999993 0 -6.8999999523 1.5 0 
-6.8499999516 1.4499999993 0 -6.8499999516 1.5 0 -6.7999999508 1.4499999993 0 
-6.7999999508 1.5 0 -6.7499999501 1.4499999993 0 -6.7499999501 1.5 0 
-6.6999999493 1.4499999993 0 -6.6999999493 1.5 0 -6.6499999486 1.4499999993 0 
-6.6499999486 1.5 0 -6.5999999478 1.4499999993 0 -6.5999999478 1.5 0 
-6.5499999471 1.4499999993 0 -6.5499999471 1.5 0 -6.4999999464 1.4499999993 0 
-6.4999999464 1.5 0 -6.4499999456 1.4499999993 0 -6.4499999456 1.5 0 
-6.3999999449 1.4499999993 0 -6.3999999449 1.5 0 -6.3499999441 1.4499999993 0 
-6.3499999441 1.5 0 -6.2999999434 1.4499999993 0 -6.2999999434 1.5 0 
-6.2499999426 1.4499999993 0 -6.2499999426 1.5 0 -6.1999999419 1.4499999993 0 
-6.1999999419 1.5 0 -6.1499999411 1.4499999993 0 -6.1499999411 1.5 0 
-6.0999999404 1.4499999993 0 -6.0999999404 1.5 0 -6.0499999397 1.4499999993 0 
-6.0499999397 1.5 0 -5.9999999389 1.4499999993 0 -5.9999999389 1.5 0 
-5.9499999382 1.4499999993 0 -5.9499999382 1.5 0 -5.8999999374 1.4499999993 0 
-5.8999999374 1.5 0 -5.8499999367 1.4499999993 0 -5.8499999367 1.5 0 
-5.7999999359 1.4499999993 0 -5.7999999359 1.5 0 -5.7499999352 1.4499999993 0 
-5.7499999352 1.5 0 -5.6999999344 1.4499999993 0 -5.6999999344 1.5 0 
-5.6499999337 1.4499999993 0 -5.6499999337 1.5 0 -5.5999999329 1.4499999993 0 
-5.5999999329 1.5 0 -5.5499999322 1.4499999993 0 -5.5499999322 1.5 0 
-5.4999999315 1.4499999993 0 -5.4999999315 1.5 0 -5.4499999307 1.4499999993 0 
-5.4499999307 1.5 0 -5.39999993 1.4499999993 0 -5.39999993 1.5 0 
-5.3499999292 1.4499999993 0 -5.3499999292 1.5 0 -5.2999999285 1.4499999993 0 
-5.2999999285 1.5 0 -5.2499999277 1.4499999993 0 -5.2499999277 1.5 0 
-5.199999927 1.4499999993 0 -5.199999927 1.5 0 -5.1499999262 1.4499999993 0 
-5.1499999262 1.5 0 -5.0999999255 1.4499999993 0 -5.0999999255 1.5 0 
-5.0499999247 1.4499999993 0 -5.0499999247 1.5 0 -4.999999924 1.4499999993 0 
-4.999999924 1.5 0 -4.9499999233 1.4499999993 0 -4.9499999233 1.5 0 
-4.8999999225 1.4499999993 0 -4.8999999225 1.5 0 -4.8499999218 1.4499999993 0 
-4.8499999218 1.5 0 -4.799999921 1.4499999993 0 -4.799999921 1.5 0 
-4.7499999203 1.4499999993 0 -4.7499999203 1.5 0 -4.6999999195 1.4499999993 0 
-4.6999999195 1.5 0 -4.6499999188 1.4499999993 0 -4.6499999188 1.5 0 
-4.599999918 1.4499999993 0 -4.599999918 1.5 0 -4.5499999173 1.4499999993 0 
-4.5499999173 1.5 0 -4.4999999166 1.4499999993 0 -4.4999999166 1.5 0 
-4.4499999158 1.4499999993 0 -4.4499999158 1.5 0 -4.3999999151 1.4499999993 0 
-4.3999999151 1.5 0 -4.3499999143 1.4499999993 0 -4.3499999143 1.5 0 
-4.2999999136 1.4499999993 0 -4.2999999136 1.5 0 -4.2499999128 1.4499999993 0 
-4.2499999128 1.5 0 -4.1999999121 1.4499999993 0 -4.1999999121 1.5 0 
-4.1499999113 1.4499999993 0 -4.1499999113 1.5 0 -4.0999999106 1.4499999993 0 
-4.0999999106 1.5 0 -4.0499999098 1.4499999993 0 -4.0499999098 1.5 0 
-3.9999999091 1.4499999993 0 -3.9999999091 1.5 0 -3.9499999084 1.4499999993 0 
-3.9499999084 1.5 0 -3.8999999076 1.4499999993 0 -3.8999999076 1.5 0 
-3.8499999069 1.4499999993 0 -3.8499999069 1.5 0 -3.7999999061 1.4499999993 0 
-3.7999999061 1.5 0 -3.7499999054 1.4499999993 0 -3.7499999054 1.5 0 
-3.6999999046 1.4499999993 0 -3.6999999046 1.5 0 -3.6499999039 1.4499999993 0 
-3.6499999039 1.5 0 -3.5999999031 1.4499999993 0 -3.5999999031 1.5 0 
-3.5499999024 1.4499999993 0 -3.5499999024 1.5 0 -3.4999999017 1.4499999993 0 
-3.4999999017 1.5 0 -3.4499999009 1.4499999993 0 -3.4499999009 1.5 0 
-3.3999999002 1.4499999993 0 -3.3999999002 1.5 0 -3.3499998994 1.4499999993 0 
-3.3499998994 1.5 0 -3.2999998987 1.4499999993 0 -3.2999998987 1.5 0 
-3.2499998979 1.4499999993 0 -3.2499998979 1.5 0 -3.1999998972 1.4499999993 0 
-3.1999998972 1.5 0 -3.1499998964 1.4499999993 0 -3.1499998964 1.5 0 
-3.0999998957 1.4499999993 0 -3.0999998957 1.5 0 -3.0499998949 1.4499999993 0 
-3.0499998949 1.5 0 -2.9999998942 1.4499999993 0 -2.9999998942 1.5 0 
-2.9499998935 1.4499999993 0 -2.9499998935 1.5 0 -2.8999998927 1.4499999993 0 
-2.8999998927 1.5 0 -2.849999892 1.4499999993 0 -2.849999892 1.5 0 
-2.7999998912 1.4499999993 0 -2.7999998912 1.5 0 -2.7499998905 1.4499999993 0 
-2.7499998905 1.5 0 -2.6999998897 1.4499999993 0 -2.6999998897 1.5 0 
-2.649999889 1.4499999993 0 -2.649999889 1.5 0 -2.5999998882 1.4499999993 0 
-2.5999998882 1.5 0 -2.5499998875 1.4499999993 0 -2.5499998875 1.5 0 
-2.4999998868 1.4499999993 0 -2.4999998868 1.5 0 -2.449999886 1.4499999993 0 
-2.449999886 1.5 0 -2.3999998853 1.4499999993 0 -2.3999998853 1.5 0 
-2.3499998845 1.4499999993 0 -2.3499998845 1.5 0 -2.2999998838 1.4499999993 0 
-2.2999998838 1.5 0 -2.249999883 1.4499999993 0 -2.249999883 1.5 0 
-2.1999998823 1.4499999993 0 -2.1999998823 1.5 0 -2.1499998815 1.4499999993 0 
-2.1499998815 1.5 0 -2.0999998808 1.4499999993 0 -2.0999998808 1.5 0 
-2.04999988 1.4499999993 0 -2.04999988 1.5 0 -1.9999998793 1.4499999993 0 
-1.9999998793 1.5 0 -1.9499998786 1.4499999993 0 -1.9499998786 1.5 0 
-1.8999998778 1.4499999993 0 -1.8999998778 1.5 0 -1.8499998771 1.4499999993 0 
-1.8499998771 1.5 0 -1.7999998763 1.4499999993 0 -1.7999998763 1.5 0 
-1.7499998756 1.4499999993 0 -1.7499998756 1.5 0 -1.6999998748 1.4499999993 0 
-1.6999998748 1.5 0 -1.6499998741 1.4499999993 0 -1.6499998741 1.5 0 
-1.5999998733 1.4499999993 0 -1.5999998733 1.5 0 -1.5499998726 1.4499999993 0 
-1.5499998726 1.5 0 -1.4999998718 1.4499999993 0 -1.4999998718 1.5 0 
-1.4499998711 1.4499999993 0 -1.4499998711 1.5 0 -1.3999998704 1.4499999993 0 
-1.3999998704 1.5 0 -1.3499998696 1.4499999993 0 -1.3499998696 1.5 0 
-1.2999998689 1.4499999993 0 -1.2999998689 1.5 0 -1.2499998681 1.4499999993 0 
-1.2499998681 1.5 0 -1.1999998674 1.4499999993 0 -1.1999998674 1.5 0 
-1.1499998666 1.4499999993 0 -1.1499998666 1.5 0 -1.0999998659 1.4499999993 0 
-1.0999998659 1.5 0 -1.0499998651 1.4499999993 0 -1.0499998651 1.5 0 
-0.9999998644 1.4499999993 0 -0.9999998644 1.5 0 -0.94999986365 1.4499999993 0 
-0.94999986365 1.5 0 -0.89999986291 1.4499999993 0 -0.89999986291 1.5 0 
-0.84999986216 1.4499999993 0 -0.84999986216 1.5 0 -0.79999986142 1.4499999993 0 
-0.79999986142 1.5 0 -0.74999986067 1.4499999993 0 -0.74999986067 1.5 0 
-0.69999985993 1.4499999993 0 -0.69999985993 1.5 0 -0.64999985918 1.4499999993 0 
-0.64999985918 1.5 0 -0.59999985844 1.4499999993 0 -0.59999985844 1.5 0 
-0.54999985769 1.4499999993 0 -0.54999985769 1.5 0 -0.49999985695 1.4499999993 0 
-0.49999985695 1.5 0 -0.4499998562 1.4499999993 0 -0.4499998562 1.5 0 
-0.39999985546 1.4499999993 0 -0.39999985546 1.5 0 -0.34999985471 1.4499999993 0 
-0.34999985471 1.5 0 -0.29999985397 1.4499999993 0 -0.29999985397 1.5 0 
-0.24999985322 1.4499999993 0 -0.24999985322 1.5 0 -0.191663057 1.4499999993 0 
-0.17548248559 1.5 0 0.18862900414 1.4499999993 0 0.25000015423 1.4499999993 0 
[...]
CELL_DATA 9510
FIELD FieldData 4
Water_Depth_m 1 9510 float
0.479981 0.479942 0.479904 0.479865 0.479826 0.479787 0.479747 0.479707 0.479667 
0.479626 0.479585 0.479544 0.479502 0.47946 0.479418 0.479375 0.479332 0.479288 
0.479244 0.4792 0.479155 0.479109 0.479064 0.479018 0.478971 0.478925 0.478878 
0.47883 0.478783 0.478735 0.478688 0.47864 0.478593 0.478546 0.4785 0.478455 
0.478412 0.47837 0.47833 0.478292 0.478258 0.478227 0.4782 0.478177 0.478159 
0.478146 0.478139 0.478137 0.478142 0.478152 0.478167 0.478189 0.478215 0.478245 
0.478279 0.478316 0.478355 0.478396 0.478436 0.478476 0.478514 0.478549 0.478581 
0.478608 0.478631 0.478648 0.478659 0.478663 0.47866 0.478651 0.478633 0.478609 
0.478576 0.478537 0.47849 0.478437 0.478377 0.478313 0.478243 0.478171 0.478097 
0.478022 0.477947 0.477876 0.477809 0.477747 0.477694 0.477649 0.477615 0.477592 
0.477583 0.477586 0.477605 0.477637 0.477685 0.477746 0.477822 0.477911 0.478011 
0.478122 0.478242 0.478369 0.478501 0.478635 0.478771 0.478905 0.479036 0.479162 
0.479282 0.479394 0.479497 0.479591 0.479675 0.479749 0.479812 0.479865 0.479907 
0.479938 0.47996 0.479972 0.479974 0.479968 0.479952 0.479928 0.479895 0.479854 
0.479806 0.47975 0.479687 0.479617 0.479541 0.479459 0.479371 0.479278 0.479181 
0.47908 0.478976 0.478871 0.478766 0.478663 0.478563 0.478468 0.47838 0.478301 
0.478231 0.478173 0.478127 0.478093 0.478071 0.478061 0.478061 0.47807 0.478087 
0.478109 0.478134 0.478162 0.478189 0.478215 0.478238 0.478259 0.478276 0.478289 
0.478298 0.478303 0.478306 0.478307 0.478306 0.478303 0.478301 0.478299 0.478298 
0.478299 0.478302 0.478309 0.478319 0.478333 0.478352 0.478376 0.478407 0.478444 
0.478488 0.47854 0.478601 0.478672 0.478754 0.478848 0.478955 0.479077 0.479214 
0.479368 0.479539 0.479729 0.479939 0.480168 0.480414 0.48069 0.48097 0.481317 
0.484088 0.484391 0.484642 0.484874 0.485087 0.48528 0.485456 0.485614 0.485757 
0.485884 0.485999 0.486102 0.486193 0.486275 0.486348 0.486413 0.48647 0.486522 
0.486568 0.486609 0.486645 0.486677 0.486706 0.486732 0.486755 0.486775 0.486793 
0.486809 0.486823 0.486836 0.486847 0.486857 0.486866 0.486874 0.48688 0.486886 
0.486892 0.486897 0.486901 0.486904 0.486908 0.48691 0.486913 0.486915 0.486917 
0.486919 0.48692 0.486921 0.486923 0.486924 0.486924 0.486925 0.486926 0.486927 
0.486927 0.486928 0.486928 0.486929 0.486929 0.48693 0.48693 0.486931 0.486931 
0.486932 0.486932 0.486933 0.486934 0.486934 0.486935 0.486936 0.486936 0.486937 
0.486938 0.486939 0.48694 0.486941 0.486942 0.486943 0.486944 0.486946 0.486947 
0.486948 0.48695 0.486951 0.486952 0.486954 0.486956 0.486957 0.486959 0.486961 
0.486963 0.486965 0.486966 0.486953 0.486806 0.484625 0.480414 0.479981 0.479942 
0.479904 0.479865 0.479826 0.479787 0.479747 0.479707 0.479667 0.479627 0.479586 
0.479544 0.479503 0.479461 0.479418 0.479375 0.479332 0.479288 0.479244 0.4792 
0.479155 0.47911 0.479064 0.479018 0.478971 0.478925 0.478878 0.47883 0.478783 
0.478735 0.478687 0.478639 0.478592 0.478545 0.478499 0.478453 0.478409 0.478367 
0.478327 0.478289 0.478254 0.478223 0.478195 0.478172 0.478154 0.478141 0.478133 
0.478132 0.478136 0.478146 0.478162 0.478184 0.47821 0.478241 0.478276 0.478314 
0.478354 0.478395 0.478437 0.478477 0.478516 0.478552 0.478585 0.478613 0.478637 
0.478654 0.478665 0.47867 0.478667 0.478658 0.47864 0.478615 0.478582 0.478542 
0.478495 0.478441 0.47838 0.478314 0.478244 0.47817 0.478094 0.478017 0.477942 
0.477869 0.4778 0.477738 0.477683 0.477637 0.477602 0.477579 0.477569 0.477572 
0.47759 0.477623 0.477671 0.477733 0.477809 0.477898 0.477999 0.478111 0.478232 
0.478361 0.478494 0.47863 0.478767 0.478903 0.479035 0.479163 0.479284 0.479397 
0.479502 0.479596 0.479681 0.479756 0.479819 0.479872 0.479914 0.479947 0.479968 
0.47998 0.479983 0.479976 0.47996 0.479936 0.479903 0.479862 0.479813 0.479757 
0.479693 0.479623 0.479546 0.479463 0.479374 0.47928 0.479182 0.47908 0.478975 
0.478868 0.478762 0.478657 0.478555 0.478459 0.47837 0.478289 0.478219 0.47816 
0.478114 0.478081 0.47806 0.478051 0.478052 0.478063 0.478082 0.478105 0.478133 
0.478161 0.47819 0.478217 0.478241 0.478262 0.478279 0.478292 0.478301 0.478307 
0.478309 0.478309 0.478307 0.478304 0.4783 0.478298 0.478296 0.478296 0.478299 
0.478305 0.478315 0.478329 0.478347 0.478371 0.478401 0.478436 0.47848 0.478531 
0.478591 0.478661 0.478742 0.478834 0.47894 0.47906 0.479196 0.479348 0.479518 
0.479706 0.479914 0.48014 0.480389 0.480662 0.480945 0.481282 0.48409 0.484396 
0.484649 0.484882 0.485096 0.48529 0.485465 0.485624 0.485766 0.485893 0.486007 
0.486109 0.4862 0.486282 0.486354 0.486418 0.486476 0.486527 0.486572 0.486613 
0.486649 0.486681 0.486709 0.486735 0.486757 0.486777 0.486795 0.486811 0.486825 
0.486837 0.486848 0.486858 0.486867 0.486874 0.486881 0.486887 0.486892 0.486897 
0.486901 0.486905 0.486908 0.486911 0.486913 0.486915 0.486917 0.486919 0.48692 
0.486922 0.486923 0.486924 0.486925 0.486925 0.486926 0.486927 0.486927 0.486928 
0.486928 0.486929 0.486929 0.48693 0.48693 0.486931 0.486931 0.486932 0.486932 
0.486933 0.486934 0.486934 0.486935 0.486936 0.486936 0.486937 0.486938 0.486939 
0.48694 0.486941 0.486942 0.486943 0.486944 0.486946 0.486947 0.486948 0.48695 
0.486951 0.486952 0.486954 0.486956 0.486957 0.486959 0.486961 0.486963 0.486965 
0.486966 0.486953 0.486806 0.484625 0.480414 0.479981 0.479943 0.479904 0.479865 
0.479826 0.479787 0.479748 0.479708 0.479668 0.479627 0.479586 0.479545 0.479503 
0.479461 0.479419 0.479376 0.479333 0.479289 0.479245 0.4792 0.479155 0.47911 
0.479064 0.479018 0.478972 0.478925 0.478877 0.47883 0.478782 0.478734 0.478686 
0.478638 0.47859 0.478542 0.478495 0.478449 0.478405 0.478362 0.478321 0.478282 
0.478246 0.478214 0.478186 0.478162 0.478143 0.47813 0.478122 0.47812 0.478124 
0.478135 0.478151 0.478174 0.478201 0.478234 0.47827 0.478309 0.478351 0.478394 
0.478437 0.47848 0.478521 0.478559 0.478593 0.478623 0.478648 0.478666 0.478678 
0.478684 0.478681 0.478672 0.478654 0.478628 0.478595 0.478553 0.478504 0.478448 
0.478385 0.478317 0.478244 0.478167 0.478088 0.478009 0.47793 0.477854 0.477783 
0.477718 0.477661 0.477613 0.477577 0.477552 0.477541 0.477544 0.477562 0.477595 
0.477642 0.477705 0.477782 0.477872 0.477975 0.47809 0.478213 0.478344 0.47848 
0.478619 0.478759 0.478898 0.479034 0.479164 0.479288 0.479403 0.47951 0.479607 
0.479693 0.479769 0.479833 0.479887 0.47993 0.479963 0.479985 0.479997 0.48 
0.479993 0.479977 0.479952 0.479919 0.479877 0.479828 0.47977 0.479706 0.479634 
0.479556 0.479472 0.479381 0.479285 0.479184 0.479079 0.478972 0.478862 0.478752 
0.478644 0.47854 0.47844 0.478348 0.478266 0.478194 0.478135 0.478088 0.478056 
0.478037 0.47803 0.478035 0.478049 0.478071 0.478098 0.478129 0.478161 0.478192 
0.478222 0.478248 0.47827 0.478287 0.4783 0.478308 0.478313 0.478314 0.478312 
0.478309 0.478304 0.4783 0.478295 0.478293 0.478292 0.478294 0.478298 0.478307 
0.47832 0.478337 0.47836 0.478388 0.478423 0.478464 0.478514 0.478572 0.478639 
0.478717 0.478807 0.47891 0.479027 0.479159 0.479308 0.479474 0.479659 0.479864 
0.480089 0.480337 0.480606 0.48089 0.481227 0.484094 0.484406 0.484663 0.484899 
0.485114 0.485309 0.485485 0.485643 0.485785 0.485911 0.486024 0.486125 0.486215 
0.486295 0.486366 0.48643 0.486486 0.486536 0.486581 0.48662 0.486656 0.486687 
0.486715 0.48674 0.486762 0.486781 0.486799 0.486814 0.486828 0.48684 0.486851 
0.48686 0.486869 0.486876 0.486883 0.486889 0.486894 0.486898 0.486902 0.486906 
0.486909 0.486912 0.486914 0.486916 0.486918 0.486919 0.486921 0.486922 0.486923 
0.486924 0.486925 0.486926 0.486926 0.486927 0.486928 0.486928 0.486929 0.486929 
0.48693 0.48693 0.48693 0.486931 0.486931 0.486932 0.486933 0.486933 0.486934 
0.486934 0.486935 0.486936 0.486936 0.486937 0.486938 0.486939 0.48694 0.486941 
0.486942 0.486943 0.486944 0.486946 0.486947 0.486948 0.48695 0.486951 0.486952 
0.486954 0.486956 0.486957 0.486959 0.486961 0.486963 0.486965 0.486965 0.486952 
0.486806 0.484625 0.480414 0.479981 0.479943 0.479904 0.479866 0.479827 0.479788 
0.479748 0.479709 0.479668 0.479628 0.479587 0.479546 0.479504 0.479462 0.479419 
0.479377 0.479333 0.47929 0.479245 0.479201 0.479156 0.479111 0.479065 0.479018 
0.478972 0.478925 0.478877 0.478829 0.478781 0.478733 0.478684 0.478635 0.478587 
0.478538 0.478491 0.478444 0.478398 0.478354 0.478312 0.478272 0.478235 0.478201 
0.478172 0.478147 0.478127 0.478113 0.478105 0.478103 0.478107 0.478118 0.478135 
0.478159 0.478188 0.478222 0.47826 0.478302 0.478347 0.478392 0.478439 0.478484 
0.478528 0.478568 0.478605 0.478638 0.478664 0.478685 0.478698 0.478704 0.478703 
0.478693 0.478675 0.478648 0.478613 0.47857 0.478519 0.47846 0.478394 0.478321 
0.478244 0.478163 0.478079 0.477995 0.477912 0.477832 0.477756 0.477687 0.477627 
0.477577 0.477538 0.477512 0.477499 0.477501 0.477519 0.477551 0.477599 0.477662 
0.477741 0.477833 0.477939 0.478056 0.478184 0.478319 0.478459 0.478603 0.478748 
0.478891 0.479031 0.479166 0.479294 0.479413 0.479522 0.479622 0.47971 0.479788 
0.479854 0.479909 0.479953 0.479987 0.480009 0.480022 0.480024 0.480018 0.480001 
0.479976 0.479942 0.4799 0.479849 0.479791 0.479725 0.479652 0.479571 0.479484 
0.479391 0.479292 0.479188 0.479079 0.478967 0.478853 0.478738 0.478625 0.478516 
0.478412 0.478316 0.47823 0.478156 0.478095 0.478049 0.478017 0.478001 0.477998 
0.478007 0.478027 0.478055 0.478088 0.478124 0.478161 0.478197 0.478229 0.478258 
0.478281 0.478299 0.478311 0.478319 0.478322 0.478321 0.478318 0.478312 0.478305 
0.478298 0.478292 0.478287 0.478285 0.478285 0.478288 0.478295 0.478307 0.478322 
0.478343 0.47837 0.478402 0.478441 0.478488 0.478543 0.478607 0.478681 0.478767 
0.478865 0.478977 0.479104 0.479248 0.479409 0.479589 0.479789 0.48001 0.480256 
0.480523 0.480806 0.481145 0.484101 0.484422 0.484684 0.484925 0.485142 0.485339 
0.485515 0.485672 0.485813 0.485938 0.48605 0.486149 0.486237 0.486315 0.486385 
0.486446 0.486501 0.48655 0.486593 0.486632 0.486666 0.486696 0.486723 0.486747 
0.486769 0.486788 0.486804 0.486819 0.486832 0.486844 0.486854 0.486864 0.486872 
0.486879 0.486885 0.486891 0.486896 0.4869 0.486904 0.486907 0.48691 0.486913 
0.486915 0.486917 0.486919 0.48692 0.486921 0.486923 0.486924 0.486925 0.486925 
0.486926 0.486927 0.486927 0.486928 0.486928 0.486929 0.486929 0.48693 0.48693 
0.486931 0.486931 0.486932 0.486932 0.486933 0.486933 0.486934 0.486934 0.486935 
0.486936 0.486937 0.486937 0.486938 0.486939 0.48694 0.486941 0.486942 0.486943 
0.486944 0.486946 0.486947 0.486948 0.48695 0.486951 0.486952 0.486954 0.486956 
0.486957 0.486959 0.486961 0.486963 0.486965 0.486965 0.486952 0.486806 0.484626 
0.480414 0.479981 0.479943 0.479905 0.479866 0.479828 0.479789 0.479749 0.47971 
0.47967 0.479629 0.479588 0.479547 0.479505 0.479463 0.479421 0.479378 0.479334 
0.479291 0.479246 0.479202 0.479157 0.479111 0.479065 0.479019 0.478972 0.478925 
0.478877 0.478829 0.47878 0.478731 0.478682 0.478632 0.478583 0.478533 0.478484 
0.478436 0.478389 0.478343 0.478299 0.478258 0.478219 0.478184 0.478153 0.478126 
0.478105 0.47809 0.478081 0.478079 0.478083 0.478095 0.478113 0.478138 0.478169 
0.478205 0.478247 0.478292 0.47834 0.47839 0.47844 0.47849 0.478537 0.478581 
0.478622 0.478657 0.478687 0.478709 0.478725 0.478732 0.478731 0.478721 0.478703 
0.478675 0.478639 0.478593 0.478538 0.478475 0.478405 0.478327 0.478245 0.478157 
0.478068 0.477977 0.477887 0.477801 0.47772 0.477646 0.477581 0.477527 0.477485 
0.477457 0.477443 0.477444 0.47746 0.477493 0.477541 0.477605 0.477685 0.47778 
0.47789 0.478011 0.478144 0.478284 0.478431 0.478581 0.478732 0.478882 0.479028 
0.479169 0.479301 0.479425 0.479539 0.479642 0.479734 0.479814 0.479882 0.479939 
0.479984 0.480018 0.480042 0.480055 0.480057 0.48005 0.480034 0.480008 0.479973 
0.47993 0.479878 0.479818 0.47975 0.479674 0.479591 0.479501 0.479405 0.479301 
0.479192 0.479079 0.478961 0.47884 0.478719 0.478599 0.478483 0.478373 0.478271 
0.47818 0.478102 0.47804 0.477994 0.477964 0.477951 0.477954 0.47797 0.477997 
0.478033 0.478075 0.478119 0.478163 0.478204 0.478241 0.478273 0.478298 0.478316 
0.478328 0.478334 0.478335 0.478332 0.478325 0.478317 0.478307 0.478297 0.478288 
0.47828 0.478275 0.478273 0.478275 0.47828 0.478289 0.478303 0.478322 0.478346 
0.478375 0.478411 0.478454 0.478505 0.478565 0.478634 0.478714 0.478806 0.478912 
0.479032 0.479168 0.479322 0.479495 0.479688 0.479903 0.480144 0.480408 0.48069 
0.481031 0.484112 0.484444 0.484715 0.484961 0.485182 0.485379 0.485556 0.485712 
0.485851 0.485975 0.486084 0.486181 0.486266 0.486342 0.486409 0.486469 0.486522 
0.486569 0.48661 0.486647 0.48668 0.486709 0.486735 0.486757 0.486778 0.486796 
0.486812 0.486826 0.486838 0.486849 0.486859 0.486868 0.486876 0.486882 0.486888 
0.486894 0.486898 0.486902 0.486906 0.486909 0.486912 0.486914 0.486916 0.486918 
0.48692 0.486921 0.486922 0.486923 0.486924 0.486925 0.486926 0.486927 0.486927 
0.486928 0.486928 0.486929 0.486929 0.48693 0.48693 0.48693 0.486931 0.486931 
0.486932 0.486932 0.486933 0.486933 0.486934 0.486935 0.486935 0.486936 0.486937 
0.486937 0.486938 0.486939 0.48694 0.486941 0.486942 0.486943 0.486944 0.486946 
0.486947 0.486948 0.48695 0.486951 0.486952 0.486954 0.486956 0.486957 0.486959 
0.486961 0.486963 0.486965 0.486965 0.486952 0.486806 0.484626 0.480414 0.479981 
0.479943 0.479905 0.479867 0.479829 0.47979 0.479751 0.479711 0.479671 0.479631 
0.47959 0.479548 0.479507 0.479465 0.479422 0.479379 0.479336 0.479292 0.479248 
0.479203 0.479158 0.479112 0.479066 0.479019 0.478972 0.478925 0.478877 0.478828 
0.478779 0.478729 0.478679 0.478628 0.478578 0.478527 0.478477 0.478427 0.478378 
0.47833 0.478284 0.478241 0.4782 0.478162 0.478129 0.478101 0.478078 0.478061 
0.478051 0.478048 0.478053 0.478065 0.478084 0.478111 0.478145 0.478184 0.47823 
0.478279 0.478332 0.478387 0.478442 0.478496 0.478549 0.478598 0.478643 0.478682 
0.478715 0.478741 0.478758 0.478767 0.478767 0.478758 0.478739 0.47871 0.478671 
0.478622 0.478563 0.478495 0.478419 0.478335 0.478245 0.47815 0.478052 0.477953 
0.477856 0.477762 0.477674 0.477593 0.477523 0.477464 0.477418 0.477387 0.477371 
0.477371 0.477387 0.477419 0.477467 0.477532 0.477614 0.477713 0.477827 0.477954 
0.478093 0.478241 0.478395 0.478553 0.478713 0.47887 0.479024 0.479172 0.479311 
0.479441 0.47956 0.479668 0.479763 0.479846 0.479917 0.479975 0.480022 0.480057 
0.480081 0.480095 0.480098 0.480091 0.480074 0.480047 0.480012 0.479967 0.479913 
0.479851 0.479781 0.479703 0.479617 0.479523 0.479422 0.479313 0.479199 0.479078 
0.478953 0.478825 0.478695 0.478566 0.478441 0.478322 0.478212 0.478115 0.478032 
0.477968 0.477921 0.477895 0.477887 0.477896 0.477922 0.477959 0.478006 0.478058 
0.478113 0.478166 0.478215 0.478258 0.478293 0.47832 0.478339 0.47835 0.478354 
0.478352 0.478345 0.478335 0.478322 0.478308 0.478294 0.478282 0.478271 0.478263 
0.478258 0.478257 0.47826 0.478268 0.478279 0.478295 0.478316 0.478343 0.478375 
0.478413 0.478459 0.478513 0.478576 0.478649 0.478733 0.47883 0.478942 0.479069 
0.479213 0.479376 0.47956 0.479767 0.48 0.480259 0.480537 0.480882 0.484128 
0.484475 0.484756 0.485008 0.485233 0.485432 0.485608 0.485763 0.4859 0.48602 
0.486127 0.48622 0.486303 0.486376 0.48644 0.486497 0.486547 0.486591 0.486631 
0.486666 0.486697 0.486724 0.486748 0.48677 0.486789 0.486806 0.486821 0.486834 
0.486846 0.486856 0.486865 0.486873 0.486881 0.486887 0.486892 0.486897 0.486901 
0.486905 0.486909 0.486911 0.486914 0.486916 0.486918 0.48692 0.486921 0.486922 
0.486923 0.486924 0.486925 0.486926 0.486927 0.486927 0.486928 0.486928 0.486929 
0.486929 0.486929 0.48693 0.48693 0.486931 0.486931 0.486932 0.486932 0.486932 
0.486933 0.486933 0.486934 0.486935 0.486935 0.486936 0.486937 0.486937 0.486938 
0.486939 0.48694 0.486941 0.486942 0.486943 0.486944 0.486946 0.486947 0.486948 
0.48695 0.486951 0.486953 0.486954 0.486956 0.486957 0.486959 0.486961 0.486963 
0.486965 0.486965 0.486952 0.486806 0.484626 0.480414 0.479981 0.479944 0.479906 
0.479868 0.47983 0.479791 0.479752 0.479713 0.479673 0.479632 0.479591 0.47955 
0.479508 0.479466 0.479424 0.479381 0.479337 0.479293 0.479249 0.479204 0.479159 
0.479113 0.479067 0.47902 0.478973 0.478925 0.478876 0.478827 0.478777 0.478727 
0.478676 0.478624 0.478572 0.47852 0.478468 0.478416 0.478365 0.478315 0.478266 
0.47822 0.478176 0.478136 0.4781 0.478069 0.478044 0.478026 0.478014 0.478011 
0.478015 0.478028 0.478049 0.478078 0.478114 0.478158 0.478208 0.478263 0.478322 
0.478382 0.478443 0.478504 0.478562 0.478617 0.478667 0.478712 0.478749 0.478778 
0.478799 0.47881 0.478811 0.478802 0.478782 0.478751 0.478709 0.478657 0.478593 
0.47852 0.478436 0.478344 0.478245 0.478141 0.478033 0.477924 0.477816 0.477713 
0.477616 0.477528 0.47745 0.477386 0.477336 0.477302 0.477284 0.477282 0.477298 
0.47733 0.477379 0.477445 0.477531 0.477634 0.477754 0.477888 0.478034 0.478191 
0.478354 0.478521 0.47869 0.478857 0.47902 0.479177 0.479324 0.479461 0.479586 
0.479699 0.479798 0.479885 0.479958 0.480018 0.480066 0.480103 0.480128 0.480142 
0.480145 0.480138 0.480121 0.480094 0.480057 0.48001 0.479955 0.47989 0.479818 
0.479736 0.479647 0.479548 0.479442 0.479328 0.479206 0.479078 0.478944 0.478806 
0.478665 0.478525 0.478388 0.478258 0.478138 0.478032 0.477943 0.477875 0.477829 
0.477806 0.477805 0.477824 0.477861 0.477912 0.477973 0.47804 0.478108 0.478173 
0.478232 0.478282 0.478322 0.478351 0.47837 0.478379 0.47838 0.478374 0.478362 
0.478347 0.478329 0.47831 0.478291 0.478274 0.478259 0.478248 0.47824 0.478237 
0.478237 0.478242 0.478251 0.478264 0.478282 0.478305 0.478332 0.478366 0.478405 
0.478452 0.478508 0.478572 0.478647 0.478734 0.478835 0.47895 0.479083 0.479234 
0.479406 0.479601 0.479822 0.480071 0.480344 0.480689 0.48415 0.484518 0.48481 
0.485069 0.485298 0.485498 0.485673 0.485825 0.485959 0.486076 0.486178 0.486268 
0.486346 0.486415 0.486476 0.48653 0.486577 0.486618 0.486655 0.486688 0.486717 
0.486742 0.486764 0.486784 0.486802 0.486818 0.486831 0.486844 0.486854 0.486864 
0.486872 0.48688 0.486886 0.486892 0.486897 0.486901 0.486905 0.486909 0.486912 
0.486914 0.486916 0.486918 0.48692 0.486921 0.486923 0.486924 0.486925 0.486926 
0.486926 0.486927 0.486927 0.486928 0.486928 0.486929 0.486929 0.48693 0.48693 
0.48693 0.486931 0.486931 0.486931 0.486932 0.486932 0.486933 0.486933 0.486934 
0.486934 0.486935 0.486935 0.486936 0.486937 0.486938 0.486938 0.486939 0.48694 
0.486941 0.486942 0.486943 0.486944 0.486946 0.486947 0.486948 0.48695 0.486951 
0.486953 0.486954 0.486956 0.486957 0.486959 0.486961 0.486963 0.486965 0.486966 
0.486952 0.486806 0.484625 0.480414 0.479981 0.479944 0.479907 0.479869 0.479831 
0.479793 0.479754 0.479715 0.479675 0.479634 0.479593 0.479552 0.47951 0.479468 
0.479425 0.479382 0.479339 0.479295 0.479251 0.479206 0.47916 0.479115 0.479068 
0.479021 0.478974 0.478925 0.478876 0.478826 0.478776 0.478724 0.478672 0.478619 
0.478566 0.478512 0.478458 0.478404 0.47835 0.478297 0.478245 0.478196 0.478148 
0.478105 0.478066 0.478032 0.478004 0.477983 0.47797 0.477965 0.47797 0.477983 
0.478006 0.478037 0.478078 0.478126 0.478182 0.478243 0.478309 0.478376 0.478445 
0.478513 0.478578 0.47864 0.478696 0.478746 0.478789 0.478822 0.478846 0.47886 
0.478862 0.478853 0.478832 0.4788 0.478755 0.478698 0.478629 0.478548 0.478456 
0.478355 0.478245 0.478129 0.478009 0.477888 0.477769 0.477654 0.477546 0.477449 
0.477365 0.477294 0.47724 0.477203 0.477183 0.477181 0.477198 0.477232 0.477282 
0.477353 0.477443 0.477553 0.477679 0.47782 0.477975 0.478141 0.478314 0.478491 
0.478671 0.478848 0.479021 0.479186 0.479342 0.479486 0.479617 0.479735 0.479839 
0.479929 0.480005 0.480067 0.480117 0.480154 0.48018 0.480195 0.480199 0.480192 
0.480174 0.480146 0.480108 0.48006 0.480002 0.479935 0.479859 0.479775 0.479681 
0.479578 0.479466 0.479345 0.479216 0.479078 0.478933 0.478783 0.478629 0.478475 
0.478324 0.478179 0.478046 0.477929 0.477832 0.47776 0.477713 0.477695 0.477703 