# vtk DataFile Version 5.1
vtk output
ASCII
DATASET UNSTRUCTURED_GRID
POINTS 4929 double
0.1016 1.5 0 0.1016 1.45 0 0.1016 1.4 0 
0.1016 1.35 0 0.1016 1.3 0 0.1016 1.25 0 
0.1016 1.2 0 0.1016 1.15 0 0.1016 1.1 0 
0.1016 1.05 0 0.1016 1 0 0.1016 0.95 0 
0.1016 0.9 0 0.1016 0.85 0 0.1016 0.8 0 
0.1016 0.75 0 0.1016 0.7 0 0.1016 0.65 0 
0.1016 0.6 0 0.1016 0.55 0 0.1016 0.5 0 
0.1016 0.45 0 0.1016 0.4 0 0.1016 0.35 0 
0.1016 0.3 0 0.1016 0.25 0 0.1016 0.2 0 
0.1016 0.15 0 0.1016 0.1 0 0.1016 0.05 0 
0.1016 0 0 5.08 1.5 0 5.08 1.45 0 
5.08 1.4 0 5.08 1.35 0 5.08 1.3 0 
5.08 1.25 0 5.08 1.2 0 5.08 1.15 0 
5.08 1.1 0 5.08 1.05 0 5.08 1 0 
5.08 0.95 0 5.08 0.9 0 5.08 0.85 0 
5.08 0.8 0 5.08 0.75 0 5.08 0.7 0 
5.08 0.65 0 5.08 0.6 0 5.08 0.55 0 
5.08 0.5 0 5.08 0.45 0 5.08 0.4 0 
5.08 0.35 0 5.08 0.3 0 5.08 0.25 0 
5.08 0.2 0 5.08 0.15 0 5.08 0.1 0 
5.08 0.05 0 5.08 0 0 0.12737462728 1.5 0 
0.12737462728 1.45 0 0.12737462728 1.4 0 0.12737462728 1.35 0 
0.12737462728 1.3 0 0.12737462728 1.25 0 0.12737462728 1.2 0 
0.12737462728 1.15 0 0.12737462728 1.1 0 0.12737462728 1.05 0 
0.12737462728 1 0 0.12737462728 0.95 0 0.12737462728 0.9 0 
0.12737462728 0.85 0 0.12737462728 0.8 0 0.12737462728 0.75 0 
0.12737462728 0.7 0 0.12737462728 0.65 0 0.12737462728 0.6 0 
0.12737462728 0.55 0 0.12737462728 0.5 0 0.12737462728 0.45 0 
0.12737462728 0.4 0 0.12737462728 0.35 0 0.12737462728 0.3 0 
0.12737462728 0.25 0 0.12737462728 0.2 0 0.12737462728 0.15 0 
0.12737462728 0.1 0 0.12737462728 0.05 0 0.12737462728 0 0 
0.15441581276 1.5 0 0.15441581276 1.45 0 0.15441581276 1.4 0 
0.15441581276 1.35 0 0.15441581276 1.3 0 0.15441581276 1.25 0 
0.15441581276 1.2 0 0.15441581276 1.15 0 0.15441581276 1.1 0 
0.15441581276 1.05 0 0.15441581276 1 0 0.15441581276 0.95 0 
0.15441581276 0.9 0 0.15441581276 0.85 0 0.15441581276 0.8 0 
0.15441581276 0.75 0 0.15441581276 0.7 0 0.15441581276 0.65 0 
0.15441581276 0.6 0 0.15441581276 0.55 0 0.15441581276 0.5 0 
0.15441581276 0.45 0 0.15441581276 0.4 0 0.15441581276 0.35 0 
0.15441581276 0.3 0 0.15441581276 0.25 0 0.15441581276 0.2 0 
0.15441581276 0.15 0 0.15441581276 0.1 0 0.15441581276 0.05 0 
0.15441581276 0 0 0.18278579477 1.5 0 0.18278579477 1.45 0 
0.18278579477 1.4 0 0.18278579477 1.35 0 0.18278579477 1.3 0 
0.18278579477 1.25 0 0.18278579477 1.2 0 0.18278579477 1.15 0 
0.18278579477 1.1 0 0.18278579477 1.05 0 0.18278579477 1 0 
0.18278579477 0.95 0 0.18278579477 0.9 0 0.18278579477 0.85 0 
0.18278579477 0.8 0 0.18278579477 0.75 0 0.18278579477 0.7 0 
0.18278579477 0.65 0 0.18278579477 0.6 0 0.18278579477 0.55 0 
0.18278579477 0.5 0 0.18278579477 0.45 0 0.18278579477 0.4 0 
0.18278579477 0.35 0 0.18278579477 0.3 0 0.18278579477 0.25 0 
0.18278579477 0.2 0 0.18278579477 0.15 0 0.18278579477 0.1 0 
0.18278579477 0.05 0 0.18278579477 0 0 0.21254987001 1.5 0 
0.21254987001 1.45 0 0.21254987001 1.4 0 0.21254987001 1.35 0 
0.21254987001 1.3 0 0.21254987001 1.25 0 0.21254987001 1.2 0 
0.21254987001 1.15 0 0.21254987001 1.1 0 0.21254987001 1.05 0 
0.21254987001 1 0 0.21254987001 0.95 0 0.21254987001 0.9 0 
0.21254987001 0.85 0 0.21254987001 0.8 0 0.21254987001 0.75 0 
0.21254987001 0.7 0 0.21254987001 0.65 0 0.21254987001 0.6 0 
0.21254987001 0.55 0 0.21254987001 0.5 0 0.21254987001 0.45 0 
0.21254987001 0.4 0 0.21254987001 0.35 0 0.21254987001 0.3 0 
0.21254987001 0.25 0 0.21254987001 0.2 0 0.21254987001 0.15 0 
0.21254987001 0.1 0 0.21254987001 0.05 0 0.21254987001 0 0 
0.24377654385 1.5 0 0.24377654385 1.45 0 0.24377654385 1.4 0 
0.24377654385 1.35 0 0.24377654385 1.3 0 0.24377654385 1.25 0 
0.24377654385 1.2 0 0.24377654385 1.15 0 0.24377654385 1.1 0 
0.24377654385 1.05 0 0.24377654385 1 0 0.24377654385 0.95 0 
0.24377654385 0.9 0 0.24377654385 0.85 0 0.24377654385 0.8 0 
0.24377654385 0.75 0 0.24377654385 0.7 0 0.24377654385 0.65 0 
0.24377654385 0.6 0 0.24377654385 0.55 0 0.24377654385 0.5 0 
0.24377654385 0.45 0 0.24377654385 0.4 0 0.24377654385 0.35 0 
0.24377654385 0.3 0 0.24377654385 0.25 0 0.24377654385 0.2 0 
0.24377654385 0.15 0 0.24377654385 0.1 0 0.24377654385 0.05 0 
0.24377654385 0 0 0.27653768798 1.5 0 0.27653768798 1.45 0 
0.27653768798 1.4 0 0.27653768798 1.35 0 0.27653768798 1.3 0 
0.27653768798 1.25 0 0.27653768798 1.2 0 0.27653768798 1.15 0 
0.27653768798 1.1 0 0.27653768798 1.05 0 0.27653768798 1 0 
0.27653768798 0.95 0 0.27653768798 0.9 0 0.27653768798 0.85 0 
0.27653768798 0.8 0 0.27653768798 0.75 0 0.27653768798 0.7 0 
0.27653768798 0.65 0 0.27653768798 0.6 0 0.27653768798 0.55 0 
0.27653768798 0.5 0 0.27653768798 0.45 0 0.27653768798 0.4 0 
0.27653768798 0.35 0 0.27653768798 0.3 0 0.27653768798 0.25 0 
0.27653768798 0.2 0 0.27653768798 0.15 0 0.27653768798 0.1 0 
0.27653768798 0.05 0 0.27653768798 0 0 0.31090870586 1.5 0 
0.31090870586 1.45 0 0.31090870586 1.4 0 0.31090870586 1.35 0 
0.31090870586 1.3 0 0.31090870586 1.25 0 0.31090870586 1.2 0 
0.31090870586 1.15 0 0.31090870586 1.1 0 0.31090870586 1.05 0 
0.31090870586 1 0 0.31090870586 0.95 0 0.31090870586 0.9 0 
0.31090870586 0.85 0 0.31090870586 0.8 0 0.31090870586 0.75 0 
0.31090870586 0.7 0 0.31090870586 0.65 0 0.31090870586 0.6 0 
0.31090870586 0.55 0 0.31090870586 0.5 0 0.31090870586 0.45 0 
0.31090870586 0.4 0 0.31090870586 0.35 0 0.31090870586 0.3 0 
0.31090870586 0.25 0 0.31090870586 0.2 0 0.31090870586 0.15 0 
0.31090870586 0.1 0 0.31090870586 0.05 0 0.31090870586 0 0 
0.34696870625 1.5 0 0.34696870625 1.45 0 0.34696870625 1.4 0 
0.34696870625 1.35 0 0.34696870625 1.3 0 0.34696870625 1.25 0 
0.34696870625 1.2 0 0.34696870625 1.15 0 0.34696870625 1.1 0 
0.34696870625 1.05 0 0.34696870625 1 0 0.34696870625 0.95 0 
0.34696870625 0.9 0 0.34696870625 0.85 0 0.34696870625 0.8 0 
0.34696870625 0.75 0 0.34696870625 0.7 0 0.34696870625 0.65 0 
0.34696870625 0.6 0 0.34696870625 0.55 0 0.34696870625 0.5 0 
0.34696870625 0.45 0 0.34696870625 0.4 0 0.34696870625 0.35 0 
0.34696870625 0.3 0 0.34696870625 0.25 0 0.34696870625 0.2 0 
0.34696870625 0.15 0 0.34696870625 0.1 0 0.34696870625 0.05 0 
0.34696870625 0 0 0.3848006853 1.5 0 0.3848006853 1.45 0 
0.3848006853 1.4 0 0.3848006853 1.35 0 0.3848006853 1.3 0 
0.3848006853 1.25 0 0.3848006853 1.2 0 0.3848006853 1.15 0 
0.3848006853 1.1 0 0.3848006853 1.05 0 0.3848006853 1 0 
0.3848006853 0.95 0 0.3848006853 0.9 0 0.3848006853 0.85 0 
0.3848006853 0.8 0 0.3848006853 0.75 0 0.3848006853 0.7 0 
0.3848006853 0.65 0 0.3848006853 0.6 0 0.3848006853 0.55 0 
0.3848006853 0.5 0 0.3848006853 0.45 0 0.3848006853 0.4 0 
0.3848006853 0.35 0 0.3848006853 0.3 0 0.3848006853 0.25 0 
0.3848006853 0.2 0 0.3848006853 0.15 0 0.3848006853 0.1 0 
0.3848006853 0.05 0 0.3848006853 0 0 0.42449171754 1.5 0 
0.42449171754 1.45 0 0.42449171754 1.4 0 0.42449171754 1.35 0 
0.42449171754 1.3 0 0.42449171754 1.25 0 0.42449171754 1.2 0 
0.42449171754 1.15 0 0.42449171754 1.1 0 0.42449171754 1.05 0 
0.42449171754 1 0 0.42449171754 0.95 0 0.42449171754 0.9 0 
0.42449171754 0.85 0 0.42449171754 0.8 0 0.42449171754 0.75 0 
0.42449171754 0.7 0 0.42449171754 0.65 0 0.42449171754 0.6 0 
0.42449171754 0.55 0 0.42449171754 0.5 0 0.42449171754 0.45 0 
0.42449171754 0.4 0 0.42449171754 0.35 0 0.42449171754 0.3 0 
0.42449171754 0.25 0 0.42449171754 0.2 0 0.42449171754 0.15 0 
0.42449171754 0.1 0 0.42449171754 0.05 0 0.42449171754 0 0 
0.46613315636 1.5 0 0.46613315636 1.45 0 0.46613315636 1.4 0 
0.46613315636 1.35 0 0.46613315636 1.3 0 0.46613315636 1.25 0 
0.46613315636 1.2 0 0.46613315636 1.15 0 0.46613315636 1.1 0 
0.46613315636 1.05 0 0.46613315636 1 0 0.46613315636 0.95 0 
0.46613315636 0.9 0 0.46613315636 0.85 0 0.46613315636 0.8 0 
0.46613315636 0.75 0 0.46613315636 0.7 0 0.46613315636 0.65 0 
0.46613315636 0.6 0 0.46613315636 0.55 0 0.46613315636 0.5 0 
0.46613315636 0.45 0 0.46613315636 0.4 0 0.46613315636 0.35 0 
0.46613315636 0.3 0 0.46613315636 0.25 0 0.46613315636 0.2 0 
0.46613315636 0.15 0 0.46613315636 0.1 0 0.46613315636 0.05 0 
0.46613315636 0 0 0.5098208442 1.5 0 0.5098208442 1.45 0 
0.5098208442 1.4 0 0.5098208442 1.35 0 0.5098208442 1.3 0 
0.5098208442 1.25 0 0.5098208442 1.2 0 0.5098208442 1.15 0 
0.5098208442 1.1 0 0.5098208442 1.05 0 0.5098208442 1 0 
0.5098208442 0.95 0 0.5098208442 0.9 0 0.5098208442 0.85 0 
0.5098208442 0.8 0 0.5098208442 0.75 0 0.5098208442 0.7 0 
0.5098208442 0.65 0 0.5098208442 0.6 0 0.5098208442 0.55 0 
0.5098208442 0.5 0 0.5098208442 0.45 0 0.5098208442 0.4 0 
0.5098208442 0.35 0 0.5098208442 0.3 0 0.5098208442 0.25 0 
0.5098208442 0.2 0 0.5098208442 0.15 0 0.5098208442 0.1 0 
0.5098208442 0.05 0 0.5098208442 0 0 0.55565533319 1.5 0 
0.55565533319 1.45 0 0.55565533319 1.4 0 0.55565533319 1.35 0 
0.55565533319 1.3 0 0.55565533319 1.25 0 0.55565533319 1.2 0 
0.55565533319 1.15 0 0.55565533319 1.1 0 0.55565533319 1.05 0 
0.55565533319 1 0 0.55565533319 0.95 0 0.55565533319 0.9 0 
0.55565533319 0.85 0 0.55565533319 0.8 0 0.55565533319 0.75 0 
0.55565533319 0.7 0 0.55565533319 0.65 0 0.55565533319 0.6 0 
0.55565533319 0.55 0 0.55565533319 0.5 0 0.55565533319 0.45 0 
0.55565533319 0.4 0 0.55565533319 0.35 0 0.55565533319 0.3 0 
0.55565533319 0.25 0 0.55565533319 0.2 0 0.55565533319 0.15 0 
0.55565533319 0.1 0 0.55565533319 0.05 0 0.55565533319 0 0 
0.60374211656 1.5 0 0.60374211656 1.45 0 0.60374211656 1.4 0 
0.60374211656 1.35 0 0.60374211656 1.3 0 0.60374211656 1.25 0 
0.60374211656 1.2 0 0.60374211656 1.15 0 0.60374211656 1.1 0 
0.60374211656 1.05 0 0.60374211656 1 0 0.60374211656 0.95 0 
0.60374211656 0.9 0 0.60374211656 0.85 0 0.60374211656 0.8 0 
0.60374211656 0.75 0 0.60374211656 0.7 0 0.60374211656 0.65 0 
0.60374211656 0.6 0 0.60374211656 0.55 0 0.60374211656 0.5 0 
0.60374211656 0.45 0 0.60374211656 0.4 0 0.60374211656 0.35 0 
0.60374211656 0.3 0 0.60374211656 0.25 0 0.60374211656 0.2 0 
0.60374211656 0.15 0 0.60374211656 0.1 0 0.60374211656 0.05 0 
0.60374211656 0 0 0.65419187143 1.5 0 0.65419187143 1.45 0 
0.65419187143 1.4 0 0.65419187143 1.35 0 0.65419187143 1.3 0 
0.65419187143 1.25 0 0.65419187143 1.2 0 0.65419187143 1.15 0 
[...]
CELL_DATA 4740
FIELD FieldData 7
B_Stress_n_p_m2 1 4740 float
0.797196 0.807597 0.817208 0.826875 0.836881 0.847726 0.859652 0.872625 0.886057 
0.898385 0.906532 0.904634 0.88191 0.832867 0.746182 0.44026 0.259203 0.174675 
0.131811 0.105258 0.0873585 0.0747565 0.0656351 0.0589337 0.0539895 0.0503665 0.0477683 
0.0460208 0.0449185 0.0437442 0.772292 0.782343 0.791116 0.799605 0.807979 0.816688 
0.825912 0.835602 0.845254 0.853617 0.858257 0.854533 0.83471 0.793985 0.710344 
0.486768 0.317731 0.222178 0.16582 0.128784 0.103023 0.0844276 0.0706654 0.0603379 
0.0525581 0.0467361 0.0424728 0.0395213 0.0375182 0.0359327 0.746732 0.7564 0.764349 
0.771635 0.77836 0.784896 0.791335 0.797551 0.803021 0.806588 0.806106 0.797643 
0.775186 0.733015 0.65032 0.484975 0.34471 0.251981 0.191131 0.149271 0.119449 
0.0976008 0.081269 0.0689144 0.0595339 0.0524478 0.0471936 0.0434702 0.0407762 0.0387667 
0.720657 0.729923 0.737069 0.743163 0.748273 0.752679 0.756385 0.75917 0.760445 
0.759067 0.753049 0.73902 0.712207 0.667091 0.589248 0.464049 0.349931 0.266002 
0.206465 0.163669 0.13235 0.109014 0.0913787 0.0779339 0.0676596 0.0598466 0.0540055 
0.0498016 0.0466859 0.0445847 0.69422 0.703072 0.709446 0.714393 0.717969 0.720368 
0.721516 0.721111 0.718512 0.712599 0.701558 0.682582 0.651975 0.605293 0.534185 
0.436046 0.343469 0.270153 0.214823 0.173343 0.142093 0.118337 0.100126 0.0860919 
0.0752704 0.0669704 0.0607084 0.0561397 0.0527216 0.0505957 0.66758 0.676015 0.68166 
0.685536 0.6877 0.688278 0.687142 0.683939 0.67802 0.668335 0.653313 0.630728 
0.597879 0.551706 0.48819 0.40923 0.333483 0.270185 0.219972 0.180857 0.150524 
0.12696 0.108596 0.0942571 0.0830779 0.0744159 0.0678154 0.0629394 0.0592762 0.0571021 
0.640913 0.648931 0.653903 0.65681 0.657721 0.656713 0.65363 0.648112 0.639543 
0.627004 0.609208 0.584499 0.551044 0.507047 0.451106 0.386273 0.323443 0.268822 
0.223721 0.187379 0.15841 0.135406 0.117161 0.10271 0.0913043 0.0823693 0.0754914 
0.0703532 0.0664878 0.0642541 0.6144 0.62201 0.626376 0.628433 0.628273 0.625944 
0.621288 0.61397 0.60345 0.588968 0.56954 0.544012 0.511252 0.470408 0.421449 
0.367283 0.314442 0.267146 0.226816 0.193345 0.165978 0.143779 0.125857 0.11145 
0.099931 0.0908055 0.0837094 0.0783531 0.0743212 0.0720248 0.588227 0.595442 0.599276 
0.600617 0.599582 0.596209 0.590361 0.58175 0.569934 0.554328 0.534226 0.508887 
0.477702 0.44043 0.397647 0.351739 0.306761 0.265623 0.229618 0.198968 0.173324 
0.1521 0.134667 0.120442 0.10892 0.0996882 0.0924361 0.0869069 0.0827407 0.0803807 
0.562577 0.569414 0.572794 0.573558 0.571848 0.567708 0.561032 0.551594 0.539061 
0.523012 0.502982 0.478544 0.449449 0.415809 0.378395 0.339048 0.300386 0.264443 
0.232316 0.204367 0.180495 0.160367 0.143559 0.129642 0.118225 0.108972 0.101629 
0.0959746 0.0917052 0.0892826 0.537623 0.544104 0.547111 0.547435 0.545245 0.540597 
0.533426 0.523573 0.510807 0.494853 0.475439 0.452363 0.425607 0.39546 0.36269 
0.328683 0.295193 0.26367 0.235008 0.209606 0.187512 0.168562 0.15249 0.138996 
0.127785 0.118597 0.111231 0.1055 0.101158 0.0986749 0.513527 0.519675 0.522387 
0.522403 0.519914 0.514995 0.507621 0.497698 0.485087 0.469633 0.451208 0.429765 
0.405421 0.378532 0.349783 0.320212 0.291039 0.26331 0.237744 0.214726 0.194382 
0.176662 0.161415 0.148442 0.137533 0.128493 0.12117 0.115413 0.111029 0.108486 
0.490431 0.496271 0.498763 0.49859 0.495966 0.490982 0.483651 0.473937 0.461778 
0.447112 0.429914 0.410238 0.388268 0.364367 0.339116 0.313298 0.287783 0.263343 
0.240549 0.21975 0.201108 0.184644 0.170287 0.157918 0.147395 0.13858 0.131364 
0.125629 0.121232 0.118631 0.468456 0.474015 0.476352 0.476098 0.473478 0.4686 
0.461511 0.452223 0.440733 0.427048 0.411212 0.393339 0.373641 0.352458 0.330269 
0.307669 0.285298 0.263733 0.243429 0.224689 0.207685 0.19248 0.179059 0.16736 
0.157295 0.148773 0.141722 0.136053 0.13167 0.129012 0.447699 0.453004 0.455245 
0.455 0.4525 0.447866 0.441172 0.432467 0.421793 0.409205 0.394791 0.378695 
0.361134 0.34241 0.322915 0.303109 0.283471 0.26444 0.246377 0.229543 0.214104 
0.200143 0.187683 0.176702 0.167153 0.158982 0.152147 0.146586 0.14224 0.139525 
0.428236 0.433311 0.435505 0.435341 0.433051 0.428766 0.422578 0.414564 0.404797 
0.393362 0.380375 0.36599 0.350413 0.333909 0.316799 0.299441 0.282199 0.265415 
0.249376 0.234303 0.220348 0.207603 0.196111 0.185879 0.176889 0.169116 0.16254 
0.15712 0.152832 0.15006 0.410112 0.414983 0.41717 0.417142 0.41513 0.411267 
0.405659 0.3984 0.389585 0.379316 0.367721 0.354954 0.341207 0.326707 0.311716 
0.296516 0.281393 0.266612 0.252404 0.238954 0.226397 0.214827 0.204296 0.194828 
0.186426 0.179084 0.1728 0.16755 0.163335 0.160506 0.393355 0.398043 0.400253 
0.400402 0.398712 0.395318 0.390331 0.383859 0.376004 0.366881 0.356617 0.345364 
0.333292 0.320597 0.307495 0.294211 0.280969 0.267981 0.255432 0.243475 0.23223 
0.221784 0.212192 0.203488 0.195689 0.1888 0.182831 0.177771 0.173641 0.170756 
0.377966 0.382494 0.384748 0.3851 0.383759 0.380856 0.376507 0.370822 0.36391 
0.355887 0.346879 0.337026 0.326481 0.315413 0.303998 0.292419 0.280855 0.269475 
0.258428 0.247843 0.237821 0.22844 0.219755 0.211803 0.204607 0.198182 0.192542 
0.187687 0.183649 0.180708 0.363931 0.368316 0.370631 0.371199 0.370216 0.367808 
0.364091 0.359175 0.353168 0.346185 0.338346 0.329779 0.32062 0.311013 0.301107 
0.291049 0.280984 0.271048 0.261363 0.252032 0.243143 0.234764 0.226945 0.219722 
0.21312 0.207157 0.201852 0.197209 0.193267 0.190271 0.351216 0.355477 0.357859 
0.358647 0.358019 0.356097 0.352991 0.348808 0.343654 0.33764 0.330877 0.323482 
0.315576 0.307281 0.298722 0.290022 0.281298 0.272658 0.264203 0.256017 0.248173 
0.240728 0.233726 0.227199 0.221172 0.215664 0.21069 0.206259 0.202415 0.199365 
0.339775 0.343927 0.346381 0.347384 0.347099 0.34564 0.343111 0.339615 0.335254 
0.330131 0.32435 0.318016 0.311236 0.304116 0.29676 0.289271 0.281743 0.274266 
0.266921 0.259775 0.252888 0.246306 0.240067 0.234199 0.22872 0.223648 0.218997 
0.214776 0.211027 0.207925 0.329551 0.333607 0.336133 0.337341 0.337379 0.336353 
0.33436 0.331498 0.327863 0.323551 0.318657 0.313278 0.307505 0.301432 0.295148 
0.288736 0.282275 0.275838 0.269489 0.263284 0.257268 0.251479 0.245947 0.240691 
0.235729 0.231071 0.226729 0.222709 0.219051 0.2159 0.320479 0.324451 0.327045 
0.328444 0.32878 0.32815 0.326647 0.324362 0.321384 0.317802 0.313705 0.309177 
0.304301 0.299158 0.293824 0.288367 0.282855 0.277345 0.271888 0.266528 0.2613 
0.256233 0.251348 0.246658 0.242175 0.237904 0.233853 0.230024 0.226452 0.223254 
0.312487 0.316386 0.319043 0.320615 0.321221 0.32095 0.319888 0.31812 0.315729 
0.312798 0.309408 0.305635 0.301553 0.297231 0.292735 0.288123 0.28345 0.278761 
0.274098 0.269494 0.264974 0.260559 0.256262 0.25209 0.248046 0.244133 0.240352 
0.236701 0.233208 0.229967 0.305499 0.309335 0.312049 0.313775 0.314621 0.314669 
0.313998 0.312688 0.310816 0.30846 0.305692 0.302583 0.299197 0.295597 0.291837 
0.287968 0.284032 0.280069 0.276109 0.272176 0.268288 0.264457 0.260689 0.256985 
0.253342 0.249755 0.246221 0.242734 0.239315 0.236035 0.299438 0.303219 0.305982 
0.307844 0.3089 0.309227 0.308898 0.307988 0.306571 0.304716 0.302491 0.29996 
0.297182 0.29421 0.291093 0.287871 0.284582 0.281254 0.277912 0.274571 0.271243 
0.267931 0.264636 0.261352 0.258069 0.254779 0.251469 0.248132 0.244779 0.241463 
0.294226 0.297959 0.300764 0.302742 0.303979 0.304546 0.304512 0.303948 0.302922 
0.3015 0.299744 0.297713 0.29546 0.293032 0.29047 0.287811 0.285082 0.282309 
0.279506 0.276684 0.273848 0.270995 0.268118 0.265207 0.262247 0.259221 0.256114 
0.252911 0.249619 0.246272 0.289786 0.293477 0.296317 0.298392 0.299782 0.300552 
0.300768 0.300498 0.299805 0.298752 0.297397 0.295793 0.293989 0.292027 0.289943 
0.287767 0.285523 0.283228 0.280893 0.278522 0.276115 0.273664 0.271156 0.268574 
0.265899 0.26311 0.260184 0.257103 0.253864 0.250491 0.286041 0.289696 0.292563 
0.294718 0.296234 0.297173 0.297598 0.297573 0.29716 0.296417 0.2954 0.294157 
0.292734 0.291167 0.28949 0.287726 0.285896 0.284011 0.282079 0.280098 0.278063 
0.275961 0.273775 0.271483 0.26906 0.266479 0.263714 0.260741 0.257552 0.254157 
0.282919 0.286542 0.289429 0.291647 0.293264 0.29434 0.294935 0.295112 0.294929 
0.294444 0.293707 0.292766 0.291662 0.290428 0.289093 0.287678 0.286198 0.284663 
0.283074 0.281427 0.279712 0.277913 0.276006 0.273967 0.271765 0.269368 0.266746 
0.26387 0.260726 0.257312 0.280351 0.283944 0.286844 0.289111 0.290806 0.291989 
0.29272 0.293058 0.293061 0.292785 0.292278 0.291585 0.290744 0.289786 0.288737 
0.287613 0.286429 0.285188 0.28389 0.282528 0.281087 0.279547 0.277883 0.276064 
0.274055 0.271821 0.269326 0.266537 0.263433 0.260005 0.278269 0.281837 0.284744 
0.287044 0.288797 0.29006 0.290894 0.291357 0.291507 0.291397 0.291075 0.290583 
0.289956 0.289225 0.28841 0.287528 0.286589 0.285594 0.284542 0.28342 0.282212 
0.280895 0.27944 0.277812 0.275973 0.273882 0.271501 0.26879 0.265724 0.262287 
0.276613 0.280158 0.283065 0.285385 0.287176 0.288497 0.289405 0.289961 0.290222 
0.29024 0.290063 0.28973 0.289275 0.288726 0.288103 0.287419 0.286681 0.285891 
0.285043 0.284123 0.283113 0.281987 0.280712 0.279251 0.277562 0.275599 0.273319 
0.27068 0.26765 0.264207 0.275326 0.27885 0.281752 0.28408 0.285892 0.287246 
0.288204 0.288824 0.289165 0.289278 0.28921 0.289 0.288681 0.288276 0.287806 
0.287283 0.28671 0.286088 0.285409 0.284659 0.283817 0.282854 0.281736 0.280421 
0.278864 0.277017 0.27483 0.272257 0.269262 0.265817 0.274359 0.277862 0.280752 
0.283076 0.284893 0.286262 0.287245 0.287904 0.288297 0.288477 0.288489 0.288371 
0.288154 0.287863 0.287514 0.287118 0.286679 0.286195 0.285656 0.285048 0.284348 
0.283525 0.282543 0.281358 0.279921 0.278179 0.276078 0.273569 0.270609 0.267165 
0.273665 0.277149 0.280021 0.28233 0.284135 0.2855 0.286488 0.287164 0.287586 
0.287807 0.287873 0.287821 0.287681 0.287475 0.287221 0.286925 0.286593 0.28622 
0.285797 0.285307 0.284728 0.284027 0.283166 0.282098 0.280771 0.279127 0.27711 
0.274662 0.271738 0.2683 0.273206 0.276669 0.279517 0.2818 0.28358 0.284923 
0.285897 0.286569 0.286999 0.28724 0.287338 0.28733 0.287245 0.287103 0.28692 
0.286703 0.286455 0.286172 0.285844 0.285454 0.284979 0.284385 0.283632 0.282672 
0.281448 0.2799 0.277964 0.275579 0.272693 0.269264 0.272949 0.27639 0.279206 
0.281452 0.283192 0.284497 0.28544 0.286089 0.286509 0.286753 0.286865 0.286883 
0.286834 0.286738 0.286608 0.286451 0.28627 0.286059 0.285809 0.285504 0.285118 
0.28462 0.283967 0.283108 0.281984 0.280531 0.278678 0.276359 0.273516 0.270099 
0.272867 0.276284 0.279061 0.281256 0.282941 0.284191 0.285086 0.285698 0.286092 
0.286322 0.286435 0.286465 0.286438 0.286372 0.286281 0.286169 0.28604 0.285887 
0.285702 0.285468 0.285162 0.28475 0.28419 0.28343 0.282407 0.28105 0.279285 
0.277038 0.274242 0.270842 0.272941 0.27633 0.279058 0.281188 0.282801 0.283981 
0.284811 0.28537 0.285724 0.28593 0.286031 0.286061 0.286045 0.285999 0.285935 
0.285857 0.285767 0.285662 0.28553 0.285358 0.285122 0.28479 0.28432 0.283658 
0.282738 0.281484 0.279815 0.277648 0.274907 0.27153 0.273157 0.276513 0.279179 
0.281228 0.282751 0.283841 0.284592 0.285084 0.285387 0.285558 0.285639 0.285661 
0.285647 0.285613 0.285567 0.285514 0.285455 0.285386 0.2853 0.285181 0.285008 
0.284751 0.284369 0.283806 0.282995 0.281854 0.280293 0.278218 0.275543 0.272196 
0.27351 0.276825 0.279413 0.28136 0.282771 0.283753 0.284406 0.284819 0.285063 
0.285191 0.285245 0.285254 0.285238 0.285208 0.285174 0.285139 0.285104 0.285065 
0.285015 0.284942 0.284827 0.284641 0.284346 0.283886 0.283191 0.282176 0.280739 
0.278775 0.276181 0.272873 0.274005 0.277266 0.279753 0.28157 0.282842 0.283693 
0.284234 0.284557 0.284733 0.284815 0.28484 0.284833 0.28481 0.284782 0.284756 
0.284734 0.284715 0.284699 0.284679 0.284645 0.284582 0.284463 0.284254 0.283901 
0.283333 0.28246 0.281172 0.279344 0.276853 0.273596 0.274656 0.277845 0.280196 
0.281844 0.282945 0.283641 0.284054 0.284278 0.284384 0.284418 0.284413 0.28439 
0.284361 0.284333 0.284312 0.284298 0.284292 0.284293 0.284296 0.284294 0.284275 
0.284219 0.284092 0.283849 0.28342 0.282711 0.2816 0.279945 0.277592 0.274406 
0.275494 0.278577 0.280739 0.282166 0.283053 0.283569 0.283841 0.283965 0.284002 
0.283992 0.283962 0.283925 0.283891 0.283863 0.283845 0.283837 0.28384 0.283852 
0.283871 0.283894 0.283911 0.283907 0.283859 0.283725 0.283442 0.282919 0.282026 
0.280595 0.278432 0.275351 0.276588 0.279501 0.28138 0.282506 0.283129 0.28344 
0.283568 0.283595 0.283572 0.283528 0.283479 0.283435 0.283399 0.283373 0.283358 
0.283354 0.283361 0.283379 0.283408 0.283445 0.283486 0.283524 0.283541 0.283508 
0.283376 0.283062 0.282435 0.281307 0.279427 0.276516 0.278078 0.280656 0.282074 
0.282782 0.283089 0.283187 0.283183 0.283136 0.283076 0.283017 0.282966 0.282925 
0.282894 0.282874 0.282863 0.282861 0.282869 0.282886 0.282914 0.282952 0.283001 
0.283057 0.283115 0.283161 0.283163 0.283063 0.282754 0.282046 0.280627 0.27805 
0.279928 0.281764 0.282525 0.282793 0.282849 0.282822 0.282767 0.28271 0.28266 
0.282619 0.282587 0.282564 0.282547 0.282537 0.282531 0.282531 0.282536 0.282545 
0.282561 0.282584 0.282615 0.282656 0.282705 0.282762 0.282816 0.282843 0.282786 
0.282518 0.281758 0.279922 0.994178 1.00675 1.02183 1.03872 1.05778 1.07827 
1.09833 1.11393 1.11795 1.09921 1.04216 0.928411 0.742195 0.479713 0.184511 
0.00652531 0.00899116 0.0131595 0.0169732 0.019634 0.0213918 0.0225345 0.0232766 0.0237606 
0.024077 0.0242829 0.024414 0.0244932 0.0245319 0.0245314 0.969911 0.982319 0.996951 
1.01335 1.032 1.05249 1.07346 1.09166 1.10092 1.09102 1.04679 0.948909 
0.777626 0.52049 0.215597 0.0102394 0.014 0.0185577 0.0224002 0.0250772 0.0268621 
0.0280368 0.0288092 0.0293185 0.0296543 0.0298739 0.0300137 0.0300968 0.0301357 0.0301126 
0.945341 0.957536 0.971637 0.98738 1.00535 1.02543 1.04671 1.06672 1.08032 
1.07853 1.04713 0.96659 0.813591 0.566229 0.254408 0.0149791 0.0193911 0.0227454 
0.0254038 0.0272358 0.0284811 0.0293263 0.0298997 0.0302884 0.0305504 0.0307241 0.0308347 
0.030899 0.030931 0.0309305 0.92058 0.932524 0.946013 0.960955 0.978003 0.997262 
1.01825 1.03918 1.05602 1.0612 1.04202 0.979697 0.848226 0.616627 0.30441 
0.0216238 0.0258404 0.0271499 0.0281531 0.0288543 0.0293745 0.0297679 0.0300621 0.0302775 
0.0304312 0.0305363 0.0306028 0.0306377 0.0306527 0.030636 0.895737 0.907398 0.920205 
0.934226 0.950134 0.96821 0.988297 1.00923 1.02802 1.03863 1.03036 0.986196 
0.87902 0.671344 0.371431 0.0320012 0.0339166 0.0320998 0.0311382 0.0306323 0.0304035 
0.0303299 0.0303308 0.0303606 0.0303956 0.0304241 0.0304403 0.0304399 0.0304313 0.0303746 
0.870925 0.882281 0.894347 0.907352 0.921942 0.93852 0.957157 0.977185 0.996539 
1.0107 1.01121 0.983814 0.90251 0.72907 0.461805 0.0497852 0.0440872 0.037456 
0.034188 0.0324254 0.0314446 0.030898 0.0305926 0.0304204 0.0303204 0.0302578 0.0302121 
0.0301676 0.0301292 0.0299848 0.846239 0.85728 0.868557 0.880483 0.893622 0.90845 
0.925173 0.943477 0.962018 0.977598 0.984036 0.970255 0.914112 0.784862 0.573256 
0.0783212 0.0549289 0.0416985 0.035987 0.0329756 0.0312326 0.0301812 0.0295273 0.0291093 
0.0288341 0.028647 0.0285134 0.0284097 0.028337 0.0280415 0.821707 0.832431 0.842883 
0.853693 0.865292 0.878188 0.892639 0.908534 0.92502 0.939903 0.948867 0.943854 
0.908543 0.825896 0.680396 0.130496 0.0734258 0.0501543 0.0403828 0.0349232 0.0314993 
0.0292403 0.027699 0.0266237 0.0258633 0.0253231 0.0249401 0.0246791 0.0245221 0.0240999 
0.480624 0.485188 0.487289 0.486983 0.484344 0.479447 0.472379 0.46324 0.452147 
0.439225 0.424615 0.408468 0.390946 0.37222 0.352473 0.331894 0.310682 0.289044 
0.267198 0.245372 0.223805 0.202757 0.182503 0.163345 0.145612 0.129663 0.115883 
0.104668 0.0964154 0.091467 0.491177 0.495685 0.497658 0.497139 0.494192 0.488893 
0.481336 0.471625 0.459884 0.446247 0.430861 0.413888 0.395499 0.375875 0.355208 
0.333697 0.311552 0.288987 0.266228 0.243511 0.221082 0.199202 0.178154 0.158244 
0.139806 0.123211 0.10886 0.0971782 0.088587 0.0834584 0.49836 0.502877 0.504786 
0.504131 0.500979 0.495409 0.487516 0.477412 0.465223 0.45109 0.435167 0.417623 
0.398634 0.378391 0.357092 0.334944 0.312163 0.28897 0.265596 0.242281 0.219275 
0.196842 0.175267 0.154856 0.135949 0.118921 0.104186 0.0921887 0.0833781 0.0781598 
0.507045 0.511581 0.513421 0.512609 0.509212 0.503314 0.495015 0.484432 0.471698 
0.45696 0.440383 0.42214 0.40242 0.381422 0.359353 0.336429 0.312874 0.28892 
0.264804 0.240772 0.217079 0.193995 0.171804 0.150817 0.131375 0.11386 0.0986971 
0.0863503 0.0773003 0.0719926 0.515945 0.5205 0.522264 0.521285 0.517632 0.511393 
0.502672 0.491592 0.478293 0.462932 0.445678 0.426717 0.406246 0.384473 0.361617 
0.337904 0.313566 0.288845 0.263987 0.239243 0.214875 0.191156 0.168372 0.146836 
0.126889 0.108916 0.0933502 0.0806731 0.0713941 0.0659997 0.525334 0.529909 0.531595 
0.530439 0.526514 0.519912 0.510742 0.499134 0.485235 0.46921 0.451239 0.431517 
0.410251 0.38766 0.363974 0.33943 0.314273 0.288752 0.263122 0.237645 0.212587 
0.188224 0.164847 0.142766 0.122325 0.103907 0.0879508 0.074952 0.0654477 0.0599675 
0.535131 0.539727 0.541329 0.539986 0.535774 0.528789 0.519147 0.506983 0.492454 
0.475733 0.45701 0.43649 0.414392 0.390948 0.366399 0.340993 0.314987 0.288641 
0.262222 0.235999 0.210245 0.18524 0.161279 0.13867 0.117754 0.0989137 0.0825884 
0.0692835 0.0595619 0.0539974 0.545358 0.549976 0.551489 0.549949 0.545435 0.538047 
0.527907 0.51516 0.499969 0.482517 0.463005 0.44165 0.418683 0.394348 0.368899 
0.342597 0.315712 0.288517 0.261288 0.234304 0.207846 0.182201 0.157664 0.134543 
0.113175 0.0939376 0.0772679 0.0636764 0.0537478 0.0481013 0.556027 0.560667 0.562086 
0.560339 0.555506 0.547695 0.537033 0.523673 0.507787 0.48957 0.469232 0.447004 
0.423129 0.397864 0.371478 0.344246 0.316451 0.288379 0.260319 0.23256 0.205392 
0.179108 0.154005 0.130391 0.108597 0.0889935 0.0720102 0.0581574 0.0480366 0.042312 
0.567162 0.571825 0.573146 0.571179 0.566012 0.557755 0.546545 0.532542 0.515927 
0.496907 0.475704 0.452562 0.427738 0.401504 0.374142 0.345944 0.317206 0.288229 
0.259314 0.230764 0.202879 0.175957 0.150299 0.126212 0.104022 0.0840881 0.0668286 
0.0527469 0.042454 0.0366574 0.578795 0.583481 0.584697 0.5825 0.576981 0.568256 
0.55647 0.541791 0.524412 0.504549 0.482441 0.458342 0.432526 0.405279 0.376901 
0.347696 0.31798 0.288067 0.258273 0.228915 0.200302 0.172743 0.146541 0.122003 
0.0994495 0.0792265 0.0617359 0.0474662 0.0370286 0.0311694 0.590964 0.595674 0.59678 
0.59434 0.58845 0.579233 0.56684 0.551451 0.533269 0.512523 0.489464 0.464364 
0.437509 0.409204 0.379763 0.349511 0.318778 0.287895 0.257196 0.227009 0.197658 
0.169459 0.142724 0.117759 0.094877 0.0744114 0.0567428 0.0423364 0.0317912 0.0258831 
0.603714 0.608449 0.609438 0.606742 0.60046 0.590725 0.577694 0.561558 0.542532 
0.520859 0.496803 0.470652 0.442709 0.413296 0.382746 0.351401 0.319609 0.28772 
0.256084 0.225045 0.194942 0.166101 0.138841 0.113472 0.0902997 0.0696434 0.0518588 
0.0373792 0.026776 0.0208399 0.617095 0.621856 0.622722 0.619755 0.613062 0.60278 
0.589078 0.572156 0.552243 0.529595 0.504492 0.477238 0.448154 0.417581 0.385869 
0.353382 0.320485 0.287549 0.254942 0.223026 0.192153 0.162665 0.134888 0.109136 
0.0857121 0.0649211 0.0470916 0.0326166 0.0220217 0.0160889 0.631163 0.635951 0.636687 
0.633434 0.626306 0.615449 0.601041 0.583293 0.562447 0.538774 0.512571 0.484158 
0.453878 0.422088 0.38916 0.355477 0.321427 0.2874 0.253784 0.22096 0.189297 
0.159152 0.130862 0.104748 0.0811105 0.0602434 0.0424481 0.0280713 0.0175735 0.0116922 
0.645976 0.650792 0.65139 0.647837 0.640251 0.628788 0.613637 0.59502 0.573194 
0.548444 0.521086 0.491458 0.459922 0.426856 0.392653 0.357719 0.322464 0.287298 
0.252632 0.218867 0.18639 0.155575 0.126773 0.100312 0.0764967 0.0556116 0.037935 