# vtk DataFile Version 5.1
vtk output
ASCII
DATASET UNSTRUCTURED_GRID
POINTS 4929 double
0.1016 1.5 0 0.1016 1.45 0 0.1016 1.4 0 
0.1016 1.35 0 0.1016 1.3 0 0.1016 1.25 0 
0.1016 1.2 0 0.1016 1.15 0 0.1016 1.1 0 
0.1016 1.05 0 0.1016 1 0 0.1016 0.95 0 
0.1016 0.9 0 0.1016 0.85 0 0.1016 0.8 0 
0.1016 0.75 0 0.1016 0.7 0 0.1016 0.65 0 
0.1016 0.6 0 0.1016 0.55 0 0.1016 0.5 0 
0.1016 0.45 0 0.1016 0.4 0 0.1016 0.35 0 
0.1016 0.3 0 0.1016 0.25 0 0.1016 0.2 0 
0.1016 0.15 0 0.1016 0.1 0 0.1016 0.05 0 
0.1016 0 0 5.08 1.5 0 5.08 1.45 0 
5.08 1.4 0 5.08 1.35 0 5.08 1.3 0 
5.08 1.25 0 5.08 1.2 0 5.08 1.15 0 
5.08 1.1 0 5.08 1.05 0 5.08 1 0 
5.08 0.95 0 5.08 0.9 0 5.08 0.85 0 
5.08 0.8 0 5.08 0.75 0 5.08 0.7 0 
5.08 0.65 0 5.08 0.6 0 5.08 0.55 0 
5.08 0.5 0 5.08 0.45 0 5.08 0.4 0 
5.08 0.35 0 5.08 0.3 0 5.08 0.25 0 
5.08 0.2 0 5.08 0.15 0 5.08 0.1 0 
5.08 0.05 0 5.08 0 0 0.12737462728 1.5 0 
0.12737462728 1.45 0 0.12737462728 1.4 0 0.12737462728 1.35 0 
0.12737462728 1.3 0 0.12737462728 1.25 0 0.12737462728 1.2 0 
0.12737462728 1.15 0 0.12737462728 1.1 0 0.12737462728 1.05 0 
0.12737462728 1 0 0.12737462728 0.95 0 0.12737462728 0.9 0 
0.12737462728 0.85 0 0.12737462728 0.8 0 0.12737462728 0.75 0 
0.12737462728 0.7 0 0.12737462728 0.65 0 0.12737462728 0.6 0 
0.12737462728 0.55 0 0.12737462728 0.5 0 0.12737462728 0.45 0 
0.12737462728 0.4 0 0.12737462728 0.35 0 0.12737462728 0.3 0 
0.12737462728 0.25 0 0.12737462728 0.2 0 0.12737462728 0.15 0 
0.12737462728 0.1 0 0.12737462728 0.05 0 0.12737462728 0 0 
0.15441581276 1.5 0 0.15441581276 1.45 0 0.15441581276 1.4 0 
0.15441581276 1.35 0 0.15441581276 1.3 0 0.15441581276 1.25 0 
0.15441581276 1.2 0 0.15441581276 1.15 0 0.15441581276 1.1 0 
0.15441581276 1.05 0 0.15441581276 1 0 0.15441581276 0.95 0 
0.15441581276 0.9 0 0.15441581276 0.85 0 0.15441581276 0.8 0 
0.15441581276 0.75 0 0.15441581276 0.7 0 0.15441581276 0.65 0 
0.15441581276 0.6 0 0.15441581276 0.55 0 0.15441581276 0.5 0 
0.15441581276 0.45 0 0.15441581276 0.4 0 0.15441581276 0.35 0 
0.15441581276 0.3 0 0.15441581276 0.25 0 0.15441581276 0.2 0 
0.15441581276 0.15 0 0.15441581276 0.1 0 0.15441581276 0.05 0 
0.15441581276 0 0 0.18278579477 1.5 0 0.18278579477 1.45 0 
0.18278579477 1.4 0 0.18278579477 1.35 0 0.18278579477 1.3 0 
0.18278579477 1.25 0 0.18278579477 1.2 0 0.18278579477 1.15 0 
0.18278579477 1.1 0 0.18278579477 1.05 0 0.18278579477 1 0 
0.18278579477 0.95 0 0.18278579477 0.9 0 0.18278579477 0.85 0 
0.18278579477 0.8 0 0.18278579477 0.75 0 0.18278579477 0.7 0 
0.18278579477 0.65 0 0.18278579477 0.6 0 0.18278579477 0.55 0 
0.18278579477 0.5 0 0.18278579477 0.45 0 0.18278579477 0.4 0 
0.18278579477 0.35 0 0.18278579477 0.3 0 0.18278579477 0.25 0 
0.18278579477 0.2 0 0.18278579477 0.15 0 0.18278579477 0.1 0 
0.18278579477 0.05 0 0.18278579477 0 0 0.21254987001 1.5 0 
0.21254987001 1.45 0 0.21254987001 1.4 0 0.21254987001 1.35 0 
0.21254987001 1.3 0 0.21254987001 1.25 0 0.21254987001 1.2 0 
0.21254987001 1.15 0 0.21254987001 1.1 0 0.21254987001 1.05 0 
0.21254987001 1 0 0.21254987001 0.95 0 0.21254987001 0.9 0 
0.21254987001 0.85 0 0.21254987001 0.8 0 0.21254987001 0.75 0 
0.21254987001 0.7 0 0.21254987001 0.65 0 0.21254987001 0.6 0 
0.21254987001 0.55 0 0.21254987001 0.5 0 0.21254987001 0.45 0 
0.21254987001 0.4 0 0.21254987001 0.35 0 0.21254987001 0.3 0 
0.21254987001 0.25 0 0.21254987001 0.2 0 0.21254987001 0.15 0 
0.21254987001 0.1 0 0.21254987001 0.05 0 0.21254987001 0 0 
0.24377654385 1.5 0 0.24377654385 1.45 0 0.24377654385 1.4 0 
0.24377654385 1.35 0 0.24377654385 1.3 0 0.24377654385 1.25 0 
0.24377654385 1.2 0 0.24377654385 1.15 0 0.24377654385 1.1 0 
0.24377654385 1.05 0 0.24377654385 1 0 0.24377654385 0.95 0 
0.24377654385 0.9 0 0.24377654385 0.85 0 0.24377654385 0.8 0 
0.24377654385 0.75 0 0.24377654385 0.7 0 0.24377654385 0.65 0 
0.24377654385 0.6 0 0.24377654385 0.55 0 0.24377654385 0.5 0 
0.24377654385 0.45 0 0.24377654385 0.4 0 0.24377654385 0.35 0 
0.24377654385 0.3 0 0.24377654385 0.25 0 0.24377654385 0.2 0 
0.24377654385 0.15 0 0.24377654385 0.1 0 0.24377654385 0.05 0 
0.24377654385 0 0 0.27653768798 1.5 0 0.27653768798 1.45 0 
0.27653768798 1.4 0 0.27653768798 1.35 0 0.27653768798 1.3 0 
0.27653768798 1.25 0 0.27653768798 1.2 0 0.27653768798 1.15 0 
0.27653768798 1.1 0 0.27653768798 1.05 0 0.27653768798 1 0 
0.27653768798 0.95 0 0.27653768798 0.9 0 0.27653768798 0.85 0 
0.27653768798 0.8 0 0.27653768798 0.75 0 0.27653768798 0.7 0 
0.27653768798 0.65 0 0.27653768798 0.6 0 0.27653768798 0.55 0 
0.27653768798 0.5 0 0.27653768798 0.45 0 0.27653768798 0.4 0 
0.27653768798 0.35 0 0.27653768798 0.3 0 0.27653768798 0.25 0 
0.27653768798 0.2 0 0.27653768798 0.15 0 0.27653768798 0.1 0 
0.27653768798 0.05 0 0.27653768798 0 0 0.31090870586 1.5 0 
0.31090870586 1.45 0 0.31090870586 1.4 0 0.31090870586 1.35 0 
0.31090870586 1.3 0 0.31090870586 1.25 0 0.31090870586 1.2 0 
0.31090870586 1.15 0 0.31090870586 1.1 0 0.31090870586 1.05 0 
0.31090870586 1 0 0.31090870586 0.95 0 0.31090870586 0.9 0 
0.31090870586 0.85 0 0.31090870586 0.8 0 0.31090870586 0.75 0 
0.31090870586 0.7 0 0.31090870586 0.65 0 0.31090870586 0.6 0 
0.31090870586 0.55 0 0.31090870586 0.5 0 0.31090870586 0.45 0 
0.31090870586 0.4 0 0.31090870586 0.35 0 0.31090870586 0.3 0 
0.31090870586 0.25 0 0.31090870586 0.2 0 0.31090870586 0.15 0 
0.31090870586 0.1 0 0.31090870586 0.05 0 0.31090870586 0 0 
0.34696870625 1.5 0 0.34696870625 1.45 0 0.34696870625 1.4 0 
0.34696870625 1.35 0 0.34696870625 1.3 0 0.34696870625 1.25 0 
0.34696870625 1.2 0 0.34696870625 1.15 0 0.34696870625 1.1 0 
0.34696870625 1.05 0 0.34696870625 1 0 0.34696870625 0.95 0 
0.34696870625 0.9 0 0.34696870625 0.85 0 0.34696870625 0.8 0 
0.34696870625 0.75 0 0.34696870625 0.7 0 0.34696870625 0.65 0 
0.34696870625 0.6 0 0.34696870625 0.55 0 0.34696870625 0.5 0 
0.34696870625 0.45 0 0.34696870625 0.4 0 0.34696870625 0.35 0 
0.34696870625 0.3 0 0.34696870625 0.25 0 0.34696870625 0.2 0 
0.34696870625 0.15 0 0.34696870625 0.1 0 0.34696870625 0.05 0 
0.34696870625 0 0 0.3848006853 1.5 0 0.3848006853 1.45 0 
0.3848006853 1.4 0 0.3848006853 1.35 0 0.3848006853 1.3 0 
0.3848006853 1.25 0 0.3848006853 1.2 0 0.3848006853 1.15 0 
0.3848006853 1.1 0 0.3848006853 1.05 0 0.3848006853 1 0 
0.3848006853 0.95 0 0.3848006853 0.9 0 0.3848006853 0.85 0 
0.3848006853 0.8 0 0.3848006853 0.75 0 0.3848006853 0.7 0 
0.3848006853 0.65 0 0.3848006853 0.6 0 0.3848006853 0.55 0 
0.3848006853 0.5 0 0.3848006853 0.45 0 0.3848006853 0.4 0 
0.3848006853 0.35 0 0.3848006853 0.3 0 0.3848006853 0.25 0 
0.3848006853 0.2 0 0.3848006853 0.15 0 0.3848006853 0.1 0 
0.3848006853 0.05 0 0.3848006853 0 0 0.42449171754 1.5 0 
0.42449171754 1.45 0 0.42449171754 1.4 0 0.42449171754 1.35 0 
0.42449171754 1.3 0 0.42449171754 1.25 0 0.42449171754 1.2 0 
0.42449171754 1.15 0 0.42449171754 1.1 0 0.42449171754 1.05 0 
0.42449171754 1 0 0.42449171754 0.95 0 0.42449171754 0.9 0 
0.42449171754 0.85 0 0.42449171754 0.8 0 0.42449171754 0.75 0 
0.42449171754 0.7 0 0.42449171754 0.65 0 0.42449171754 0.6 0 
0.42449171754 0.55 0 0.42449171754 0.5 0 0.42449171754 0.45 0 
0.42449171754 0.4 0 0.42449171754 0.35 0 0.42449171754 0.3 0 
0.42449171754 0.25 0 0.42449171754 0.2 0 0.42449171754 0.15 0 
0.42449171754 0.1 0 0.42449171754 0.05 0 0.42449171754 0 0 
0.46613315636 1.5 0 0.46613315636 1.45 0 0.46613315636 1.4 0 
0.46613315636 1.35 0 0.46613315636 1.3 0 0.46613315636 1.25 0 
0.46613315636 1.2 0 0.46613315636 1.15 0 0.46613315636 1.1 0 
0.46613315636 1.05 0 0.46613315636 1 0 0.46613315636 0.95 0 
0.46613315636 0.9 0 0.46613315636 0.85 0 0.46613315636 0.8 0 
0.46613315636 0.75 0 0.46613315636 0.7 0 0.46613315636 0.65 0 
0.46613315636 0.6 0 0.46613315636 0.55 0 0.46613315636 0.5 0 
0.46613315636 0.45 0 0.46613315636 0.4 0 0.46613315636 0.35 0 
0.46613315636 0.3 0 0.46613315636 0.25 0 0.46613315636 0.2 0 
0.46613315636 0.15 0 0.46613315636 0.1 0 0.46613315636 0.05 0 
0.46613315636 0 0 0.5098208442 1.5 0 0.5098208442 1.45 0 
0.5098208442 1.4 0 0.5098208442 1.35 0 0.5098208442 1.3 0 
0.5098208442 1.25 0 0.5098208442 1.2 0 0.5098208442 1.15 0 
0.5098208442 1.1 0 0.5098208442 1.05 0 0.5098208442 1 0 
0.5098208442 0.95 0 0.5098208442 0.9 0 0.5098208442 0.85 0 
0.5098208442 0.8 0 0.5098208442 0.75 0 0.5098208442 0.7 0 
0.5098208442 0.65 0 0.5098208442 0.6 0 0.5098208442 0.55 0 
0.5098208442 0.5 0 0.5098208442 0.45 0 0.5098208442 0.4 0 
0.5098208442 0.35 0 0.5098208442 0.3 0 0.5098208442 0.25 0 
0.5098208442 0.2 0 0.5098208442 0.15 0 0.5098208442 0.1 0 
0.5098208442 0.05 0 0.5098208442 0 0 0.55565533319 1.5 0 
0.55565533319 1.45 0 0.55565533319 1.4 0 0.55565533319 1.35 0 
0.55565533319 1.3 0 0.55565533319 1.25 0 0.55565533319 1.2 0 
0.55565533319 1.15 0 0.55565533319 1.1 0 0.55565533319 1.05 0 
0.55565533319 1 0 0.55565533319 0.95 0 0.55565533319 0.9 0 
0.55565533319 0.85 0 0.55565533319 0.8 0 0.55565533319 0.75 0 
0.55565533319 0.7 0 0.55565533319 0.65 0 0.55565533319 0.6 0 
0.55565533319 0.55 0 0.55565533319 0.5 0 0.55565533319 0.45 0 
0.55565533319 0.4 0 0.55565533319 0.35 0 0.55565533319 0.3 0 
0.55565533319 0.25 0 0.55565533319 0.2 0 0.55565533319 0.15 0 
0.55565533319 0.1 0 0.55565533319 0.05 0 0.55565533319 0 0 
0.60374211656 1.5 0 0.60374211656 1.45 0 0.60374211656 1.4 0 
0.60374211656 1.35 0 0.60374211656 1.3 0 0.60374211656 1.25 0 
0.60374211656 1.2 0 0.60374211656 1.15 0 0.60374211656 1.1 0 
0.60374211656 1.05 0 0.60374211656 1 0 0.60374211656 0.95 0 
0.60374211656 0.9 0 0.60374211656 0.85 0 0.60374211656 0.8 0 
0.60374211656 0.75 0 0.60374211656 0.7 0 0.60374211656 0.65 0 
0.60374211656 0.6 0 0.60374211656 0.55 0 0.60374211656 0.5 0 
0.60374211656 0.45 0 0.60374211656 0.4 0 0.60374211656 0.35 0 
0.60374211656 0.3 0 0.60374211656 0.25 0 0.60374211656 0.2 0 
0.60374211656 0.15 0 0.60374211656 0.1 0 0.60374211656 0.05 0 
0.60374211656 0 0 0.65419187143 1.5 0 0.65419187143 1.45 0 
0.65419187143 1.4 0 0.65419187143 1.35 0 0.65419187143 1.3 0 
0.65419187143 1.25 0 0.65419187143 1.2 0 0.65419187143 1.15 0 
[...]
CELL_DATA 4740
FIELD FieldData 7
B_Stress_n_p_m2 1 4740 float
0.403059 0.407767 0.412535 0.417588 0.422985 0.428853 0.43516 0.441684 0.447854 
0.452556 0.453924 0.448934 0.432179 0.400717 0.355369 0.202347 0.114859 0.0751822 
0.055781 0.0439102 0.035922 0.0302969 0.0262217 0.0232256 0.0210151 0.0193968 0.0182401 
0.0174681 0.0169906 0.0164816 0.390292 0.394846 0.399195 0.40366 0.408257 0.413116 
0.418223 0.423405 0.428217 0.431785 0.432644 0.428373 0.414942 0.39019 0.347814 
0.234448 0.149484 0.102403 0.0752747 0.0576142 0.0453569 0.0364997 0.0299241 0.0249693 
0.0212202 0.0184035 0.0163373 0.0149104 0.0139552 0.0132135 0.37717 0.381551 0.385482 
0.389332 0.393092 0.39688 0.400669 0.4043 0.40738 0.409166 0.408416 0.403072 
0.389956 0.366596 0.325122 0.2403 0.167987 0.12073 0.0901958 0.0693672 0.0545793 
0.0437489 0.0356381 0.0294846 0.0247977 0.021249 0.0186189 0.0167657 0.0154463 0.0144883 
0.363766 0.367961 0.37148 0.374706 0.377626 0.380325 0.382756 0.384746 0.385917 
0.38559 0.382662 0.37536 0.361154 0.337591 0.298486 0.233645 0.173856 0.13015 
0.0994756 0.0775873 0.0616349 0.0497691 0.0408017 0.0339604 0.0287296 0.0247552 0.0217959 
0.0196866 0.0181519 0.0171539 0.350158 0.354159 0.357276 0.359893 0.361997 0.363639 
0.364747 0.365129 0.364408 0.361952 0.356776 0.347392 0.331832 0.308033 0.272063 
0.220907 0.172008 0.13339 0.104462 0.082909 0.0667436 0.0544899 0.045113 0.0378973 
0.0323446 0.0281012 0.0249226 0.0226327 0.0209533 0.0199592 0.336429 0.340234 0.342967 
0.345008 0.346347 0.347006 0.346894 0.345803 0.343368 0.339009 0.331878 0.320782 
0.304267 0.280847 0.248453 0.207151 0.167059 0.133587 0.107169 0.0866967 0.0708923 
0.0586597 0.0491562 0.0417599 0.0360161 0.0315917 0.028252 0.0258212 0.0240338 0.0230359 
0.322672 0.326278 0.328655 0.330168 0.330817 0.330603 0.329423 0.32707 0.323202 
0.317315 0.308711 0.29649 0.279652 0.257282 0.228562 0.194619 0.161413 0.132542 
0.108787 0.0897286 0.0746028 0.0626409 0.0531915 0.0457396 0.0398895 0.0353405 0.0318774 
0.0293327 0.027462 0.0264539 0.308982 0.312392 0.314446 0.315492 0.315542 0.314587 
0.312524 0.309159 0.304191 0.297203 0.287656 0.274912 0.258343 0.237488 0.212241 
0.183903 0.15606 0.131124 0.109913 0.0923743 0.0780921 0.0665559 0.0572843 0.0498684 
0.0439767 0.0393484 0.0357934 0.0331575 0.031222 0.0302005 0.295456 0.298676 0.300443 
0.301091 0.300646 0.299096 0.296346 0.292228 0.286496 0.278823 0.268816 0.256059 
0.240203 0.221097 0.198975 0.174992 0.151369 0.129748 0.110859 0.0948292 0.0814673 
0.070455 0.061452 0.0541459 0.0482695 0.0436041 0.0399875 0.0372821 0.0352973 0.0342607 
0.282191 0.285228 0.28675 0.287073 0.286239 0.284239 0.280997 0.276377 0.270187 
0.26219 0.252122 0.239734 0.224873 0.207575 0.1882 0.167675 0.147428 0.128594 
0.111783 0.097196 0.0847806 0.0743547 0.06569 0.0585575 0.0527491 0.0480881 0.0444411 
0.0416884 0.0396688 0.0386166 0.269277 0.272141 0.27346 0.273531 0.272413 0.270104 
0.266551 0.261651 0.255268 0.247242 0.237412 0.225653 0.211938 0.196399 0.179414 
0.161697 0.1442 0.127722 0.112757 0.0995257 0.0880537 0.0782535 0.0699817 0.0630782 
0.0573876 0.0527721 0.0491264 0.0463495 0.0443092 0.0432419 0.2568 0.259502 0.260658 
0.260549 0.259244 0.256756 0.25305 0.248061 0.2417 0.23387 0.224489 0.213519 
0.201005 0.187121 0.172212 0.156821 0.141606 0.127139 0.113814 0.101842 0.0912938 
0.0821414 0.0743046 0.0676781 0.062151 0.0576209 0.0540081 0.0512303 0.0491834 0.0481014 
0.244835 0.247387 0.24842 0.248194 0.246792 0.244236 0.240513 0.235589 0.229415 
0.221946 0.213154 0.203056 0.191737 0.17938 0.166281 0.152851 0.139559 0.126825 
0.114961 0.104157 0.0945006 0.0860052 0.0786342 0.0723245 0.0670019 0.0625942 0.0590447 
0.0562886 0.0542486 0.0531521 0.233446 0.23586 0.236805 0.236521 0.235097 0.232568 
0.228939 0.2242 0.218335 0.211337 0.203216 0.194022 0.183857 0.172893 0.161378 
0.149627 0.137981 0.126756 0.116197 0.10647 0.097669 0.0898293 0.0829446 0.0769831 
0.0718998 0.0676477 0.0641894 0.0614765 0.0594557 0.0583445 0.222685 0.224975 0.225863 
0.225568 0.224186 0.22176 0.218309 0.213844 0.208374 0.201916 0.194506 0.18621 
0.177135 0.167436 0.157316 0.147019 0.1368 0.126899 0.117511 0.108778 0.100791 
0.0935965 0.0872091 0.0816189 0.0768029 0.0727344 0.0693921 0.0667416 0.064751 0.0636245 
0.212591 0.214769 0.215626 0.21536 0.21407 0.211805 0.208595 0.204466 0.199444 
0.193563 0.186873 0.179447 0.171389 0.162834 0.153949 0.144924 0.135954 0.127224 
0.118889 0.111071 0.103854 0.0972885 0.0914008 0.0861964 0.0816688 0.0778064 0.0746005 
0.072029 0.0700774 0.0689349 0.20319 0.205268 0.206115 0.205909 0.204749 0.202686 
0.199759 0.196005 0.191459 0.186166 0.180183 0.173585 0.166467 0.158946 0.151159 
0.143254 0.135386 0.127698 0.120315 0.113339 0.106845 0.100886 0.0954929 0.0906812 
0.0864555 0.0828156 0.0797621 0.0772827 0.0753772 0.0742177 0.194496 0.196486 0.197338 
0.197215 0.19621 0.194377 0.191758 0.188397 0.184336 0.179625 0.174323 0.168501 
0.162246 0.155658 0.148849 0.141939 0.135048 0.128291 0.121768 0.115566 0.10975 
0.10437 0.0994593 0.0950397 0.0911227 0.0877157 0.0848257 0.0824481 0.0805936 0.0794162 
0.186511 0.188422 0.189293 0.189267 0.188433 0.186844 0.184545 0.181582 0.177999 
0.17385 0.169191 0.16409 0.158624 0.152877 0.146942 0.140917 0.134897 0.128974 
0.12323 0.117736 0.112551 0.107719 0.103275 0.0992406 0.0956326 0.0924631 0.0897431 
0.0874736 0.0856728 0.0844768 0.179227 0.181069 0.181968 0.182047 0.18139 0.18005 
0.17807 0.175497 0.172376 0.16876 0.164702 0.160264 0.155514 0.150524 0.145372 
0.140136 0.134893 0.129719 0.124679 0.119834 0.115234 0.110917 0.106916 0.103255 
0.0999509 0.0970182 0.0944703 0.0923118 0.0905658 0.0893505 0.172627 0.174409 0.17534 
0.175527 0.175049 0.173953 0.172283 0.170084 0.167401 0.164282 0.160779 0.156947 
0.152845 0.148536 0.144082 0.13955 0.135003 0.130501 0.126098 0.121844 0.117782 
0.113945 0.110363 0.107058 0.104048 0.101347 0.0989689 0.0969215 0.0952296 0.0939946 
0.166687 0.168417 0.169382 0.169677 0.169372 0.16851 0.167135 0.165288 0.163012 
0.160353 0.157357 0.154074 0.150556 0.146855 0.143027 0.139123 0.135197 0.131297 
0.127468 0.123751 0.120181 0.116789 0.113598 0.110629 0.107898 0.105419 0.103207 
0.101268 0.0996283 0.0983736 0.161378 0.163062 0.164063 0.164461 0.164319 0.163678 
0.162577 0.161055 0.159154 0.156913 0.154377 0.151589 0.148593 0.145437 0.142164 
0.13882 0.135448 0.132086 0.128773 0.125542 0.122421 0.119435 0.116605 0.11395 
0.111481 0.109214 0.107159 0.105324 0.103734 0.10246 0.156665 0.15831 0.159345 
0.15984 0.159849 0.159411 0.158562 0.157337 0.155775 0.153913 0.151789 0.149443 
0.146913 0.14424 0.141462 0.138614 0.135734 0.132853 0.130001 0.127206 0.12449 
0.121875 0.119376 0.117009 0.114785 0.112714 0.110807 0.10907 0.107526 0.106233 
0.152512 0.154122 0.155189 0.155772 0.15592 0.155666 0.155044 0.154087 0.152829 
0.151304 0.149548 0.147594 0.145477 0.143232 0.140889 0.138481 0.136036 0.133581 
0.13114 0.128734 0.126383 0.124102 0.121905 0.119801 0.117801 0.115911 0.114141 
0.112495 0.110993 0.109682 0.148879 0.150459 0.151556 0.152218 0.152489 0.1524 
0.15198 0.15126 0.150272 0.149046 0.147613 0.146005 0.144252 0.142382 0.140422 
0.1384 0.136339 0.13426 0.132182 0.130123 0.128097 0.126116 0.124188 0.122323 
0.120525 0.118802 0.117156 0.115593 0.11413 0.112802 0.145726 0.14728 0.148403 
0.149136 0.149515 0.149571 0.149328 0.148817 0.148065 0.1471 0.145951 0.144644 
0.143207 0.141665 0.14004 0.138356 0.13663 0.134881 0.133123 0.13137 0.129632 
0.127916 0.12623 0.124578 0.122963 0.121388 0.119856 0.118368 0.116939 0.115597 
0.143012 0.144545 0.14569 0.146483 0.146957 0.147137 0.147049 0.146718 0.14617 
0.145432 0.144527 0.143482 0.142319 0.141061 0.139726 0.138334 0.1369 0.135439 
0.13396 0.132475 0.130989 0.129509 0.128036 0.126573 0.12512 0.123679 0.122248 
0.120828 0.11943 0.118073 0.140697 0.142211 0.143375 0.144219 0.144774 0.145061 
0.145104 0.144927 0.144554 0.144009 0.143315 0.142493 0.141565 0.14055 0.139465 
0.138325 0.137143 0.13593 0.134694 0.133441 0.132176 0.130901 0.129616 0.128319 
0.12701 0.125687 0.124346 0.122987 0.121615 0.120247 0.138742 0.140239 0.141419 
0.142306 0.142928 0.143304 0.143458 0.143411 0.143185 0.142803 0.142286 0.141654 
0.140926 0.140118 0.139245 0.13832 0.137354 0.136354 0.135327 0.134275 0.133201 
0.132104 0.130982 0.129832 0.128649 0.127429 0.126168 0.124862 0.123515 0.122136 
0.137109 0.138592 0.139783 0.140705 0.141382 0.141832 0.142077 0.142137 0.142033 
0.141787 0.141418 0.140945 0.140384 0.13975 0.139057 0.138314 0.137531 0.136712 
0.135863 0.134983 0.134074 0.13313 0.13215 0.131126 0.130053 0.128925 0.127733 
0.126474 0.125149 0.123762 0.135762 0.137232 0.138432 0.139382 0.140102 0.140611 
0.140929 0.141076 0.141072 0.140937 0.140689 0.140347 0.139924 0.139435 0.138892 
0.138302 0.137672 0.137007 0.136308 0.135575 0.134806 0.133995 0.133136 0.132222 
0.131245 0.130196 0.129066 0.127849 0.126542 0.125149 0.134666 0.136125 0.137331 
0.138301 0.139054 0.139609 0.139984 0.1402 0.140275 0.140229 0.14008 0.139843 
0.139534 0.139164 0.138743 0.13828 0.137778 0.137241 0.136669 0.136061 0.13541 
0.134712 0.133958 0.13314 0.132245 0.131265 0.13019 0.129009 0.12772 0.126322 
0.13379 0.13524 0.136448 0.137432 0.138209 0.138797 0.139216 0.139483 0.13962 
0.139643 0.139571 0.139419 0.1392 0.138927 0.138606 0.138246 0.13785 0.13742 
0.136954 0.13645 0.1359 0.135299 0.134635 0.133898 0.133076 0.132157 0.131129 
0.129982 0.128709 0.127307 0.133105 0.134545 0.135754 0.136746 0.137538 0.138149 
0.138598 0.138903 0.139084 0.13916 0.139147 0.139061 0.138913 0.138716 0.138476 
0.1382 0.137891 0.137548 0.13717 0.136753 0.136289 0.13577 0.135183 0.134518 
0.13376 0.132895 0.131909 0.130792 0.129534 0.12813 0.132584 0.134015 0.135222 
0.136216 0.137016 0.13764 0.138108 0.138437 0.13865 0.138763 0.138793 0.138756 
0.138663 0.138525 0.138349 0.138141 0.137901 0.13763 0.137325 0.136981 0.136589 
0.13614 0.135621 0.135018 0.134316 0.1335 0.132554 0.131464 0.130221 0.128817 
0.132203 0.133627 0.134828 0.13582 0.136621 0.137249 0.137724 0.138067 0.138298 
0.138435 0.138496 0.138494 0.138442 0.138349 0.138222 0.138066 0.137883 0.13767 
0.137426 0.137143 0.136813 0.136425 0.135965 0.135418 0.134767 0.133995 0.133085 
0.132022 0.130793 0.12939 0.131942 0.133358 0.134551 0.135536 0.136331 0.136954 
0.137429 0.137775 0.138014 0.138164 0.138243 0.138264 0.138241 0.138181 0.138092 
0.137978 0.137838 0.137674 0.137479 0.137248 0.136971 0.136636 0.136229 0.135732 
0.135129 0.134399 0.133524 0.132487 0.131274 0.129873 0.131784 0.133191 0.134374 
0.135347 0.136128 0.13674 0.137205 0.137545 0.137782 0.137936 0.138023 0.138058 
0.138054 0.138018 0.137956 0.137873 0.13777 0.137643 0.13749 0.137303 0.137072 
0.136785 0.136426 0.135977 0.135419 0.13473 0.13389 0.13288 0.131683 0.130287 
0.131715 0.133113 0.134282 0.135237 0.135999 0.136591 0.137038 0.137364 0.137591 
0.137739 0.137827 0.137868 0.137874 0.137854 0.137812 0.137754 0.137678 0.137583 
0.137464 0.137315 0.137126 0.136882 0.136568 0.136165 0.135651 0.135004 0.134201 
0.133219 0.13204 0.13065 0.131723 0.133111 0.134262 0.135194 0.135929 0.136494 
0.136915 0.137219 0.137428 0.137565 0.137646 0.137687 0.137697 0.137686 0.137658 
0.137617 0.137563 0.137494 0.137405 0.137289 0.137137 0.136934 0.136664 0.136306 
0.135839 0.135235 0.134471 0.133521 0.132363 0.13098 0.131802 0.133178 0.134307 
0.135208 0.135909 0.136438 0.136825 0.137099 0.137284 0.137403 0.137473 0.137507 
0.137517 0.137511 0.137492 0.137464 0.137427 0.137379 0.137315 0.137229 0.137111 
0.136947 0.136721 0.13641 0.135991 0.135435 0.134715 0.133801 0.132667 0.131296 
0.131948 0.133309 0.134409 0.135271 0.135928 0.136412 0.136757 0.136994 0.13715 
0.137245 0.137299 0.137325 0.137331 0.137326 0.137312 0.137294 0.13727 0.137239 
0.137197 0.137138 0.137052 0.136926 0.136743 0.136482 0.136115 0.135614 0.134944 
0.134073 0.13297 0.131612 0.132162 0.133504 0.134566 0.135378 0.135979 0.136407 
0.136702 0.136895 0.137015 0.137085 0.13712 0.137134 0.137134 0.137128 0.137118 
0.137106 0.137092 0.137075 0.137052 0.137017 0.13696 0.136872 0.136734 0.136524 
0.136217 0.135777 0.135168 0.13435 0.133286 0.131946 0.132451 0.133766 0.134777 
0.135523 0.136053 0.136413 0.136647 0.13679 0.136872 0.136913 0.136929 0.136931 
0.136925 0.136916 0.136907 0.1369 0.136894 0.136889 0.136881 0.136866 0.136837 
0.136784 0.136692 0.136538 0.136296 0.135929 0.135394 0.134644 0.133632 0.132318 
0.132827 0.134103 0.135042 0.135699 0.136138 0.136416 0.136581 0.136671 0.136713 
0.136726 0.136724 0.136714 0.136702 0.136692 0.136684 0.136679 0.136679 0.136682 
0.136686 0.136688 0.136683 0.136662 0.136614 0.136519 0.136349 0.136067 0.135625 
0.134966 0.134027 0.132751 0.133321 0.134535 0.135364 0.135897 0.136218 0.136398 
0.136488 0.136523 0.136529 0.136518 0.136502 0.136484 0.136468 0.136457 0.13645 
0.136448 0.13645 0.136458 0.136469 0.136483 0.136496 0.136503 0.136495 0.136456 
0.136364 0.136182 0.135859 0.135326 0.134496 0.133282 0.134001 0.135091 0.135733 
0.136082 0.136253 0.136324 0.13634 0.136329 0.136307 0.136282 0.136259 0.13624 
0.136225 0.136215 0.13621 0.136209 0.136213 0.136221 0.136234 0.136252 0.136274 
0.136297 0.136318 0.136327 0.13631 0.136239 0.136067 0.135718 0.135076 0.133987 
0.134851 0.135643 0.136 0.136142 0.136183 0.13618 0.136159 0.136134 0.136111 
0.136091 0.136075 0.136063 0.136055 0.136049 0.136047 0.136046 0.136049 0.136054 
0.136062 0.136074 0.136089 0.136109 0.136132 0.136156 0.136176 0.13618 0.136138 
0.135997 0.135639 0.134847 0.503324 0.508753 0.515788 0.52368 0.532259 0.540695 
0.547579 0.55052 0.545871 0.528547 0.492146 0.429809 0.33669 0.213684 0.0801605 
0.00231499 0.00294573 0.00423023 0.005586 0.00654474 0.00717443 0.00757963 0.00784003 0.00800829 
0.00811754 0.00818831 0.00823334 0.0082608 0.00827464 0.00827622 0.491068 0.496482 0.503406 
0.511233 0.519888 0.528735 0.536618 0.541471 0.539988 0.527335 0.497038 0.441541 
0.354159 0.232134 0.0928879 0.00346123 0.00458676 0.00614549 0.00755565 0.00854664 0.00920471 
0.00963421 0.00991406 0.0100971 0.0102171 0.0102954 0.0103452 0.0103752 0.0103894 0.0103813 
0.478625 0.483996 0.490751 0.498408 0.506981 0.516013 0.5246 0.531021 0.532384 
0.524246 0.500295 0.452569 0.372617 0.253402 0.109169 0.00506163 0.00653804 0.00773468 
0.00872305 0.00940844 0.0098737 0.0101879 0.0103997 0.0105426 0.0106386 0.0107023 0.0107431 
0.0107671 0.0107792 0.0107804 0.466054 0.471356 0.477884 0.485275 0.493612 0.5026 
0.511569 0.51915 0.522911 0.518929 0.501312 0.462089 0.391322 0.277469 0.130641 
0.00739468 0.00894745 0.0094411 0.00981658 0.0100804 0.0102769 0.0104257 0.0105369 0.0106184 
0.0106767 0.010717 0.0107429 0.0107572 0.0107634 0.0107597 0.453412 0.458621 0.464873 
0.471909 0.479868 0.488587 0.497607 0.50589 0.511484 0.51108 0.49946 0.469123 
0.409197 0.304336 0.16029 0.0111703 0.0120303 0.0113621 0.0109929 0.0108032 0.0107206 
0.0106974 0.0107021 0.0107173 0.0107339 0.0107478 0.0107567 0.0107593 0.0107573 0.01074 
0.440759 0.445856 0.451786 0.458397 0.46585 0.474092 0.482837 0.491341 0.498111 
0.500493 0.494144 0.4725 0.424647 0.33368 0.202052 0.0179889 0.0160087 0.0134459 
0.0121872 0.0115245 0.0111635 0.0109677 0.0108623 0.010806 0.0107757 0.0107585 0.0107468 
0.0107349 0.0107231 0.0106745 0.428148 0.433122 0.438692 0.444821 0.451663 0.459248 
0.46742 0.475673 0.482912 0.487112 0.484885 0.470925 0.435423 0.3638 0.256993 
0.0295551 0.0203183 0.0150707 0.0128756 0.0117529 0.0111172 0.0107421 0.0105143 0.0103725 
0.0102819 0.0102222 0.010181 0.0101496 0.0101273 0.0100223 0.415605 0.420449 0.425628 
0.431235 0.437384 0.444168 0.45151 0.45908 0.466094 0.471055 0.471444 0.46324 
0.43875 0.389337 0.314733 0.0513946 0.0274611 0.0180471 0.0143107 0.0122816 0.0110256 
0.0102063 0.00965329 0.00927168 0.0090049 0.00881774 0.00868706 0.00860005 0.00855067 0.00839822 
0.210496 0.212095 0.212748 0.212472 0.211293 0.209239 0.206341 0.202634 0.198162 
0.192972 0.187117 0.180653 0.173643 0.166154 0.158258 0.150029 0.141549 0.132903 
0.124183 0.115485 0.106911 0.0985719 0.0905833 0.083069 0.0761587 0.0699864 0.0646861 
0.0603864 0.0572073 0.0552439 0.214806 0.216374 0.216967 0.2166 0.215294 0.213075 
0.209978 0.20604 0.201306 0.195827 0.189657 0.182858 0.175494 0.167636 0.159359 
0.150741 0.141866 0.132824 0.123708 0.114618 0.105659 0.096945 0.0885951 0.0807375 
0.0735075 0.0670463 0.0614973 0.0569997 0.0536806 0.0516415 0.217692 0.219257 0.219821 
0.219397 0.218008 0.215682 0.212452 0.208359 0.20345 0.197776 0.191396 0.184371 
0.17677 0.168664 0.160132 0.151253 0.142115 0.132808 0.123426 0.114073 0.104855 
0.0958862 0.0872895 0.0791957 0.071744 0.065081 0.0593573 0.054721 0.0513084 0.0492303 
0.221258 0.222825 0.223356 0.222864 0.221373 0.218912 0.215518 0.211232 0.206103 
0.200186 0.193542 0.186235 0.178336 0.169922 0.161071 0.151869 0.142403 0.132768 
0.123062 0.113387 0.103854 0.09458 0.0856892 0.0773161 0.0696041 0.062706 0.0567801 
0.0519845 0.0484669 0.0463498 0.224878 0.226446 0.226941 0.226379 0.224782 0.222184 
0.21862 0.214135 0.208782 0.202616 0.195702 0.188108 0.179908 0.171181 0.16201 
0.152482 0.14269 0.132728 0.122699 0.112708 0.102867 0.0932939 0.084117 0.0754728 
0.0675086 0.0603822 0.0542593 0.0493077 0.0456865 0.0435305 0.228706 0.230275 0.230733 
0.230095 0.228386 0.22564 0.221896 0.2172 0.211606 0.205176 0.197976 0.190077 
0.181557 0.172499 0.16299 0.15312 0.142985 0.132683 0.122319 0.112001 0.101843 
0.0919652 0.0824974 0.0735787 0.0653596 0.0580026 0.0516805 0.0465704 0.0428435 0.0406477 
0.232689 0.234259 0.234677 0.23396 0.232133 0.229232 0.225297 0.220379 0.214535 
0.207827 0.200327 0.19211 0.183257 0.173856 0.163996 0.153773 0.143286 0.132636 
0.121931 0.111282 0.100804 0.0906209 0.0808634 0.0716723 0.0632009 0.0556156 0.0490955 
0.0438269 0.0399935 0.0377572 0.23684 0.238411 0.238787 0.237986 0.236035 0.23297 
0.228836 0.223684 0.217576 0.210578 0.202764 0.194214 0.185015 0.175256 0.165033 
0.154444 0.143593 0.132586 0.121533 0.110547 0.0997476 0.0892583 0.0792119 0.0697508 
0.0610301 0.0532192 0.0465029 0.0410763 0.0371356 0.034858 0.241159 0.242731 0.243063 
0.242173 0.240091 0.236855 0.232511 0.227115 0.22073 0.213428 0.205286 0.19639 
0.186829 0.176698 0.166098 0.155132 0.143907 0.132534 0.121126 0.109799 0.0986752 
0.08788 0.0775472 0.06782 0.0588546 0.0508229 0.0439139 0.038331 0.034283 0.0319635 
0.245654 0.247226 0.247512 0.246529 0.24431 0.240893 0.236329 0.230677 0.224002 
0.216382 0.207898 0.198639 0.188701 0.178184 0.167193 0.155837 0.144227 0.132478 
0.120708 0.109036 0.0975857 0.0864853 0.0758692 0.065881 0.0566772 0.0484309 0.0413344 
0.0355984 0.0314437 0.0290819 0.250335 0.251907 0.252144 0.251063 0.248699 0.245093 
0.240298 0.234376 0.227398 0.219445 0.210602 0.200965 0.190634 0.179716 0.168319 
0.156559 0.144552 0.132418 0.120278 0.108255 0.0964774 0.0850729 0.0741775 0.0639347 
0.0545005 0.0460479 0.0387712 0.0328868 0.0286275 0.0262232 0.255212 0.256785 0.256969 
0.255786 0.253269 0.249464 0.244427 0.238222 0.230926 0.222624 0.213406 0.203374 
0.192633 0.181295 0.169477 0.157298 0.144881 0.132351 0.119833 0.107456 0.0953477 
0.0836407 0.0724706 0.0619808 0.0523259 0.0436775 0.0362303 0.0302046 0.0258438 0.0233975 
0.260302 0.261874 0.262004 0.260711 0.258034 0.25402 0.248727 0.242226 0.234596 
0.225927 0.216316 0.205871 0.194701 0.182927 0.17067 0.158057 0.145216 0.132277 
0.119373 0.106634 0.0941937 0.0821855 0.0707461 0.0600181 0.0501541 0.041323 0.0337178 
0.0275604 0.0231032 0.020616 0.265619 0.267191 0.267263 0.265856 0.26301 0.258775 
0.253213 0.2464 0.238419 0.229365 0.219342 0.208463 0.196846 0.184615 0.171901 
0.158836 0.145555 0.132196 0.118894 0.105787 0.0930119 0.0807039 0.069001 0.0580448 
0.0479851 0.038987 0.0312394 0.0249632 0.0204172 0.017891 0.271185 0.272756 0.272766 
0.271238 0.268213 0.263745 0.257901 0.250759 0.242408 0.23295 0.222494 0.21116 
0.199073 0.186365 0.173173 0.159638 0.145901 0.132105 0.118396 0.104913 0.0917987 
0.0791919 0.0672314 0.0560579 0.045818 0.0366715 0.0288009 0.0224229 0.0177988 0.015237 