# vtk DataFile Version 5.1
vtk output
ASCII
DATASET UNSTRUCTURED_GRID
POINTS 616 double
-10.1 1.299999997 0 -9.899999997 1.299999997 0 -9.899999997 1.5 0 
-9.699999994 1.299999997 0 -9.699999994 1.5 0 -9.4999999911 1.299999997 0 
-9.4999999911 1.5 0 -9.2999999881 1.299999997 0 -9.2999999881 1.5 0 
-9.0999999851 1.299999997 0 -9.0999999851 1.5 0 -8.8999999821 1.299999997 0 
-8.8999999821 1.5 0 -8.6999999791 1.299999997 0 -8.6999999791 1.5 0 
-8.4999999762 1.299999997 0 -8.4999999762 1.5 0 -8.2999999732 1.299999997 0 
-8.2999999732 1.5 0 -8.0999999702 1.299999997 0 -8.0999999702 1.5 0 
-7.8999999672 1.299999997 0 -7.8999999672 1.5 0 -7.6999999642 1.299999997 0 
-7.6999999642 1.5 0 -7.4999999613 1.299999997 0 -7.4999999613 1.5 0 
-7.2999999583 1.299999997 0 -7.2999999583 1.5 0 -7.0999999553 1.299999997 0 
-7.0999999553 1.5 0 -6.8999999523 1.299999997 0 -6.8999999523 1.5 0 
-6.6999999493 1.299999997 0 -6.6999999493 1.5 0 -6.4999999464 1.299999997 0 
-6.4999999464 1.5 0 -6.2999999434 1.299999997 0 -6.2999999434 1.5 0 
-6.0999999404 1.299999997 0 -6.0999999404 1.5 0 -5.8999999374 1.299999997 0 
-5.8999999374 1.5 0 -5.6999999344 1.299999997 0 -5.6999999344 1.5 0 
-5.4999999315 1.299999997 0 -5.4999999315 1.5 0 -5.2999999285 1.299999997 0 
-5.2999999285 1.5 0 -5.0999999255 1.299999997 0 -5.0999999255 1.5 0 
-4.8999999225 1.299999997 0 -4.8999999225 1.5 0 -4.6999999195 1.299999997 0 
-4.6999999195 1.5 0 -4.4999999166 1.299999997 0 -4.4999999166 1.5 0 
-4.2999999136 1.299999997 0 -4.2999999136 1.5 0 -4.0999999106 1.299999997 0 
-4.0999999106 1.5 0 -3.8999999076 1.299999997 0 -3.8999999076 1.5 0 
-3.6999999046 1.299999997 0 -3.6999999046 1.5 0 -3.4999999017 1.299999997 0 
-3.4999999017 1.5 0 -3.2999998987 1.299999997 0 -3.2999998987 1.5 0 
-3.0999998957 1.299999997 0 -3.0999998957 1.5 0 -2.8999998927 1.299999997 0 
-2.8999998927 1.5 0 -2.6999998897 1.299999997 0 -2.6999998897 1.5 0 
-2.4999998868 1.299999997 0 -2.4999998868 1.5 0 -2.2999998838 1.299999997 0 
-2.2999998838 1.5 0 -2.0999998808 1.299999997 0 -2.0999998808 1.5 0 
-1.8999998778 1.299999997 0 -1.8999998778 1.5 0 -1.6999998748 1.299999997 0 
-1.6999998748 1.5 0 -1.4999998719 1.299999997 0 -1.4999998719 1.5 0 
-1.2999998689 1.299999997 0 -1.2999998689 1.5 0 -1.0999998659 1.299999997 0 
-1.0999998659 1.5 0 -0.89999986291 1.299999997 0 -0.89999986291 1.5 0 
-0.69999985993 1.299999997 0 -0.69999985993 1.5 0 -0.49999985695 1.299999997 0 
-0.49999985695 1.5 0 -0.29999985397 1.299999997 0 -0.29999985397 1.5 0 
-0.099999850988 1.299999997 0 -0.099999850988 1.5 0 0.10000015199 1.299999997 0 
0.10000015199 1.5 0 0.30000015497 1.299999997 0 0.30000015497 1.5 0 
0.50000015795 1.299999997 0 0.50000015795 1.5 0 0.70000016093 1.299999997 0 
0.70000016093 1.5 0 0.90000016391 1.299999997 0 0.90000016391 1.5 0 
1.1000001669 1.299999997 0 1.1000001669 1.5 0 1.3000001699 1.299999997 0 
1.3000001699 1.5 0 1.5000001729 1.299999997 0 1.5000001729 1.5 0 
1.7000001758 1.299999997 0 1.7000001758 1.5 0 1.9000001788 1.299999997 0 
1.9000001788 1.5 0 2.1000001818 1.299999997 0 2.1000001818 1.5 0 
2.3000001848 1.299999997 0 2.3000001848 1.5 0 2.5000001878 1.299999997 0 
2.5000001878 1.5 0 2.7000001907 1.299999997 0 2.7000001907 1.5 0 
2.9000001937 1.299999997 0 2.9000001937 1.5 0 3.1000001967 1.299999997 0 
3.1000001967 1.5 0 3.3000001997 1.299999997 0 3.3000001997 1.5 0 
3.5000002027 1.299999997 0 3.5000002027 1.5 0 3.7000002056 1.299999997 0 
3.7000002056 1.5 0 3.9000002086 1.299999997 0 3.9000002086 1.5 0 
4.1000002116 1.299999997 0 4.1000002116 1.5 0 4.3000002146 1.299999997 0 
4.3000002146 1.5 0 4.5000002176 1.299999997 0 4.5000002176 1.5 0 
4.7000002205 1.299999997 0 4.7000002205 1.5 0 4.9000002235 1.299999997 0 
4.9000002235 1.5 0 5.08 1.299999997 0 -9.899999997 1.099999994 0 
-10.1 1.099999994 0 -9.699999994 1.099999994 0 -9.4999999911 1.099999994 0 
-9.2999999881 1.099999994 0 -9.0999999851 1.099999994 0 -8.8999999821 1.099999994 0 
-8.6999999791 1.099999994 0 -8.4999999762 1.099999994 0 -8.2999999732 1.099999994 0 
-8.0999999702 1.099999994 0 -7.8999999672 1.099999994 0 -7.6999999642 1.099999994 0 
-7.4999999613 1.099999994 0 -7.2999999583 1.099999994 0 -7.0999999553 1.099999994 0 
-6.8999999523 1.099999994 0 -6.6999999493 1.099999994 0 -6.4999999464 1.099999994 0 
-6.2999999434 1.099999994 0 -6.0999999404 1.099999994 0 -5.8999999374 1.099999994 0 
-5.6999999344 1.099999994 0 -5.4999999315 1.099999994 0 -5.2999999285 1.099999994 0 
-5.0999999255 1.099999994 0 -4.8999999225 1.099999994 0 -4.6999999195 1.099999994 0 
-4.4999999166 1.099999994 0 -4.2999999136 1.099999994 0 -4.0999999106 1.099999994 0 
-3.8999999076 1.099999994 0 -3.6999999046 1.099999994 0 -3.4999999017 1.099999994 0 
-3.2999998987 1.099999994 0 -3.0999998957 1.099999994 0 -2.8999998927 1.099999994 0 
-2.6999998897 1.099999994 0 -2.4999998868 1.099999994 0 -2.2999998838 1.099999994 0 
-2.0999998808 1.099999994 0 -1.8999998778 1.099999994 0 -1.6999998748 1.099999994 0 
-1.4999998719 1.099999994 0 -1.2999998689 1.099999994 0 -1.0999998659 1.099999994 0 
-0.89999986291 1.099999994 0 -0.69999985993 1.099999994 0 -0.49999985695 1.099999994 0 
-0.29999985397 1.099999994 0 -0.099999850988 1.099999994 0 0.10000015199 1.099999994 0 
0.30000015497 1.099999994 0 0.50000015795 1.099999994 0 0.70000016093 1.099999994 0 
0.90000016391 1.099999994 0 1.1000001669 1.099999994 0 1.3000001699 1.099999994 0 
1.5000001729 1.099999994 0 1.7000001758 1.099999994 0 1.9000001788 1.099999994 0 
2.1000001818 1.099999994 0 2.3000001848 1.099999994 0 2.5000001878 1.099999994 0 
2.7000001907 1.099999994 0 2.9000001937 1.099999994 0 3.1000001967 1.099999994 0 
3.3000001997 1.099999994 0 3.5000002027 1.099999994 0 3.7000002056 1.099999994 0 
3.9000002086 1.099999994 0 4.1000002116 1.099999994 0 4.3000002146 1.099999994 0 
4.5000002176 1.099999994 0 4.7000002205 1.099999994 0 4.9000002235 1.099999994 0 
5.08 1.099999994 0 -9.899999997 0.89999999106 0 -10.1 0.89999999106 0 
-9.699999994 0.89999999106 0 -9.4999999911 0.89999999106 0 -9.2999999881 0.89999999106 0 
-9.0999999851 0.89999999106 0 -8.8999999821 0.89999999106 0 -8.6999999791 0.89999999106 0 
-8.4999999762 0.89999999106 0 -8.2999999732 0.89999999106 0 -8.0999999702 0.89999999106 0 
-7.8999999672 0.89999999106 0 -7.6999999642 0.89999999106 0 -7.4999999613 0.89999999106 0 
-7.2999999583 0.89999999106 0 -7.0999999553 0.89999999106 0 -6.8999999523 0.89999999106 0 
-6.6999999493 0.89999999106 0 -6.4999999464 0.89999999106 0 -6.2999999434 0.89999999106 0 
-6.0999999404 0.89999999106 0 -5.8999999374 0.89999999106 0 -5.6999999344 0.89999999106 0 
-5.4999999315 0.89999999106 0 -5.2999999285 0.89999999106 0 -5.0999999255 0.89999999106 0 
-4.8999999225 0.89999999106 0 -4.6999999195 0.89999999106 0 -4.4999999166 0.89999999106 0 
-4.2999999136 0.89999999106 0 -4.0999999106 0.89999999106 0 -3.8999999076 0.89999999106 0 
-3.6999999046 0.89999999106 0 -3.4999999017 0.89999999106 0 -3.2999998987 0.89999999106 0 
-3.0999998957 0.89999999106 0 -2.8999998927 0.89999999106 0 -2.6999998897 0.89999999106 0 
-2.4999998868 0.89999999106 0 -2.2999998838 0.89999999106 0 -2.0999998808 0.89999999106 0 
-1.8999998778 0.89999999106 0 -1.6999998748 0.89999999106 0 -1.4999998719 0.89999999106 0 
-1.2999998689 0.89999999106 0 -1.0999998659 0.89999999106 0 -0.89999986291 0.89999999106 0 
-0.69999985993 0.89999999106 0 -0.49999985695 0.89999999106 0 -0.29999985397 0.89999999106 0 
-0.099999850988 0.89999999106 0 0.10000015199 0.89999999106 0 0.30000015497 0.89999999106 0 
0.50000015795 0.89999999106 0 0.70000016093 0.89999999106 0 0.90000016391 0.89999999106 0 
1.1000001669 0.89999999106 0 1.3000001699 0.89999999106 0 1.5000001729 0.89999999106 0 
1.7000001758 0.89999999106 0 1.9000001788 0.89999999106 0 2.1000001818 0.89999999106 0 
2.3000001848 0.89999999106 0 2.5000001878 0.89999999106 0 2.7000001907 0.89999999106 0 
2.9000001937 0.89999999106 0 3.1000001967 0.89999999106 0 3.3000001997 0.89999999106 0 
3.5000002027 0.89999999106 0 3.7000002056 0.89999999106 0 3.9000002086 0.89999999106 0 
4.1000002116 0.89999999106 0 4.3000002146 0.89999999106 0 4.5000002176 0.89999999106 0 
4.7000002205 0.89999999106 0 4.9000002235 0.89999999106 0 5.08 0.89999999106 0 
-9.899999997 0.69999998808 0 -10.1 0.69999998808 0 -9.699999994 0.69999998808 0 
-9.4999999911 0.69999998808 0 -9.2999999881 0.69999998808 0 -9.0999999851 0.69999998808 0 
-8.8999999821 0.69999998808 0 -8.6999999791 0.69999998808 0 -8.4999999762 0.69999998808 0 
-8.2999999732 0.69999998808 0 -8.0999999702 0.69999998808 0 -7.8999999672 0.69999998808 0 
-7.6999999642 0.69999998808 0 -7.4999999613 0.69999998808 0 -7.2999999583 0.69999998808 0 
-7.0999999553 0.69999998808 0 -6.8999999523 0.69999998808 0 -6.6999999493 0.69999998808 0 
-6.4999999464 0.69999998808 0 -6.2999999434 0.69999998808 0 -6.0999999404 0.69999998808 0 
-5.8999999374 0.69999998808 0 -5.6999999344 0.69999998808 0 -5.4999999315 0.69999998808 0 
-5.2999999285 0.69999998808 0 -5.0999999255 0.69999998808 0 -4.8999999225 0.69999998808 0 
-4.6999999195 0.69999998808 0 -4.4999999166 0.69999998808 0 -4.2999999136 0.69999998808 0 
-4.0999999106 0.69999998808 0 -3.8999999076 0.69999998808 0 -3.6999999046 0.69999998808 0 
-3.4999999017 0.69999998808 0 -3.2999998987 0.69999998808 0 -3.0999998957 0.69999998808 0 
-2.8999998927 0.69999998808 0 -2.6999998897 0.69999998808 0 -2.4999998868 0.69999998808 0 
-2.2999998838 0.69999998808 0 -2.0999998808 0.69999998808 0 -1.8999998778 0.69999998808 0 
-1.6999998748 0.69999998808 0 -1.4999998719 0.69999998808 0 -1.2999998689 0.69999998808 0 
-1.0999998659 0.69999998808 0 -0.89999986291 0.69999998808 0 -0.69999985993 0.69999998808 0 
-0.49999985695 0.69999998808 0 -0.29999985397 0.69999998808 0 -0.099999850988 0.69999998808 0 
0.10000015199 0.69999998808 0 0.30000015497 0.69999998808 0 0.50000015795 0.69999998808 0 
0.70000016093 0.69999998808 0 0.90000016391 0.69999998808 0 1.1000001669 0.69999998808 0 
[...]
CELL_DATA 532
FIELD FieldData 4
Water_Depth_m 1 532 float
0.260032 0.260093 0.260154 0.260216 0.260277 0.260338 0.2604 0.260461 0.260522 
0.260583 0.260644 0.260705 0.260766 0.260827 0.260888 0.260948 0.261009 0.26107 
0.261131 0.261191 0.261252 0.261312 0.261373 0.261433 0.261493 0.261554 0.261614 
0.261674 0.261734 0.261794 0.261854 0.261914 0.261974 0.262034 0.262094 0.262154 
0.262214 0.262273 0.262333 0.262393 0.262452 0.262512 0.262571 0.262631 0.26269 
0.26275 0.262809 0.262877 0.26309 0.266425 0.368944 0.440242 0.440253 0.440263 
0.440274 0.440284 0.440294 0.440305 0.440315 0.440325 0.440335 0.440346 0.440356 
0.440366 0.440376 0.440386 0.440397 0.440407 0.440417 0.440427 0.440437 0.440447 
0.440457 0.440458 0.44046 0.433859 0.260032 0.260093 0.260154 0.260216 0.260277 
0.260338 0.2604 0.260461 0.260522 0.260583 0.260644 0.260705 0.260766 0.260827 
0.260888 0.260948 0.261009 0.26107 0.261131 0.261191 0.261252 0.261312 0.261373 
0.261433 0.261493 0.261554 0.261614 0.261674 0.261734 0.261794 0.261854 0.261914 
0.261974 0.262034 0.262094 0.262154 0.262214 0.262273 0.262333 0.262393 0.262452 
0.262512 0.262571 0.262631 0.26269 0.26275 0.262809 0.262877 0.26309 0.266425 
0.368944 0.440242 0.440253 0.440263 0.440274 0.440284 0.440294 0.440305 0.440315 
0.440325 0.440335 0.440346 0.440356 0.440366 0.440376 0.440386 0.440397 0.440407 
0.440417 0.440427 0.440437 0.440447 0.440457 0.440458 0.44046 0.433859 0.260032 
0.260093 0.260154 0.260216 0.260277 0.260338 0.2604 0.260461 0.260522 0.260583 
0.260644 0.260705 0.260766 0.260827 0.260888 0.260948 0.261009 0.26107 0.261131 
0.261191 0.261252 0.261312 0.261373 0.261433 0.261493 0.261554 0.261614 0.261674 
0.261734 0.261794 0.261854 0.261914 0.261974 0.262034 0.262094 0.262154 0.262214 
0.262273 0.262333 0.262393 0.262452 0.262512 0.262571 0.262631 0.26269 0.26275 
0.262809 0.262877 0.26309 0.266425 0.368944 0.440242 0.440253 0.440263 0.440274 
0.440284 0.440294 0.440305 0.440315 0.440325 0.440335 0.440346 0.440356 0.440366 
0.440376 0.440387 0.440397 0.440407 0.440417 0.440427 0.440437 0.440447 0.440457 
0.440458 0.440459 0.433859 0.260032 0.260093 0.260154 0.260216 0.260277 0.260338 
0.2604 0.260461 0.260522 0.260583 0.260644 0.260705 0.260766 0.260827 0.260888 
0.260948 0.261009 0.26107 0.261131 0.261191 0.261252 0.261312 0.261373 0.261433 
0.261493 0.261554 0.261614 0.261674 0.261734 0.261794 0.261854 0.261914 0.261974 
0.262034 0.262094 0.262154 0.262214 0.262273 0.262333 0.262393 0.262452 0.262512 
0.262571 0.262631 0.26269 0.26275 0.262809 0.262877 0.26309 0.266425 0.368944 
0.440242 0.440253 0.440263 0.440274 0.440284 0.440294 0.440305 0.440315 0.440325 
0.440335 0.440346 0.440356 0.440366 0.440376 0.440387 0.440397 0.440407 0.440417 
0.440427 0.440437 0.440448 0.440457 0.440458 0.440459 0.433859 0.260032 0.260093 
0.260154 0.260216 0.260277 0.260338 0.2604 0.260461 0.260522 0.260583 0.260644 
0.260705 0.260766 0.260827 0.260888 0.260948 0.261009 0.26107 0.261131 0.261191 
0.261252 0.261312 0.261373 0.261433 0.261493 0.261554 0.261614 0.261674 0.261734 
0.261794 0.261854 0.261914 0.261974 0.262034 0.262094 0.262154 0.262214 0.262273 
0.262333 0.262393 0.262452 0.262512 0.262571 0.262631 0.26269 0.262749 0.262809 
0.262877 0.26309 0.266425 0.368944 0.440243 0.440253 0.440264 0.440274 0.440284 
0.440295 0.440305 0.440315 0.440325 0.440335 0.440346 0.440356 0.440366 0.440376 
0.440387 0.440397 0.440407 0.440417 0.440427 0.440438 0.440448 0.440458 0.440459 
0.440459 0.433859 0.260032 0.260093 0.260154 0.260216 0.260277 0.260338 0.2604 
0.260461 0.260522 0.260583 0.260644 0.260705 0.260766 0.260827 0.260888 0.260948 
0.261009 0.26107 0.261131 0.261191 0.261252 0.261312 0.261373 0.261433 0.261493 
0.261554 0.261614 0.261674 0.261734 0.261794 0.261854 0.261914 0.261974 0.262034 
0.262094 0.262154 0.262214 0.262273 0.262333 0.262393 0.262452 0.262512 0.262571 
0.262631 0.26269 0.262749 0.262809 0.262877 0.26309 0.266425 0.368945 0.440244 
0.440254 0.440264 0.440274 0.440285 0.440295 0.440305 0.440315 0.440325 0.440335 
0.440346 0.440356 0.440366 0.440376 0.440387 0.440397 0.440407 0.440417 0.440428 
0.440438 0.440448 0.440458 0.440459 0.440459 0.433859 0.260032 0.260093 0.260154 
0.260216 0.260277 0.260338 0.2604 0.260461 0.260522 0.260583 0.260644 0.260705 
0.260766 0.260827 0.260888 0.260948 0.261009 0.26107 0.261131 0.261191 0.261252 
0.261312 0.261373 0.261433 0.261493 0.261554 0.261614 0.261674 0.261734 0.261794 
0.261854 0.261914 0.261974 0.262034 0.262094 0.262154 0.262214 0.262273 0.262333 
0.262393 0.262452 0.262512 0.262571 0.262631 0.26269 0.262749 0.262809 0.262877 
0.26309 0.266425 0.368946 0.440247 0.440256 0.440265 0.440275 0.440285 0.440295 
0.440305 0.440315 0.440325 0.440335 0.440346 0.440356 0.440366 0.440376 0.440387 
0.440397 0.440407 0.440417 0.440428 0.440438 0.440449 0.44046 0.440459 0.440458 
0.433858 
Water_Elev_m 1 532 float
0.260032 0.260093 0.260154 0.260216 0.260277 0.260338 0.2604 0.260461 0.260522 
0.260583 0.260644 0.260705 0.260766 0.260827 0.260888 0.260948 0.261009 0.26107 
0.261131 0.261191 0.261252 0.261312 0.261373 0.261433 0.261493 0.261554 0.261614 
0.261674 0.261734 0.261794 0.261854 0.261914 0.261974 0.262034 0.262094 0.262154 
0.262214 0.262273 0.262333 0.262393 0.262452 0.262512 0.262571 0.262631 0.26269 
0.26275 0.262809 0.262877 0.26309 0.266425 0.368944 0.440242 0.440253 0.440263 
0.440274 0.440284 0.440294 0.440305 0.440315 0.440325 0.440335 0.440346 0.440356 
0.440366 0.440376 0.440386 0.440397 0.440407 0.440417 0.440427 0.440437 0.440447 
0.440457 0.440458 0.44046 0.433859 0.260032 0.260093 0.260154 0.260216 0.260277 
0.260338 0.2604 0.260461 0.260522 0.260583 0.260644 0.260705 0.260766 0.260827 
0.260888 0.260948 0.261009 0.26107 0.261131 0.261191 0.261252 0.261312 0.261373 
0.261433 0.261493 0.261554 0.261614 0.261674 0.261734 0.261794 0.261854 0.261914 
0.261974 0.262034 0.262094 0.262154 0.262214 0.262273 0.262333 0.262393 0.262452 
0.262512 0.262571 0.262631 0.26269 0.26275 0.262809 0.262877 0.26309 0.266425 
0.368944 0.440242 0.440253 0.440263 0.440274 0.440284 0.440294 0.440305 0.440315 
0.440325 0.440335 0.440346 0.440356 0.440366 0.440376 0.440386 0.440397 0.440407 
0.440417 0.440427 0.440437 0.440447 0.440457 0.440458 0.44046 0.433859 0.260032 
0.260093 0.260154 0.260216 0.260277 0.260338 0.2604 0.260461 0.260522 0.260583 
0.260644 0.260705 0.260766 0.260827 0.260888 0.260948 0.261009 0.26107 0.261131 
0.261191 0.261252 0.261312 0.261373 0.261433 0.261493 0.261554 0.261614 0.261674 
0.261734 0.261794 0.261854 0.261914 0.261974 0.262034 0.262094 0.262154 0.262214 
0.262273 0.262333 0.262393 0.262452 0.262512 0.262571 0.262631 0.26269 0.26275 
0.262809 0.262877 0.26309 0.266425 0.368944 0.440242 0.440253 0.440263 0.440274 
0.440284 0.440294 0.440305 0.440315 0.440325 0.440335 0.440346 0.440356 0.440366 
0.440376 0.440387 0.440397 0.440407 0.440417 0.440427 0.440437 0.440447 0.440457 
0.440458 0.440459 0.433859 0.260032 0.260093 0.260154 0.260216 0.260277 0.260338 
0.2604 0.260461 0.260522 0.260583 0.260644 0.260705 0.260766 0.260827 0.260888 
0.260948 0.261009 0.26107 0.261131 0.261191 0.261252 0.261312 0.261373 0.261433 
0.261493 0.261554 0.261614 0.261674 0.261734 0.261794 0.261854 0.261914 0.261974 
0.262034 0.262094 0.262154 0.262214 0.262273 0.262333 0.262393 0.262452 0.262512 
0.262571 0.262631 0.26269 0.26275 0.262809 0.262877 0.26309 0.266425 0.368944 
0.440242 0.440253 0.440263 0.440274 0.440284 0.440294 0.440305 0.440315 0.440325 
0.440335 0.440346 0.440356 0.440366 0.440376 0.440387 0.440397 0.440407 0.440417 
0.440427 0.440437 0.440448 0.440457 0.440458 0.440459 0.433859 0.260032 0.260093 
0.260154 0.260216 0.260277 0.260338 0.2604 0.260461 0.260522 0.260583 0.260644 
0.260705 0.260766 0.260827 0.260888 0.260948 0.261009 0.26107 0.261131 0.261191 
0.261252 0.261312 0.261373 0.261433 0.261493 0.261554 0.261614 0.261674 0.261734 
0.261794 0.261854 0.261914 0.261974 0.262034 0.262094 0.262154 0.262214 0.262273 
0.262333 0.262393 0.262452 0.262512 0.262571 0.262631 0.26269 0.262749 0.262809 
0.262877 0.26309 0.266425 0.368944 0.440243 0.440253 0.440264 0.440274 0.440284 
0.440295 0.440305 0.440315 0.440325 0.440335 0.440346 0.440356 0.440366 0.440376 
0.440387 0.440397 0.440407 0.440417 0.440427 0.440438 0.440448 0.440458 0.440459 
0.440459 0.433859 0.260032 0.260093 0.260154 0.260216 0.260277 0.260338 0.2604 
0.260461 0.260522 0.260583 0.260644 0.260705 0.260766 0.260827 0.260888 0.260948 
0.261009 0.26107 0.261131 0.261191 0.261252 0.261312 0.261373 0.261433 0.261493 
0.261554 0.261614 0.261674 0.261734 0.261794 0.261854 0.261914 0.261974 0.262034 
0.262094 0.262154 0.262214 0.262273 0.262333 0.262393 0.262452 0.262512 0.262571 
0.262631 0.26269 0.262749 0.262809 0.262877 0.26309 0.266425 0.368945 0.440244 
0.440254 0.440264 0.440274 0.440285 0.440295 0.440305 0.440315 0.440325 0.440335 
0.440346 0.440356 0.440366 0.440376 0.440387 0.440397 0.440407 0.440417 0.440428 
0.440438 0.440448 0.440458 0.440459 0.440459 0.433859 0.260032 0.260093 0.260154 
0.260216 0.260277 0.260338 0.2604 0.260461 0.260522 0.260583 0.260644 0.260705 
0.260766 0.260827 0.260888 0.260948 0.261009 0.26107 0.261131 0.261191 0.261252 
0.261312 0.261373 0.261433 0.261493 0.261554 0.261614 0.261674 0.261734 0.261794 
0.261854 0.261914 0.261974 0.262034 0.262094 0.262154 0.262214 0.262273 0.262333 
0.262393 0.262452 0.262512 0.262571 0.262631 0.26269 0.262749 0.262809 0.262877 
0.26309 0.266425 0.368946 0.440247 0.440256 0.440265 0.440275 0.440285 0.440295 
0.440305 0.440315 0.440325 0.440335 0.440346 0.440356 0.440366 0.440376 0.440387 
0.440397 0.440407 0.440417 0.440428 0.440438 0.440449 0.44046 0.440459 0.440458 
0.433858 
Velocity_cell_m_p_s 3 532 double
-0.34866535664 -4.5879442467e-08 -0 -0.34856194258 -4.6181874325e-08 -0 -0.34847974777 -4.6816023058e-08 -0 
-0.34839770198 -4.7573333717e-08 -0 -0.34831574559 -4.8328086422e-08 -0 -0.34823390841 -4.9030003169e-08 -0 
-0.34815216064 -4.9671204039e-08 -0 -0.34807053208 -5.0261281359e-08 -0 -0.34798902273 -5.0814026764e-08 -0 
-0.34790757298 -5.1341920937e-08 -0 -0.34782627225 -5.1854627259e-08 -0 -0.34774506092 -5.2359080627e-08 -0 
-0.3476639688 -5.2860016808e-08 -0 -0.34758296609 -5.3360487584e-08 -0 -0.34750205278 -5.3862166283e-08 -0 
-0.34742128849 -5.4365049351e-08 -0 -0.3473405838 -5.4867786758e-08 -0 -0.34725999832 -5.5365656948e-08 -0 
-0.34717953205 -5.5860592596e-08 -0 -0.34709912539 -5.6346980415e-08 -0 -0.34701886773 -5.6871982679e-08 -0 
-0.34693869948 -5.7403795495e-08 -0 -0.34685862064 -5.7933331021e-08 -0 -0.34677866101 -5.8457764851e-08 -0 
-0.34669879079 -5.897404165e-08 -0 -0.34661903977 -5.9476178649e-08 -0 -0.34653937817 -5.9953229936e-08 -0 
-0.34645980597 -6.0386341261e-08 -0 -0.34638038278 -6.074370873e-08 -0 -0.34630101919 -6.097241112e-08 -0 
-0.34622174501 -6.0984262973e-08 -0 -0.34614261985 -6.0636658361e-08 -0 -0.34606355429 -5.9693135768e-08 -0 
-0.34598457813 -5.782457535e-08 -0 -0.34590572119 -5.4483464851e-08 -0 -0.34582692385 -4.9264041735e-08 -0 
-0.34574824572 -4.0968419768e-08 -0 -0.34566959739 -2.8172497224e-08 -0 -0.34559103847 -8.6624494244e-09 -0 
-0.34551253915 1.8614962016e-08 -0 -0.34543403983 6.5048915587e-08 -0 -0.34535557032 1.0648361837e-07 -0 
-0.34527698159 2.5371372203e-07 -0 -0.34519812465 4.2110625031e-07 -0 -0.34511902928 5.8641347778e-07 -0 
-0.34503936768 8.0847297568e-07 -0 -0.3449536562 1.0590046031e-06 -0 -0.3447676003 1.3305410675e-06 -0 
-0.34246850014 1.4532781734e-06 -0 -0.29302740097 1.7226304863e-06 -0 -0.2258451432 3.6337593201e-07 -0 
-0.20593686402 6.0402094277e-06 -0 -0.2059199661 5.9943567976e-06 -0 -0.20590379834 5.3046078392e-06 -0 
-0.20588928461 4.3557211029e-06 -0 -0.20587667823 3.4028723803e-06 -0 -0.20586588979 2.5720246413e-06 -0 
-0.20585660636 1.9027743292e-06 -0 -0.20584850013 1.388646524e-06 -0 -0.20584133267 1.0036487765e-06 -0 
-0.20583480597 7.1664419465e-07 -0 -0.2058288157 4.9766441634e-07 -0 -0.20582321286 3.1960450997e-07 -0 
-0.20581796765 1.5748034343e-07 -0 -0.20581303537 -1.3485036199e-08 -0 -0.20580852032 -2.2809683742e-07 -0 
-0.205804497 -5.0658945838e-07 -0 -0.20580115914 -8.9582573537e-07 -0 -0.20579876006 -1.4426689177e-06 -0 
-0.20579767227 -2.1928008209e-06 -0 -0.20579834282 -3.1682479857e-06 -0 -0.20580117404 -4.3235518206e-06 -0 
-0.20580840111 -5.4885008467e-06 -0 -0.20581962168 -6.3481720645e-06 -0 -0.20583218336 -6.5897838795e-06 -0 
-0.35502916574 -3.8241278162e-06 -0 -0.34866553545 -1.3818905131e-07 -0 -0.34856212139 -1.3925595965e-07 -0 
-0.34847995639 -1.4135692084e-07 -0 -0.34839791059 -1.4375450519e-07 -0 -0.34831595421 -1.4607574883e-07 -0 
-0.34823411703 -1.4819914895e-07 -0 -0.34815236926 -1.5012405186e-07 -0 -0.3480707705 -1.5189156954e-07 -0 
-0.34798923135 -1.5354824257e-07 -0 -0.3479078114 -1.5513300866e-07 -0 -0.34782648087 -1.5667482955e-07 -0 
-0.34774526954 -1.5819401256e-07 -0 -0.34766417742 -1.5970429956e-07 -0 -0.34758317471 -1.612146292e-07 -0 
-0.3475022912 -1.6273016001e-07 -0 -0.34742149711 -1.6425120464e-07 -0 -0.34734082222 -1.6577364192e-07 -0 
-0.34726023674 -1.6727922514e-07 -0 -0.34717977047 -1.6877180542e-07 -0 -0.34709939361 -1.7020789755e-07 -0 
-0.34701910615 -1.7181912426e-07 -0 -0.3469389677 -1.7343452896e-07 -0 -0.34685888886 -1.7503734284e-07 -0 
-0.34677889943 -1.7662516427e-07 -0 -0.34669908881 -1.781913852e-07 -0 -0.34661927819 -1.7972010369e-07 -0 
-0.34653964639 -1.8118139167e-07 -0 -0.34646010399 -1.8252353584e-07 -0 -0.346380651 -1.8365928156e-07 -0 
-0.34630128741 -1.8444315231e-07 -0 -0.34622204304 -1.8463174456e-07 -0 -0.34614285827 -1.8382694122e-07 -0 
-0.34606382251 -1.813496624e-07 -0 -0.34598487616 -1.7623287363e-07 -0 -0.34590598941 -1.6669244474e-07 -0 
-0.34582722187 -1.5217244709e-07 -0 -0.34574854374 -1.2875416644e-07 -0 -0.34566992521 -9.2113360495e-08 -0 
-0.34559139609 -3.6555086069e-08 -0 -0.34551292658 4.1626421421e-08 -0 -0.34543445706 1.7626088322e-07 -0 
-0.34535598755 2.9572416338e-07 -0 -0.34527742863 7.5522984844e-07 -0 -0.34519869089 1.1863209011e-06 -0 
-0.34511974454 1.7040241573e-06 -0 -0.34504017234 2.3902648536e-06 -0 -0.34495449066 3.1777829008e-06 -0 
-0.34476834536 4.0528007048e-06 -0 -0.34246906638 4.4584230636e-06 -0 -0.29302763939 5.3918615777e-06 -0 
-0.2258450985 1.1619447378e-06 -0 -0.20593591034 1.8990162062e-05 -0 -0.2059174329 1.8683202143e-05 -0 
-0.20590020716 1.625180812e-05 -0 -0.2058852911 1.3128644241e-05 -0 -0.20587271452 1.0119701983e-05 -0 
-0.2058621645 7.5703824223e-06 -0 -0.2058531642 5.5594477999e-06 -0 -0.20584535599 4.0385716602e-06 -0 
-0.20583839715 2.9131322208e-06 -0 -0.20583206415 2.0818324629e-06 -0 -0.20582616329 1.452133688e-06 -0 
-0.20582063496 9.4293397979e-07 -0 -0.20581538975 4.8099252581e-07 -0 -0.20581042767 -5.4293680662e-09 -0 
-0.2058057934 -6.1671039475e-07 -0 -0.20580159128 -1.4140075564e-06 -0 -0.2057979852 -2.5361489406e-06 -0 
-0.20579522848 -4.1293596951e-06 -0 -0.20579370856 -6.3490215325e-06 -0 -0.20579394698 -9.3000644483e-06 -0 
-0.20579650998 -1.2903203242e-05 -0 -0.20580390096 -1.6683845388e-05 -0 -0.2058159411 -1.9615697965e-05 -0 
-0.20582976937 -2.0415624022e-05 -0 -0.35502827168 -1.2507119209e-05 -0 -0.34866601229 -2.3198532517e-07 -0 
-0.34856259823 -2.3459278964e-07 -0 -0.34848040342 -2.3886150302e-07 -0 -0.34839835763 -2.432764461e-07 -0 
-0.34831643105 -2.4731045301e-07 -0 -0.34823459387 -2.5088894517e-07 -0 -0.3481528461 -2.5409150339e-07 -0 
-0.34807124734 -2.5702499329e-07 -0 -0.34798970819 -2.5978104645e-07 -0 -0.34790828824 -2.6242761919e-07 -0 
-0.3478269875 -2.6501177786e-07 -0 -0.34774577618 -2.6756521265e-07 -0 -0.34766468406 -2.7010912618e-07 -0 
-0.34758368134 -2.726576156e-07 -0 -0.34750279784 -2.7521980428e-07 -0 -0.34742200375 -2.7779830702e-07 -0 
-0.34734132886 -2.8038749633e-07 -0 -0.34726074338 -2.829471839e-07 -0 -0.34718030691 -2.8546924113e-07 -0 
-0.34709993005 -2.8772609539e-07 -0 -0.34701967239 -2.9059057738e-07 -0 -0.34693950415 -2.9334478313e-07 -0 
-0.34685942531 -2.960599943e-07 -0 -0.34677949548 -2.9875400287e-07 -0 -0.34669962525 -3.0142223295e-07 -0 
-0.34661987424 -3.040434251e-07 -0 -0.34654021263 -3.0657648153e-07 -0 -0.34646064043 -3.0895009218e-07 -0 
-0.34638121724 -3.110440332e-07 -0 -0.34630185366 -3.1265756206e-07 -0 -0.34622260928 -3.1345444995e-07 -0 
-0.34614348412 -3.1287478919e-07 -0 -0.34606441855 -3.099509911e-07 -0 -0.345985502 -3.0306497933e-07 -0 
-0.34590664506 -2.8828594623e-07 -0 -0.34582787752 -2.6815985166e-07 -0 -0.34574919939 -2.3393074855e-07 -0 
-0.34567061067 -1.7801566798e-07 -0 -0.34559214115 -9.5606367267e-08 -0 -0.34551370144 2.2936369248e-08 -0 
-0.34543532133 2.2864618643e-07 -0 -0.34535697103 4.108105145e-07 -0 -0.34527856112 1.153452672e-06 -0 
-0.34520000219 1.7814340936e-06 -0 -0.34512126446 2.6585248634e-06 -0 -0.34504187107 3.8498392314e-06 -0 
-0.3449563086 5.2810078159e-06 -0 -0.34477001429 6.9587467806e-06 -0 -0.34247031808 7.8304219642e-06 -0 
-0.29302811623 9.7311831269e-06 -0 -0.22584494948 2.2491256004e-06 -0 -0.20593243837 3.5948032746e-05 -0 
-0.20590904355 3.3838197851e-05 -0 -0.20588940382 2.8192431273e-05 -0 -0.20587381721 2.1977564757e-05 -0 
-0.20586149395 1.6478286852e-05 -0 -0.20585155487 1.207790956e-05 -0 -0.20584325492 8.746437743e-06 -0 
-0.20583602786 6.3022621362e-06 -0 -0.20582951605 4.5346514526e-06 -0 -0.20582348108 3.2519251363e-06 -0 
-0.20581780374 2.2936551431e-06 -0 -0.20581234992 1.5269297364e-06 -0 -0.20580711961 8.3611701029e-07 -0 
-0.20580205321 1.1066843086e-07 -0 -0.20579721034 -8.0136788938e-07 -0 -0.20579265058 -2.0042741653e-06 -0 
-0.20578853786 -3.718892458e-06 -0 -0.20578503609 -6.2018575591e-06 -0 -0.2057825923 -9.7650581665e-06 -0 
-0.20578178763 -1.4710789401e-05 -0 -0.20578356087 -2.1125810235e-05 -0 -0.20579099655 -2.8424397897e-05 -0 
-0.20580472052 -3.4742181015e-05 -0 -0.20582213998 -3.7149537093e-05 -0 -0.35502561927 -2.529784615e-05 -0 
-0.34866651893 -3.2629048974e-07 -0 -0.34856310487 -3.3307031799e-07 -0 -0.34848093987 -3.4095262436e-07 -0 
-0.34839886427 -3.479307793e-07 -0 -0.34831693769 -3.537998623e-07 -0 -0.34823510051 -3.5880850646e-07 -0 
-0.34815338254 -3.6323615404e-07 -0 -0.34807178378 -3.672965363e-07 -0 -0.34799024463 -3.7113491658e-07 -0 
-0.34790885448 -3.7484576865e-07 -0 -0.34782752395 -3.7848948864e-07 -0 -0.34774634242 -3.8210461639e-07 -0 
-0.3476652801 -3.8571650407e-07 -0 -0.34758427739 -3.8934271629e-07 -0 -0.34750339389 -3.9299709442e-07 -0 
-0.34742256999 -3.9669077978e-07 -0 -0.34734192491 -4.0042627347e-07 -0 -0.34726136923 -4.0414326463e-07 -0 
-0.34718087316 -4.0772775378e-07 -0 -0.34710049629 -4.1106602566e-07 -0 -0.34702026844 -4.1505646209e-07 -0 
-0.34694013 -4.1894824676e-07 -0 -0.34686005116 -4.2281396873e-07 -0 -0.34678012133 -4.2666954414e-07 -0 
-0.3467002511 -4.3050775389e-07 -0 -0.34662052989 -4.3430449637e-07 -0 -0.34654086828 -4.3801460947e-07 -0 
-0.34646129608 -4.4156050194e-07 -0 -0.34638187289 -4.4481208761e-07 -0 -0.34630256891 -4.4755185513e-07 -0 
-0.34622332454 -4.4941651822e-07 -0 -0.34614416957 -4.4979537961e-07 -0 -0.34606510401 -4.4764090035e-07 -0 
-0.34598618746 -4.4106442942e-07 -0 -0.34590733051 -4.2603105044e-07 -0 -0.34582859278 -4.0462873585e-07 -0 
-0.34574997425 -3.6622154198e-07 -0 -0.34567141533 -2.9547882718e-07 -0 -0.34559297562 -2.031866444e-07 -0 
-0.34551459551 -5.9103278716e-08 -0 -0.34543633461 1.8596031737e-07 -0 -0.34535810351 4.0445019067e-07 -0 
-0.34527990222 1.3172229956e-06 -0 -0.34520167112 2.1207415557e-06 -0 -0.34512332082 3.3102292036e-06 -0 
-0.34504431486 5.033852176e-06 -0 -0.34495905042 7.2762377386e-06 -0 -0.34477263689 1.0152901268e-05 -0 
-0.34247219563 1.1968129911e-05 -0 -0.29302883148 1.5084461666e-05 -0 -0.22584472597 3.9836668293e-06 -0 
-0.20592479408 6.3095911173e-05 -0 -0.20589147508 5.3581385146e-05 -0 -0.20586845279 4.134612027e-05 -0 
-0.20585271716 3.0438754038e-05 -0 -0.20584151149 2.1886095055e-05 -0 -0.20583292842 1.5577976228e-05 -0 