# vtk DataFile Version 5.1
vtk output
ASCII
DATASET UNSTRUCTURED_GRID
POINTS 10043 double
-10.1 1.4499999993 0 -10.049999999 1.4499999993 0 -10.049999999 1.5 0 
-9.9999999985 1.4499999993 0 -9.9999999985 1.5 0 -9.9499999978 1.4499999993 0 
-9.9499999978 1.5 0 -9.899999997 1.4499999993 0 -9.899999997 1.5 0 
-9.8499999963 1.4499999993 0 -9.8499999963 1.5 0 -9.7999999955 1.4499999993 0 
-9.7999999955 1.5 0 -9.7499999948 1.4499999993 0 -9.7499999948 1.5 0 
-9.699999994 1.4499999993 0 -9.699999994 1.5 0 -9.6499999933 1.4499999993 0 
-9.6499999933 1.5 0 -9.5999999925 1.4499999993 0 -9.5999999925 1.5 0 
-9.5499999918 1.4499999993 0 -9.5499999918 1.5 0 -9.4999999911 1.4499999993 0 
-9.4999999911 1.5 0 -9.4499999903 1.4499999993 0 -9.4499999903 1.5 0 
-9.3999999896 1.4499999993 0 -9.3999999896 1.5 0 -9.3499999888 1.4499999993 0 
-9.3499999888 1.5 0 -9.2999999881 1.4499999993 0 -9.2999999881 1.5 0 
-9.2499999873 1.4499999993 0 -9.2499999873 1.5 0 -9.1999999866 1.4499999993 0 
-9.1999999866 1.5 0 -9.1499999858 1.4499999993 0 -9.1499999858 1.5 0 
-9.0999999851 1.4499999993 0 -9.0999999851 1.5 0 -9.0499999844 1.4499999993 0 
-9.0499999844 1.5 0 -8.9999999836 1.4499999993 0 -8.9999999836 1.5 0 
-8.9499999829 1.4499999993 0 -8.9499999829 1.5 0 -8.8999999821 1.4499999993 0 
-8.8999999821 1.5 0 -8.8499999814 1.4499999993 0 -8.8499999814 1.5 0 
-8.7999999806 1.4499999993 0 -8.7999999806 1.5 0 -8.7499999799 1.4499999993 0 
-8.7499999799 1.5 0 -8.6999999791 1.4499999993 0 -8.6999999791 1.5 0 
-8.6499999784 1.4499999993 0 -8.6499999784 1.5 0 -8.5999999776 1.4499999993 0 
-8.5999999776 1.5 0 -8.5499999769 1.4499999993 0 -8.5499999769 1.5 0 
-8.4999999762 1.4499999993 0 -8.4999999762 1.5 0 -8.4499999754 1.4499999993 0 
-8.4499999754 1.5 0 -8.3999999747 1.4499999993 0 -8.3999999747 1.5 0 
-8.3499999739 1.4499999993 0 -8.3499999739 1.5 0 -8.2999999732 1.4499999993 0 
-8.2999999732 1.5 0 -8.2499999724 1.4499999993 0 -8.2499999724 1.5 0 
-8.1999999717 1.4499999993 0 -8.1999999717 1.5 0 -8.1499999709 1.4499999993 0 
-8.1499999709 1.5 0 -8.0999999702 1.4499999993 0 -8.0999999702 1.5 0 
-8.0499999695 1.4499999993 0 -8.0499999695 1.5 0 -7.9999999687 1.4499999993 0 
-7.9999999687 1.5 0 -7.949999968 1.4499999993 0 -7.949999968 1.5 0 
-7.8999999672 1.4499999993 0 -7.8999999672 1.5 0 -7.8499999665 1.4499999993 0 
-7.8499999665 1.5 0 -7.7999999657 1.4499999993 0 -7.7999999657 1.5 0 
-7.749999965 1.4499999993 0 -7.749999965 1.5 0 -7.6999999642 1.4499999993 0 
-7.6999999642 1.5 0 -7.6499999635 1.4499999993 0 -7.6499999635 1.5 0 
-7.5999999627 1.4499999993 0 -7.5999999627 1.5 0 -7.549999962 1.4499999993 0 
-7.549999962 1.5 0 -7.4999999613 1.4499999993 0 -7.4999999613 1.5 0 
-7.4499999605 1.4499999993 0 -7.4499999605 1.5 0 -7.3999999598 1.4499999993 0 
-7.3999999598 1.5 0 -7.349999959 1.4499999993 0 -7.349999959 1.5 0 
-7.2999999583 1.4499999993 0 -7.2999999583 1.5 0 -7.2499999575 1.4499999993 0 
-7.2499999575 1.5 0 -7.1999999568 1.4499999993 0 -7.1999999568 1.5 0 
-7.149999956 1.4499999993 0 -7.149999956 1.5 0 -7.0999999553 1.4499999993 0 
-7.0999999553 1.5 0 -7.0499999546 1.4499999993 0 -7.0499999546 1.5 0 
-6.9999999538 1.4499999993 0 -6.9999999538 1.5 0 -6.9499999531 1.4499999993 0 
-6.9499999531 1.5 0 -6.8999999523 1.4499999993 0 -6.8999999523 1.5 0 
-6.8499999516 1.4499999993 0 -6.8499999516 1.5 0 -6.7999999508 1.4499999993 0 
-6.7999999508 1.5 0 -6.7499999501 1.4499999993 0 -6.7499999501 1.5 0 
-6.6999999493 1.4499999993 0 -6.6999999493 1.5 0 -6.6499999486 1.4499999993 0 
-6.6499999486 1.5 0 -6.5999999478 1.4499999993 0 -6.5999999478 1.5 0 
-6.5499999471 1.4499999993 0 -6.5499999471 1.5 0 -6.4999999464 1.4499999993 0 
-6.4999999464 1.5 0 -6.4499999456 1.4499999993 0 -6.4499999456 1.5 0 
-6.3999999449 1.4499999993 0 -6.3999999449 1.5 0 -6.3499999441 1.4499999993 0 
-6.3499999441 1.5 0 -6.2999999434 1.4499999993 0 -6.2999999434 1.5 0 
-6.2499999426 1.4499999993 0 -6.2499999426 1.5 0 -6.1999999419 1.4499999993 0 
-6.1999999419 1.5 0 -6.1499999411 1.4499999993 0 -6.1499999411 1.5 0 
-6.0999999404 1.4499999993 0 -6.0999999404 1.5 0 -6.0499999397 1.4499999993 0 
-6.0499999397 1.5 0 -5.9999999389 1.4499999993 0 -5.9999999389 1.5 0 
-5.9499999382 1.4499999993 0 -5.9499999382 1.5 0 -5.8999999374 1.4499999993 0 
-5.8999999374 1.5 0 -5.8499999367 1.4499999993 0 -5.8499999367 1.5 0 
-5.7999999359 1.4499999993 0 -5.7999999359 1.5 0 -5.7499999352 1.4499999993 0 
-5.7499999352 1.5 0 -5.6999999344 1.4499999993 0 -5.6999999344 1.5 0 
-5.6499999337 1.4499999993 0 -5.6499999337 1.5 0 -5.5999999329 1.4499999993 0 
-5.5999999329 1.5 0 -5.5499999322 1.4499999993 0 -5.5499999322 1.5 0 
-5.4999999315 1.4499999993 0 -5.4999999315 1.5 0 -5.4499999307 1.4499999993 0 
-5.4499999307 1.5 0 -5.39999993 1.4499999993 0 -5.39999993 1.5 0 
-5.3499999292 1.4499999993 0 -5.3499999292 1.5 0 -5.2999999285 1.4499999993 0 
-5.2999999285 1.5 0 -5.2499999277 1.4499999993 0 -5.2499999277 1.5 0 
-5.199999927 1.4499999993 0 -5.199999927 1.5 0 -5.1499999262 1.4499999993 0 
-5.1499999262 1.5 0 -5.0999999255 1.4499999993 0 -5.0999999255 1.5 0 
-5.0499999247 1.4499999993 0 -5.0499999247 1.5 0 -4.999999924 1.4499999993 0 
-4.999999924 1.5 0 -4.9499999233 1.4499999993 0 -4.9499999233 1.5 0 
-4.8999999225 1.4499999993 0 -4.8999999225 1.5 0 -4.8499999218 1.4499999993 0 
-4.8499999218 1.5 0 -4.799999921 1.4499999993 0 -4.799999921 1.5 0 
-4.7499999203 1.4499999993 0 -4.7499999203 1.5 0 -4.6999999195 1.4499999993 0 
-4.6999999195 1.5 0 -4.6499999188 1.4499999993 0 -4.6499999188 1.5 0 
-4.599999918 1.4499999993 0 -4.599999918 1.5 0 -4.5499999173 1.4499999993 0 
-4.5499999173 1.5 0 -4.4999999166 1.4499999993 0 -4.4999999166 1.5 0 
-4.4499999158 1.4499999993 0 -4.4499999158 1.5 0 -4.3999999151 1.4499999993 0 
-4.3999999151 1.5 0 -4.3499999143 1.4499999993 0 -4.3499999143 1.5 0 
-4.2999999136 1.4499999993 0 -4.2999999136 1.5 0 -4.2499999128 1.4499999993 0 
-4.2499999128 1.5 0 -4.1999999121 1.4499999993 0 -4.1999999121 1.5 0 
-4.1499999113 1.4499999993 0 -4.1499999113 1.5 0 -4.0999999106 1.4499999993 0 
-4.0999999106 1.5 0 -4.0499999098 1.4499999993 0 -4.0499999098 1.5 0 
-3.9999999091 1.4499999993 0 -3.9999999091 1.5 0 -3.9499999084 1.4499999993 0 
-3.9499999084 1.5 0 -3.8999999076 1.4499999993 0 -3.8999999076 1.5 0 
-3.8499999069 1.4499999993 0 -3.8499999069 1.5 0 -3.7999999061 1.4499999993 0 
-3.7999999061 1.5 0 -3.7499999054 1.4499999993 0 -3.7499999054 1.5 0 
-3.6999999046 1.4499999993 0 -3.6999999046 1.5 0 -3.6499999039 1.4499999993 0 
-3.6499999039 1.5 0 -3.5999999031 1.4499999993 0 -3.5999999031 1.5 0 
-3.5499999024 1.4499999993 0 -3.5499999024 1.5 0 -3.4999999017 1.4499999993 0 
-3.4999999017 1.5 0 -3.4499999009 1.4499999993 0 -3.4499999009 1.5 0 
-3.3999999002 1.4499999993 0 -3.3999999002 1.5 0 -3.3499998994 1.4499999993 0 
-3.3499998994 1.5 0 -3.2999998987 1.4499999993 0 -3.2999998987 1.5 0 
-3.2499998979 1.4499999993 0 -3.2499998979 1.5 0 -3.1999998972 1.4499999993 0 
-3.1999998972 1.5 0 -3.1499998964 1.4499999993 0 -3.1499998964 1.5 0 
-3.0999998957 1.4499999993 0 -3.0999998957 1.5 0 -3.0499998949 1.4499999993 0 
-3.0499998949 1.5 0 -2.9999998942 1.4499999993 0 -2.9999998942 1.5 0 
-2.9499998935 1.4499999993 0 -2.9499998935 1.5 0 -2.8999998927 1.4499999993 0 
-2.8999998927 1.5 0 -2.849999892 1.4499999993 0 -2.849999892 1.5 0 
-2.7999998912 1.4499999993 0 -2.7999998912 1.5 0 -2.7499998905 1.4499999993 0 
-2.7499998905 1.5 0 -2.6999998897 1.4499999993 0 -2.6999998897 1.5 0 
-2.649999889 1.4499999993 0 -2.649999889 1.5 0 -2.5999998882 1.4499999993 0 
-2.5999998882 1.5 0 -2.5499998875 1.4499999993 0 -2.5499998875 1.5 0 
-2.4999998868 1.4499999993 0 -2.4999998868 1.5 0 -2.449999886 1.4499999993 0 
-2.449999886 1.5 0 -2.3999998853 1.4499999993 0 -2.3999998853 1.5 0 
-2.3499998845 1.4499999993 0 -2.3499998845 1.5 0 -2.2999998838 1.4499999993 0 
-2.2999998838 1.5 0 -2.249999883 1.4499999993 0 -2.249999883 1.5 0 
-2.1999998823 1.4499999993 0 -2.1999998823 1.5 0 -2.1499998815 1.4499999993 0 
-2.1499998815 1.5 0 -2.0999998808 1.4499999993 0 -2.0999998808 1.5 0 
-2.04999988 1.4499999993 0 -2.04999988 1.5 0 -1.9999998793 1.4499999993 0 
-1.9999998793 1.5 0 -1.9499998786 1.4499999993 0 -1.9499998786 1.5 0 
-1.8999998778 1.4499999993 0 -1.8999998778 1.5 0 -1.8499998771 1.4499999993 0 
-1.8499998771 1.5 0 -1.7999998763 1.4499999993 0 -1.7999998763 1.5 0 
-1.7499998756 1.4499999993 0 -1.7499998756 1.5 0 -1.6999998748 1.4499999993 0 
-1.6999998748 1.5 0 -1.6499998741 1.4499999993 0 -1.6499998741 1.5 0 
-1.5999998733 1.4499999993 0 -1.5999998733 1.5 0 -1.5499998726 1.4499999993 0 
-1.5499998726 1.5 0 -1.4999998718 1.4499999993 0 -1.4999998718 1.5 0 
-1.4499998711 1.4499999993 0 -1.4499998711 1.5 0 -1.3999998704 1.4499999993 0 
-1.3999998704 1.5 0 -1.3499998696 1.4499999993 0 -1.3499998696 1.5 0 
-1.2999998689 1.4499999993 0 -1.2999998689 1.5 0 -1.2499998681 1.4499999993 0 
-1.2499998681 1.5 0 -1.1999998674 1.4499999993 0 -1.1999998674 1.5 0 
-1.1499998666 1.4499999993 0 -1.1499998666 1.5 0 -1.0999998659 1.4499999993 0 
-1.0999998659 1.5 0 -1.0499998651 1.4499999993 0 -1.0499998651 1.5 0 
-0.9999998644 1.4499999993 0 -0.9999998644 1.5 0 -0.94999986365 1.4499999993 0 
-0.94999986365 1.5 0 -0.89999986291 1.4499999993 0 -0.89999986291 1.5 0 
-0.84999986216 1.4499999993 0 -0.84999986216 1.5 0 -0.79999986142 1.4499999993 0 
-0.79999986142 1.5 0 -0.74999986067 1.4499999993 0 -0.74999986067 1.5 0 
-0.69999985993 1.4499999993 0 -0.69999985993 1.5 0 -0.64999985918 1.4499999993 0 
-0.64999985918 1.5 0 -0.59999985844 1.4499999993 0 -0.59999985844 1.5 0 
-0.54999985769 1.4499999993 0 -0.54999985769 1.5 0 -0.49999985695 1.4499999993 0 
-0.49999985695 1.5 0 -0.4499998562 1.4499999993 0 -0.4499998562 1.5 0 
-0.39999985546 1.4499999993 0 -0.39999985546 1.5 0 -0.34999985471 1.4499999993 0 
-0.34999985471 1.5 0 -0.29999985397 1.4499999993 0 -0.29999985397 1.5 0 
-0.24999985322 1.4499999993 0 -0.24999985322 1.5 0 -0.191663057 1.4499999993 0 
-0.17548248559 1.5 0 0.18862900414 1.4499999993 0 0.25000015423 1.4499999993 0 
[...]
CELL_DATA 9510
FIELD FieldData 4
Water_Depth_m 1 9510 float
0.260008 0.260023 0.260039 0.260054 0.260069 0.260085 0.2601 0.260115 0.260131 
0.260146 0.260162 0.260177 0.260192 0.260208 0.260223 0.260238 0.260254 0.260269 
0.260284 0.2603 0.260315 0.26033 0.260346 0.260361 0.260376 0.260391 0.260407 
0.260422 0.260437 0.260453 0.260468 0.260483 0.260499 0.260514 0.260529 0.260544 
0.26056 0.260575 0.26059 0.260605 0.260621 0.260636 0.260651 0.260666 0.260682 
0.260697 0.260712 0.260727 0.260743 0.260758 0.260773 0.260788 0.260804 0.260819 
0.260834 0.260849 0.260864 0.26088 0.260895 0.26091 0.260925 0.26094 0.260956 
0.260971 0.260986 0.261001 0.261016 0.261032 0.261047 0.261062 0.261077 0.261092 
0.261107 0.261123 0.261138 0.261153 0.261168 0.261183 0.261198 0.261213 0.261229 
0.261244 0.261259 0.261274 0.261289 0.261304 0.261319 0.261334 0.26135 0.261365 
0.26138 0.261395 0.26141 0.261425 0.26144 0.261455 0.26147 0.261485 0.2615 
0.261516 0.261531 0.261546 0.261561 0.261576 0.261591 0.261606 0.261621 0.261636 
0.261651 0.261666 0.261681 0.261696 0.261711 0.261726 0.261741 0.261756 0.261771 
0.261786 0.261801 0.261816 0.261831 0.261846 0.261861 0.261876 0.261891 0.261906 
0.261921 0.261936 0.261951 0.261966 0.261981 0.261996 0.262011 0.262026 0.262041 
0.262056 0.262071 0.262086 0.262101 0.262116 0.262131 0.262146 0.262161 0.262175 
0.26219 0.262205 0.26222 0.262235 0.26225 0.262265 0.262279 0.262294 0.262309 
0.262324 0.262339 0.262353 0.262368 0.262383 0.262397 0.262412 0.262427 0.262441 
0.262456 0.26247 0.262485 0.262499 0.262513 0.262528 0.262542 0.262556 0.26257 
0.262584 0.262598 0.262611 0.262625 0.262639 0.262652 0.262665 0.262678 0.262691 
0.262703 0.262716 0.262728 0.262739 0.262751 0.262762 0.262772 0.262782 0.262792 
0.262801 0.262809 0.262817 0.262823 0.262827 0.262833 0.262817 0.26281 0.262902 
0.439862 0.439864 0.439867 0.439869 0.439872 0.439874 0.439877 0.43988 0.439882 
0.439885 0.439887 0.43989 0.439892 0.439895 0.439898 0.4399 0.439903 0.439905 
0.439908 0.439911 0.439913 0.439916 0.439918 0.439921 0.439923 0.439926 0.439929 
0.439931 0.439934 0.439936 0.439939 0.439941 0.439944 0.439947 0.439949 0.439952 
0.439954 0.439957 0.439959 0.439962 0.439965 0.439967 0.43997 0.439972 0.439975 
0.439977 0.43998 0.439983 0.439985 0.439988 0.43999 0.439993 0.439995 0.439998 
0.440001 0.440003 0.440006 0.440008 0.440011 0.440013 0.440016 0.440019 0.440021 
0.440024 0.440026 0.440029 0.440031 0.440034 0.440036 0.440039 0.440042 0.440044 
0.440047 0.440049 0.440052 0.440054 0.440057 0.440059 0.440062 0.440065 0.440067 
0.44007 0.440072 0.440075 0.440077 0.44008 0.440083 0.440085 0.440088 0.44009 
0.440093 0.440095 0.440098 0.4401 0.44004 0.440029 0.434942 0.260008 0.260023 
0.260039 0.260054 0.260069 0.260085 0.2601 0.260115 0.260131 0.260146 0.260161 
0.260177 0.260192 0.260208 0.260223 0.260238 0.260254 0.260269 0.260284 0.2603 
0.260315 0.26033 0.260346 0.260361 0.260376 0.260391 0.260407 0.260422 0.260437 
0.260453 0.260468 0.260483 0.260499 0.260514 0.260529 0.260544 0.26056 0.260575 
0.26059 0.260605 0.260621 0.260636 0.260651 0.260666 0.260682 0.260697 0.260712 
0.260727 0.260743 0.260758 0.260773 0.260788 0.260804 0.260819 0.260834 0.260849 
0.260864 0.26088 0.260895 0.26091 0.260925 0.26094 0.260956 0.260971 0.260986 
0.261001 0.261016 0.261032 0.261047 0.261062 0.261077 0.261092 0.261107 0.261123 
0.261138 0.261153 0.261168 0.261183 0.261198 0.261213 0.261229 0.261244 0.261259 
0.261274 0.261289 0.261304 0.261319 0.261334 0.26135 0.261365 0.26138 0.261395 
0.26141 0.261425 0.26144 0.261455 0.26147 0.261485 0.2615 0.261516 0.261531 
0.261546 0.261561 0.261576 0.261591 0.261606 0.261621 0.261636 0.261651 0.261666 
0.261681 0.261696 0.261711 0.261726 0.261741 0.261756 0.261771 0.261786 0.261801 
0.261816 0.261831 0.261846 0.261861 0.261876 0.261891 0.261906 0.261921 0.261936 
0.261951 0.261966 0.261981 0.261996 0.262011 0.262026 0.262041 0.262056 0.262071 
0.262086 0.262101 0.262116 0.262131 0.262146 0.262161 0.262176 0.26219 0.262205 
0.26222 0.262235 0.26225 0.262265 0.26228 0.262294 0.262309 0.262324 0.262339 
0.262353 0.262368 0.262383 0.262397 0.262412 0.262427 0.262441 0.262456 0.26247 
0.262485 0.262499 0.262514 0.262528 0.262542 0.262556 0.26257 0.262584 0.262598 
0.262612 0.262625 0.262639 0.262652 0.262666 0.262679 0.262691 0.262704 0.262716 
0.262728 0.26274 0.262752 0.262763 0.262773 0.262784 0.262793 0.262803 0.262811 
0.262819 0.262825 0.26283 0.262831 0.262835 0.262854 0.262993 0.439862 0.439864 
0.439867 0.439869 0.439872 0.439874 0.439877 0.43988 0.439882 0.439885 0.439887 
0.43989 0.439892 0.439895 0.439898 0.4399 0.439903 0.439905 0.439908 0.439911 
0.439913 0.439916 0.439918 0.439921 0.439923 0.439926 0.439929 0.439931 0.439934 
0.439936 0.439939 0.439941 0.439944 0.439947 0.439949 0.439952 0.439954 0.439957 
0.439959 0.439962 0.439965 0.439967 0.43997 0.439972 0.439975 0.439977 0.43998 
0.439983 0.439985 0.439988 0.43999 0.439993 0.439995 0.439998 0.440001 0.440003 
0.440006 0.440008 0.440011 0.440013 0.440016 0.440019 0.440021 0.440024 0.440026 
0.440029 0.440031 0.440034 0.440036 0.440039 0.440042 0.440044 0.440047 0.440049 
0.440052 0.440054 0.440057 0.440059 0.440062 0.440065 0.440067 0.44007 0.440072 
0.440075 0.440077 0.44008 0.440083 0.440085 0.440088 0.44009 0.440093 0.440095 
0.440098 0.4401 0.44004 0.440029 0.434942 0.260008 0.260023 0.260039 0.260054 
0.260069 0.260085 0.2601 0.260115 0.260131 0.260146 0.260162 0.260177 0.260192 
0.260208 0.260223 0.260238 0.260254 0.260269 0.260284 0.2603 0.260315 0.26033 
0.260346 0.260361 0.260376 0.260391 0.260407 0.260422 0.260437 0.260453 0.260468 
0.260483 0.260499 0.260514 0.260529 0.260544 0.26056 0.260575 0.26059 0.260605 
0.260621 0.260636 0.260651 0.260666 0.260682 0.260697 0.260712 0.260727 0.260743 
0.260758 0.260773 0.260788 0.260804 0.260819 0.260834 0.260849 0.260864 0.26088 
0.260895 0.26091 0.260925 0.26094 0.260956 0.260971 0.260986 0.261001 0.261016 
0.261032 0.261047 0.261062 0.261077 0.261092 0.261107 0.261123 0.261138 0.261153 
0.261168 0.261183 0.261198 0.261213 0.261229 0.261244 0.261259 0.261274 0.261289 
0.261304 0.261319 0.261334 0.26135 0.261365 0.26138 0.261395 0.26141 0.261425 
0.26144 0.261455 0.26147 0.261485 0.261501 0.261516 0.261531 0.261546 0.261561 
0.261576 0.261591 0.261606 0.261621 0.261636 0.261651 0.261666 0.261681 0.261696 
0.261711 0.261726 0.261741 0.261756 0.261771 0.261786 0.261801 0.261817 0.261832 
0.261847 0.261862 0.261877 0.261892 0.261907 0.261921 0.261936 0.261951 0.261966 
0.261981 0.261996 0.262011 0.262026 0.262041 0.262056 0.262071 0.262086 0.262101 
0.262116 0.262131 0.262146 0.262161 0.262176 0.262191 0.262205 0.26222 0.262235 
0.26225 0.262265 0.26228 0.262295 0.262309 0.262324 0.262339 0.262354 0.262368 
0.262383 0.262398 0.262412 0.262427 0.262442 0.262456 0.262471 0.262485 0.2625 
0.262514 0.262528 0.262542 0.262557 0.262571 0.262585 0.262599 0.262612 0.262626 
0.26264 0.262653 0.262666 0.262679 0.262692 0.262705 0.262717 0.262729 0.262741 
0.262753 0.262764 0.262775 0.262785 0.262795 0.262804 0.262813 0.262821 0.262829 
0.262835 0.26284 0.262845 0.262879 0.262993 0.439862 0.439864 0.439867 0.439869 
0.439872 0.439874 0.439877 0.43988 0.439882 0.439885 0.439887 0.43989 0.439892 
0.439895 0.439898 0.4399 0.439903 0.439905 0.439908 0.439911 0.439913 0.439916 
0.439918 0.439921 0.439923 0.439926 0.439929 0.439931 0.439934 0.439936 0.439939 
0.439941 0.439944 0.439947 0.439949 0.439952 0.439954 0.439957 0.439959 0.439962 
0.439965 0.439967 0.43997 0.439972 0.439975 0.439977 0.43998 0.439983 0.439985 
0.439988 0.43999 0.439993 0.439995 0.439998 0.440001 0.440003 0.440006 0.440008 
0.440011 0.440013 0.440016 0.440019 0.440021 0.440024 0.440026 0.440029 0.440031 
0.440034 0.440036 0.440039 0.440042 0.440044 0.440047 0.440049 0.440052 0.440054 
0.440057 0.440059 0.440062 0.440065 0.440067 0.44007 0.440072 0.440075 0.440077 
0.44008 0.440083 0.440085 0.440088 0.44009 0.440093 0.440095 0.440098 0.4401 
0.44004 0.440029 0.434942 0.260008 0.260023 0.260039 0.260054 0.260069 0.260085 
0.2601 0.260115 0.260131 0.260146 0.260162 0.260177 0.260192 0.260208 0.260223 
0.260238 0.260254 0.260269 0.260284 0.2603 0.260315 0.26033 0.260346 0.260361 
0.260376 0.260391 0.260407 0.260422 0.260437 0.260453 0.260468 0.260483 0.260499 
0.260514 0.260529 0.260544 0.26056 0.260575 0.26059 0.260605 0.260621 0.260636 
0.260651 0.260666 0.260682 0.260697 0.260712 0.260727 0.260743 0.260758 0.260773 
0.260788 0.260804 0.260819 0.260834 0.260849 0.260864 0.26088 0.260895 0.26091 
0.260925 0.26094 0.260956 0.260971 0.260986 0.261001 0.261016 0.261032 0.261047 
0.261062 0.261077 0.261092 0.261107 0.261123 0.261138 0.261153 0.261168 0.261183 
0.261198 0.261213 0.261229 0.261244 0.261259 0.261274 0.261289 0.261304 0.261319 
0.261334 0.26135 0.261365 0.26138 0.261395 0.26141 0.261425 0.26144 0.261455 
0.26147 0.261485 0.261501 0.261516 0.261531 0.261546 0.261561 0.261576 0.261591 
0.261606 0.261621 0.261636 0.261651 0.261666 0.261681 0.261696 0.261711 0.261726 
0.261741 0.261756 0.261772 0.261787 0.261802 0.261817 0.261832 0.261847 0.261862 
0.261877 0.261892 0.261907 0.261922 0.261937 0.261952 0.261966 0.261981 0.261996 
0.262011 0.262026 0.262041 0.262056 0.262071 0.262086 0.262101 0.262116 0.262131 
0.262146 0.262161 0.262176 0.262191 0.262205 0.26222 0.262235 0.26225 0.262265 
0.26228 0.262295 0.262309 0.262324 0.262339 0.262354 0.262368 0.262383 0.262398 
0.262413 0.262427 0.262442 0.262456 0.262471 0.262485 0.2625 0.262514 0.262528 
0.262543 0.262557 0.262571 0.262585 0.262599 0.262613 0.262626 0.26264 0.262653 
0.262667 0.26268 0.262693 0.262705 0.262718 0.26273 0.262742 0.262754 0.262765 
0.262776 0.262786 0.262796 0.262806 0.262815 0.262824 0.262832 0.262841 0.262849 
0.262858 0.262896 0.263002 0.439862 0.439864 0.439867 0.439869 0.439872 0.439874 
0.439877 0.439879 0.439882 0.439885 0.439887 0.43989 0.439892 0.439895 0.439898 
0.4399 0.439903 0.439905 0.439908 0.439911 0.439913 0.439916 0.439918 0.439921 
0.439924 0.439926 0.439929 0.439931 0.439934 0.439936 0.439939 0.439941 0.439944 
0.439947 0.439949 0.439952 0.439954 0.439957 0.439959 0.439962 0.439965 0.439967 
0.43997 0.439972 0.439975 0.439977 0.43998 0.439983 0.439985 0.439988 0.43999 
0.439993 0.439995 0.439998 0.440001 0.440003 0.440006 0.440008 0.440011 0.440013 
0.440016 0.440019 0.440021 0.440024 0.440026 0.440029 0.440031 0.440034 0.440036 
0.440039 0.440042 0.440044 0.440047 0.440049 0.440052 0.440054 0.440057 0.440059 
0.440062 0.440065 0.440067 0.44007 0.440072 0.440075 0.440077 0.44008 0.440083 
0.440085 0.440088 0.44009 0.440093 0.440095 0.440098 0.4401 0.44004 0.440029 
0.434942 0.260008 0.260023 0.260039 0.260054 0.260069 0.260085 0.2601 0.260115 
0.260131 0.260146 0.260162 0.260177 0.260192 0.260208 0.260223 0.260238 0.260254 
0.260269 0.260284 0.2603 0.260315 0.26033 0.260346 0.260361 0.260376 0.260391 
0.260407 0.260422 0.260437 0.260453 0.260468 0.260483 0.260499 0.260514 0.260529 
0.260544 0.26056 0.260575 0.26059 0.260605 0.260621 0.260636 0.260651 0.260666 
0.260682 0.260697 0.260712 0.260727 0.260743 0.260758 0.260773 0.260788 0.260804 
0.260819 0.260834 0.260849 0.260864 0.26088 0.260895 0.26091 0.260925 0.26094 
0.260956 0.260971 0.260986 0.261001 0.261016 0.261032 0.261047 0.261062 0.261077 
0.261092 0.261107 0.261123 0.261138 0.261153 0.261168 0.261183 0.261198 0.261213 
0.261229 0.261244 0.261259 0.261274 0.261289 0.261304 0.261319 0.261334 0.26135 
0.261365 0.26138 0.261395 0.26141 0.261425 0.26144 0.261455 0.26147 0.261485 
0.261501 0.261516 0.261531 0.261546 0.261561 0.261576 0.261591 0.261606 0.261621 
0.261636 0.261651 0.261666 0.261681 0.261696 0.261711 0.261726 0.261741 0.261756 
0.261772 0.261787 0.261802 0.261817 0.261832 0.261847 0.261862 0.261877 0.261892 
0.261907 0.261922 0.261937 0.261952 0.261967 0.261982 0.261996 0.262011 0.262026 
0.262041 0.262056 0.262071 0.262086 0.262101 0.262116 0.262131 0.262146 0.262161 
0.262176 0.262191 0.262206 0.26222 0.262235 0.26225 0.262265 0.26228 0.262295 
0.262309 0.262324 0.262339 0.262354 0.262369 0.262383 0.262398 0.262413 0.262427 
0.262442 0.262456 0.262471 0.262485 0.2625 0.262514 0.262529 0.262543 0.262557 
0.262571 0.262585 0.262599 0.262613 0.262627 0.26264 0.262654 0.262667 0.26268 
0.262693 0.262706 0.262719 0.262731 0.262743 0.262755 0.262766 0.262777 0.262788 
0.262798 0.262808 0.262818 0.262827 0.262837 0.262846 0.262856 0.262867 0.262904 
0.263006 0.439862 0.439864 0.439867 0.439869 0.439872 0.439874 0.439877 0.439879 
0.439882 0.439885 0.439887 0.43989 0.439892 0.439895 0.439898 0.4399 0.439903 
0.439905 0.439908 0.439911 0.439913 0.439916 0.439918 0.439921 0.439924 0.439926 
0.439929 0.439931 0.439934 0.439936 0.439939 0.439942 0.439944 0.439947 0.439949 
0.439952 0.439954 0.439957 0.439959 0.439962 0.439965 0.439967 0.43997 0.439972 
0.439975 0.439977 0.43998 0.439983 0.439985 0.439988 0.43999 0.439993 0.439995 
0.439998 0.440001 0.440003 0.440006 0.440008 0.440011 0.440013 0.440016 0.440019 
0.440021 0.440024 0.440026 0.440029 0.440031 0.440034 0.440036 0.440039 0.440042 
0.440044 0.440047 0.440049 0.440052 0.440054 0.440057 0.440059 0.440062 0.440065 
0.440067 0.44007 0.440072 0.440075 0.440077 0.44008 0.440083 0.440085 0.440088 
0.44009 0.440093 0.440095 0.440098 0.4401 0.44004 0.440029 0.434942 0.260008 
0.260023 0.260039 0.260054 0.260069 0.260085 0.2601 0.260115 0.260131 0.260146 
0.260162 0.260177 0.260192 0.260208 0.260223 0.260238 0.260254 0.260269 0.260284 
0.2603 0.260315 0.26033 0.260346 0.260361 0.260376 0.260391 0.260407 0.260422 
0.260437 0.260453 0.260468 0.260483 0.260499 0.260514 0.260529 0.260544 0.26056 
0.260575 0.26059 0.260605 0.260621 0.260636 0.260651 0.260666 0.260682 0.260697 
0.260712 0.260727 0.260743 0.260758 0.260773 0.260788 0.260804 0.260819 0.260834 
0.260849 0.260864 0.26088 0.260895 0.26091 0.260925 0.26094 0.260956 0.260971 
0.260986 0.261001 0.261016 0.261032 0.261047 0.261062 0.261077 0.261092 0.261107 
0.261123 0.261138 0.261153 0.261168 0.261183 0.261198 0.261213 0.261229 0.261244 
0.261259 0.261274 0.261289 0.261304 0.261319 0.261334 0.26135 0.261365 0.26138 
0.261395 0.26141 0.261425 0.26144 0.261455 0.26147 0.261485 0.261501 0.261516 
0.261531 0.261546 0.261561 0.261576 0.261591 0.261606 0.261621 0.261636 0.261651 
0.261666 0.261681 0.261696 0.261711 0.261726 0.261741 0.261756 0.261772 0.261787 
0.261802 0.261817 0.261832 0.261847 0.261862 0.261877 0.261892 0.261907 0.261922 
0.261937 0.261952 0.261967 0.261981 0.261996 0.262011 0.262026 0.262041 0.262056 
0.262071 0.262086 0.262101 0.262116 0.262131 0.262146 0.262161 0.262176 0.262191 
0.262205 0.26222 0.262235 0.26225 0.262265 0.26228 0.262295 0.262309 0.262324 
0.262339 0.262354 0.262369 0.262383 0.262398 0.262413 0.262427 0.262442 0.262457 
0.262471 0.262486 0.2625 0.262515 0.262529 0.262543 0.262557 0.262572 0.262586 
0.2626 0.262614 0.262627 0.262641 0.262655 0.262668 0.262681 0.262694 0.262707 
0.26272 0.262732 0.262745 0.262756 0.262768 0.262779 0.26279 0.262801 0.262811 
0.262821 0.262831 0.262841 0.262851 0.262861 0.262872 0.262907 0.263003 0.439862 
0.439864 0.439866 0.439869 0.439872 0.439874 0.439877 0.439879 0.439882 0.439885 
0.439887 0.43989 0.439892 0.439895 0.439898 0.4399 0.439903 0.439905 0.439908 
0.439911 0.439913 0.439916 0.439918 0.439921 0.439924 0.439926 0.439929 0.439931 
0.439934 0.439936 0.439939 0.439942 0.439944 0.439947 0.439949 0.439952 0.439954 
0.439957 0.439959 0.439962 0.439965 0.439967 0.43997 0.439972 0.439975 0.439977 
0.43998 0.439983 0.439985 0.439988 0.43999 0.439993 0.439995 0.439998 0.440001 
0.440003 0.440006 0.440008 0.440011 0.440013 0.440016 0.440019 0.440021 0.440024 
0.440026 0.440029 0.440031 0.440034 0.440036 0.440039 0.440042 0.440044 0.440047 
0.440049 0.440052 0.440054 0.440057 0.440059 0.440062 0.440065 0.440067 0.44007 
0.440072 0.440075 0.440077 0.44008 0.440083 0.440085 0.440088 0.44009 0.440093 
0.440095 0.440098 0.4401 0.44004 0.440029 0.434942 0.260008 0.260023 0.260039 
0.260054 0.260069 0.260085 0.2601 0.260115 0.260131 0.260146 0.260162 0.260177 
0.260192 0.260208 0.260223 0.260238 0.260254 0.260269 0.260284 0.2603 0.260315 
0.26033 0.260346 0.260361 0.260376 0.260391 0.260407 0.260422 0.260437 0.260453 
0.260468 0.260483 0.260499 0.260514 0.260529 0.260544 0.26056 0.260575 0.26059 
0.260605 0.260621 0.260636 0.260651 0.260666 0.260682 0.260697 0.260712 0.260727 
0.260743 0.260758 0.260773 0.260788 0.260804 0.260819 0.260834 0.260849 0.260864 
0.26088 0.260895 0.26091 0.260925 0.26094 0.260956 0.260971 0.260986 0.261001 
0.261016 0.261032 0.261047 0.261062 0.261077 0.261092 0.261107 0.261123 0.261138 
0.261153 0.261168 0.261183 0.261198 0.261213 0.261229 0.261244 0.261259 0.261274 
0.261289 0.261304 0.261319 0.261334 0.26135 0.261365 0.26138 0.261395 0.26141 
0.261425 0.26144 0.261455 0.26147 0.261485 0.261501 0.261516 0.261531 0.261546 
0.261561 0.261576 0.261591 0.261606 0.261621 0.261636 0.261651 0.261666 0.261681 
0.261696 0.261711 0.261726 0.261741 0.261756 0.261771 0.261786 0.261802 0.261817 
0.261832 0.261847 0.261862 0.261877 0.261892 0.261907 0.261922 0.261937 0.261952 
0.261966 0.261981 0.261996 0.262011 0.262026 0.262041 0.262056 0.262071 0.262086 
0.262101 0.262116 0.262131 0.262146 0.262161 0.262176 0.262191 0.262205 0.26222 
0.262235 0.26225 0.262265 0.26228 0.262295 0.262309 0.262324 0.262339 0.262354 
0.262369 0.262383 0.262398 0.262413 0.262427 0.262442 0.262457 0.262471 0.262486 
0.2625 0.262515 0.262529 0.262544 0.262558 0.262572 0.262586 0.2626 0.262614 
0.262628 0.262642 0.262655 0.262669 0.262682 0.262695 0.262708 0.262721 0.262734 
0.262746 0.262758 0.26277 0.262782 0.262793 0.262804 0.262814 0.262825 0.262835 
0.262845 0.262855 0.262865 0.262874 0.262905 0.262995 0.439862 0.439864 0.439866 
0.439869 0.439872 0.439874 0.439877 0.439879 0.439882 0.439885 0.439887 0.43989 
0.439892 0.439895 0.439898 0.4399 0.439903 0.439905 0.439908 0.439911 0.439913 
0.439916 0.439918 0.439921 0.439924 0.439926 0.439929 0.439931 0.439934 0.439936 
0.439939 0.439942 0.439944 0.439947 0.439949 0.439952 0.439954 0.439957 0.43996 
0.439962 0.439965 0.439967 0.43997 0.439972 0.439975 0.439977 0.43998 0.439983 
0.439985 0.439988 0.43999 0.439993 0.439995 0.439998 0.440001 0.440003 0.440006 
0.440008 0.440011 0.440013 0.440016 0.440019 0.440021 0.440024 0.440026 0.440029 
0.440031 0.440034 0.440036 0.440039 0.440042 0.440044 0.440047 0.440049 0.440052 
0.440054 0.440057 0.440059 0.440062 0.440065 0.440067 0.44007 0.440072 0.440075 
0.440077 0.44008 0.440083 0.440085 0.440088 0.44009 0.440093 0.440095 0.440098 
0.4401 0.44004 0.440029 0.434942 0.260008 0.260023 0.260039 0.260054 0.260069 
0.260085 0.2601 0.260115 0.260131 0.260146 0.260162 0.260177 0.260192 0.260208 
0.260223 0.260238 0.260254 0.260269 0.260284 0.2603 0.260315 0.26033 0.260346 
0.260361 0.260376 0.260391 0.260407 0.260422 0.260437 0.260453 0.260468 0.260483 
0.260499 0.260514 0.260529 0.260544 0.26056 0.260575 0.26059 0.260605 0.260621 
0.260636 0.260651 0.260666 0.260682 0.260697 0.260712 0.260727 0.260743 0.260758 
0.260773 0.260788 0.260804 0.260819 0.260834 0.260849 0.260864 0.26088 0.260895 
0.26091 0.260925 0.26094 0.260956 0.260971 0.260986 0.261001 0.261016 0.261032 
0.261047 0.261062 0.261077 0.261092 0.261107 0.261123 0.261138 0.261153 0.261168 
0.261183 0.261198 0.261213 0.261229 0.261244 0.261259 0.261274 0.261289 0.261304 
0.261319 0.261334 0.26135 0.261365 0.26138 0.261395 0.26141 0.261425 0.26144 
0.261455 0.26147 0.261485 0.261501 0.261516 0.261531 0.261546 0.261561 0.261576 
0.261591 0.261606 0.261621 0.261636 0.261651 0.261666 0.261681 0.261696 0.261711 
0.261726 0.261741 0.261756 0.261771 0.261786 0.261801 0.261817 0.261832 0.261847 
0.261862 0.261877 0.261892 0.261907 0.261922 0.261937 0.261951 0.261966 0.261981 
0.261996 0.262011 0.262026 0.262041 0.262056 0.262071 0.262086 0.262101 0.262116 
0.262131 0.262146 0.262161 0.262176 0.262191 0.262205 0.26222 0.262235 0.26225 