# vtk DataFile Version 5.1
vtk output
ASCII
DATASET UNSTRUCTURED_GRID
POINTS 9359 double
-10.1 1.4499999993 0 -10.049999999 1.4499999993 0 -10.049999999 1.5 0 
-9.9999999985 1.4499999993 0 -9.9999999985 1.5 0 -9.9499999978 1.4499999993 0 
-9.9499999978 1.5 0 -9.899999997 1.4499999993 0 -9.899999997 1.5 0 
-9.8499999963 1.4499999993 0 -9.8499999963 1.5 0 -9.7999999955 1.4499999993 0 
-9.7999999955 1.5 0 -9.7499999948 1.4499999993 0 -9.7499999948 1.5 0 
-9.699999994 1.4499999993 0 -9.699999994 1.5 0 -9.6499999933 1.4499999993 0 
-9.6499999933 1.5 0 -9.5999999925 1.4499999993 0 -9.5999999925 1.5 0 
-9.5499999918 1.4499999993 0 -9.5499999918 1.5 0 -9.4999999911 1.4499999993 0 
-9.4999999911 1.5 0 -9.4499999903 1.4499999993 0 -9.4499999903 1.5 0 
-9.3999999896 1.4499999993 0 -9.3999999896 1.5 0 -9.3499999888 1.4499999993 0 
-9.3499999888 1.5 0 -9.2999999881 1.4499999993 0 -9.2999999881 1.5 0 
-9.2499999873 1.4499999993 0 -9.2499999873 1.5 0 -9.1999999866 1.4499999993 0 
-9.1999999866 1.5 0 -9.1499999858 1.4499999993 0 -9.1499999858 1.5 0 
-9.0999999851 1.4499999993 0 -9.0999999851 1.5 0 -9.0499999844 1.4499999993 0 
-9.0499999844 1.5 0 -8.9999999836 1.4499999993 0 -8.9999999836 1.5 0 
-8.9499999829 1.4499999993 0 -8.9499999829 1.5 0 -8.8999999821 1.4499999993 0 
-8.8999999821 1.5 0 -8.8499999814 1.4499999993 0 -8.8499999814 1.5 0 
-8.7999999806 1.4499999993 0 -8.7999999806 1.5 0 -8.7499999799 1.4499999993 0 
-8.7499999799 1.5 0 -8.6999999791 1.4499999993 0 -8.6999999791 1.5 0 
-8.6499999784 1.4499999993 0 -8.6499999784 1.5 0 -8.5999999776 1.4499999993 0 
-8.5999999776 1.5 0 -8.5499999769 1.4499999993 0 -8.5499999769 1.5 0 
-8.4999999762 1.4499999993 0 -8.4999999762 1.5 0 -8.4499999754 1.4499999993 0 
-8.4499999754 1.5 0 -8.3999999747 1.4499999993 0 -8.3999999747 1.5 0 
-8.3499999739 1.4499999993 0 -8.3499999739 1.5 0 -8.2999999732 1.4499999993 0 
-8.2999999732 1.5 0 -8.2499999724 1.4499999993 0 -8.2499999724 1.5 0 
-8.1999999717 1.4499999993 0 -8.1999999717 1.5 0 -8.1499999709 1.4499999993 0 
-8.1499999709 1.5 0 -8.0999999702 1.4499999993 0 -8.0999999702 1.5 0 
-8.0499999695 1.4499999993 0 -8.0499999695 1.5 0 -7.9999999687 1.4499999993 0 
-7.9999999687 1.5 0 -7.949999968 1.4499999993 0 -7.949999968 1.5 0 
-7.8999999672 1.4499999993 0 -7.8999999672 1.5 0 -7.8499999665 1.4499999993 0 
-7.8499999665 1.5 0 -7.7999999657 1.4499999993 0 -7.7999999657 1.5 0 
-7.749999965 1.4499999993 0 -7.749999965 1.5 0 -7.6999999642 1.4499999993 0 
-7.6999999642 1.5 0 -7.6499999635 1.4499999993 0 -7.6499999635 1.5 0 
-7.5999999627 1.4499999993 0 -7.5999999627 1.5 0 -7.549999962 1.4499999993 0 
-7.549999962 1.5 0 -7.4999999613 1.4499999993 0 -7.4999999613 1.5 0 
-7.4499999605 1.4499999993 0 -7.4499999605 1.5 0 -7.3999999598 1.4499999993 0 
-7.3999999598 1.5 0 -7.349999959 1.4499999993 0 -7.349999959 1.5 0 
-7.2999999583 1.4499999993 0 -7.2999999583 1.5 0 -7.2499999575 1.4499999993 0 
-7.2499999575 1.5 0 -7.1999999568 1.4499999993 0 -7.1999999568 1.5 0 
-7.149999956 1.4499999993 0 -7.149999956 1.5 0 -7.0999999553 1.4499999993 0 
-7.0999999553 1.5 0 -7.0499999546 1.4499999993 0 -7.0499999546 1.5 0 
-6.9999999538 1.4499999993 0 -6.9999999538 1.5 0 -6.9499999531 1.4499999993 0 
-6.9499999531 1.5 0 -6.8999999523 1.4499999993 0 -6.8999999523 1.5 0 
-6.8499999516 1.4499999993 0 -6.8499999516 1.5 0 -6.7999999508 1.4499999993 0 
-6.7999999508 1.5 0 -6.7499999501 1.4499999993 0 -6.7499999501 1.5 0 
-6.6999999493 1.4499999993 0 -6.6999999493 1.5 0 -6.6499999486 1.4499999993 0 
-6.6499999486 1.5 0 -6.5999999478 1.4499999993 0 -6.5999999478 1.5 0 
-6.5499999471 1.4499999993 0 -6.5499999471 1.5 0 -6.4999999464 1.4499999993 0 
-6.4999999464 1.5 0 -6.4499999456 1.4499999993 0 -6.4499999456 1.5 0 
-6.3999999449 1.4499999993 0 -6.3999999449 1.5 0 -6.3499999441 1.4499999993 0 
-6.3499999441 1.5 0 -6.2999999434 1.4499999993 0 -6.2999999434 1.5 0 
-6.2499999426 1.4499999993 0 -6.2499999426 1.5 0 -6.1999999419 1.4499999993 0 
-6.1999999419 1.5 0 -6.1499999411 1.4499999993 0 -6.1499999411 1.5 0 
-6.0999999404 1.4499999993 0 -6.0999999404 1.5 0 -6.0499999397 1.4499999993 0 
-6.0499999397 1.5 0 -5.9999999389 1.4499999993 0 -5.9999999389 1.5 0 
-5.9499999382 1.4499999993 0 -5.9499999382 1.5 0 -5.8999999374 1.4499999993 0 
-5.8999999374 1.5 0 -5.8499999367 1.4499999993 0 -5.8499999367 1.5 0 
-5.7999999359 1.4499999993 0 -5.7999999359 1.5 0 -5.7499999352 1.4499999993 0 
-5.7499999352 1.5 0 -5.6999999344 1.4499999993 0 -5.6999999344 1.5 0 
-5.6499999337 1.4499999993 0 -5.6499999337 1.5 0 -5.5999999329 1.4499999993 0 
-5.5999999329 1.5 0 -5.5499999322 1.4499999993 0 -5.5499999322 1.5 0 
-5.4999999315 1.4499999993 0 -5.4999999315 1.5 0 -5.4499999307 1.4499999993 0 
-5.4499999307 1.5 0 -5.39999993 1.4499999993 0 -5.39999993 1.5 0 
-5.3499999292 1.4499999993 0 -5.3499999292 1.5 0 -5.2999999285 1.4499999993 0 
-5.2999999285 1.5 0 -5.2499999277 1.4499999993 0 -5.2499999277 1.5 0 
-5.199999927 1.4499999993 0 -5.199999927 1.5 0 -5.1499999262 1.4499999993 0 
-5.1499999262 1.5 0 -5.0999999255 1.4499999993 0 -5.0999999255 1.5 0 
-5.0499999247 1.4499999993 0 -5.0499999247 1.5 0 -4.999999924 1.4499999993 0 
-4.999999924 1.5 0 -4.9499999233 1.4499999993 0 -4.9499999233 1.5 0 
-4.8999999225 1.4499999993 0 -4.8999999225 1.5 0 -4.8499999218 1.4499999993 0 
-4.8499999218 1.5 0 -4.799999921 1.4499999993 0 -4.799999921 1.5 0 
-4.7499999203 1.4499999993 0 -4.7499999203 1.5 0 -4.6999999195 1.4499999993 0 
-4.6999999195 1.5 0 -4.6499999188 1.4499999993 0 -4.6499999188 1.5 0 
-4.599999918 1.4499999993 0 -4.599999918 1.5 0 -4.5499999173 1.4499999993 0 
-4.5499999173 1.5 0 -4.4999999166 1.4499999993 0 -4.4999999166 1.5 0 
-4.4499999158 1.4499999993 0 -4.4499999158 1.5 0 -4.3999999151 1.4499999993 0 
-4.3999999151 1.5 0 -4.3499999143 1.4499999993 0 -4.3499999143 1.5 0 
-4.2999999136 1.4499999993 0 -4.2999999136 1.5 0 -4.2499999128 1.4499999993 0 
-4.2499999128 1.5 0 -4.1999999121 1.4499999993 0 -4.1999999121 1.5 0 
-4.1499999113 1.4499999993 0 -4.1499999113 1.5 0 -4.0999999106 1.4499999993 0 
-4.0999999106 1.5 0 -4.0499999098 1.4499999993 0 -4.0499999098 1.5 0 
-3.9999999091 1.4499999993 0 -3.9999999091 1.5 0 -3.9499999084 1.4499999993 0 
-3.9499999084 1.5 0 -3.8999999076 1.4499999993 0 -3.8999999076 1.5 0 
-3.8499999069 1.4499999993 0 -3.8499999069 1.5 0 -3.7999999061 1.4499999993 0 
-3.7999999061 1.5 0 -3.7499999054 1.4499999993 0 -3.7499999054 1.5 0 
-3.6999999046 1.4499999993 0 -3.6999999046 1.5 0 -3.6499999039 1.4499999993 0 
-3.6499999039 1.5 0 -3.5999999031 1.4499999993 0 -3.5999999031 1.5 0 
-3.5499999024 1.4499999993 0 -3.5499999024 1.5 0 -3.4999999017 1.4499999993 0 
-3.4999999017 1.5 0 -3.4499999009 1.4499999993 0 -3.4499999009 1.5 0 
-3.3999999002 1.4499999993 0 -3.3999999002 1.5 0 -3.3499998994 1.4499999993 0 
-3.3499998994 1.5 0 -3.2999998987 1.4499999993 0 -3.2999998987 1.5 0 
-3.2499998979 1.4499999993 0 -3.2499998979 1.5 0 -3.1999998972 1.4499999993 0 
-3.1999998972 1.5 0 -3.1499998964 1.4499999993 0 -3.1499998964 1.5 0 
-3.0999998957 1.4499999993 0 -3.0999998957 1.5 0 -3.0499998949 1.4499999993 0 
-3.0499998949 1.5 0 -2.9999998942 1.4499999993 0 -2.9999998942 1.5 0 
-2.9499998935 1.4499999993 0 -2.9499998935 1.5 0 -2.8999998927 1.4499999993 0 
-2.8999998927 1.5 0 -2.849999892 1.4499999993 0 -2.849999892 1.5 0 
-2.7999998912 1.4499999993 0 -2.7999998912 1.5 0 -2.7499998905 1.4499999993 0 
-2.7499998905 1.5 0 -2.6999998897 1.4499999993 0 -2.6999998897 1.5 0 
-2.649999889 1.4499999993 0 -2.649999889 1.5 0 -2.5999998882 1.4499999993 0 
-2.5999998882 1.5 0 -2.5499998875 1.4499999993 0 -2.5499998875 1.5 0 
-2.4999998868 1.4499999993 0 -2.4999998868 1.5 0 -2.449999886 1.4499999993 0 
-2.449999886 1.5 0 -2.3999998853 1.4499999993 0 -2.3999998853 1.5 0 
-2.3499998845 1.4499999993 0 -2.3499998845 1.5 0 -2.2999998838 1.4499999993 0 
-2.2999998838 1.5 0 -2.249999883 1.4499999993 0 -2.249999883 1.5 0 
-2.1999998823 1.4499999993 0 -2.1999998823 1.5 0 -2.1499998815 1.4499999993 0 
-2.1499998815 1.5 0 -2.0999998808 1.4499999993 0 -2.0999998808 1.5 0 
-2.04999988 1.4499999993 0 -2.04999988 1.5 0 -1.9999998793 1.4499999993 0 
-1.9999998793 1.5 0 -1.9499998786 1.4499999993 0 -1.9499998786 1.5 0 
-1.8999998778 1.4499999993 0 -1.8999998778 1.5 0 -1.8499998771 1.4499999993 0 
-1.8499998771 1.5 0 -1.7999998763 1.4499999993 0 -1.7999998763 1.5 0 
-1.7499998756 1.4499999993 0 -1.7499998756 1.5 0 -1.6999998748 1.4499999993 0 
-1.6999998748 1.5 0 -1.6499998741 1.4499999993 0 -1.6499998741 1.5 0 
-1.5999998733 1.4499999993 0 -1.5999998733 1.5 0 -1.5499998726 1.4499999993 0 
-1.5499998726 1.5 0 -1.4999998719 1.4499999993 0 -1.4999998719 1.5 0 
-1.4499998711 1.4499999993 0 -1.4499998711 1.5 0 -1.3999998704 1.4499999993 0 
-1.3999998704 1.5 0 -1.3499998696 1.4499999993 0 -1.3499998696 1.5 0 
-1.2999998689 1.4499999993 0 -1.2999998689 1.5 0 -1.2499998681 1.4499999993 0 
-1.2499998681 1.5 0 -1.1999998674 1.4499999993 0 -1.1999998674 1.5 0 
-1.1499998666 1.4499999993 0 -1.1499998666 1.5 0 -1.0999998659 1.4499999993 0 
-1.0999998659 1.5 0 -1.0499998651 1.4499999993 0 -1.0499998651 1.5 0 
-0.9999998644 1.4499999993 0 -0.9999998644 1.5 0 -0.94999986365 1.4499999993 0 
-0.94999986365 1.5 0 -0.89999986291 1.4499999993 0 -0.89999986291 1.5 0 
-0.84999986216 1.4499999993 0 -0.84999986216 1.5 0 -0.79999986142 1.4499999993 0 
-0.79999986142 1.5 0 -0.74999986067 1.4499999993 0 -0.74999986067 1.5 0 
-0.69999985993 1.4499999993 0 -0.69999985993 1.5 0 -0.64999985918 1.4499999993 0 
-0.64999985918 1.5 0 -0.59999985844 1.4499999993 0 -0.59999985844 1.5 0 
-0.54999985769 1.4499999993 0 -0.54999985769 1.5 0 -0.49999985695 1.4499999993 0 
-0.49999985695 1.5 0 -0.4499998562 1.4499999993 0 -0.4499998562 1.5 0 
-0.39999985546 1.4499999993 0 -0.39999985546 1.5 0 -0.34999985471 1.4499999993 0 
-0.34999985471 1.5 0 -0.29999985397 1.4499999993 0 -0.29999985397 1.5 0 
-0.24999985322 1.4499999993 0 -0.24999985322 1.5 0 -0.19999985248 1.4499999993 0 
-0.19999985248 1.5 0 -0.14999985173 1.4499999993 0 -0.14999985173 1.5 0 
[...]
CELL_DATA 8990
FIELD FieldData 4
Water_Depth_m 1 8990 float
0.260007 0.260021 0.260034 0.260048 0.260061 0.260074 0.260087 0.260099 0.260111 
0.260123 0.260135 0.260146 0.260157 0.260168 0.260179 0.260189 0.2602 0.26021 
0.26022 0.26023 0.26024 0.260251 0.260261 0.260271 0.260282 0.260293 0.260303 
0.260314 0.260325 0.260336 0.260347 0.260358 0.260369 0.26038 0.260391 0.260402 
0.260413 0.260424 0.260435 0.260445 0.260456 0.260467 0.260477 0.260488 0.260498 
0.260509 0.260519 0.26053 0.260541 0.260552 0.260563 0.260574 0.260585 0.260597 
0.260609 0.260621 0.260633 0.260645 0.260658 0.26067 0.260683 0.260696 0.260709 
0.260721 0.260734 0.260747 0.260759 0.260772 0.260784 0.260796 0.260807 0.260819 
0.26083 0.260841 0.260852 0.260863 0.260873 0.260884 0.260894 0.260904 0.260915 
0.260925 0.260935 0.260945 0.260955 0.260965 0.260976 0.260986 0.260996 0.261007 
0.261017 0.261028 0.261038 0.261049 0.261059 0.26107 0.26108 0.261091 0.261101 
0.261112 0.261122 0.261133 0.261143 0.261154 0.261164 0.261175 0.261185 0.261196 
0.261206 0.261217 0.261228 0.261238 0.261249 0.26126 0.261271 0.261282 0.261293 
0.261305 0.261316 0.261327 0.261339 0.26135 0.261361 0.261373 0.261384 0.261396 
0.261407 0.261419 0.26143 0.261442 0.261453 0.261465 0.261476 0.261487 0.261499 
0.26151 0.261521 0.261532 0.261544 0.261555 0.261566 0.261577 0.261588 0.261599 
0.26161 0.261621 0.261632 0.261643 0.261654 0.261665 0.261676 0.261687 0.261697 
0.261708 0.261719 0.261729 0.26174 0.26175 0.261761 0.261771 0.261781 0.261791 
0.261801 0.261811 0.261821 0.261831 0.261841 0.26185 0.26186 0.26187 0.261879 
0.261888 0.261898 0.261907 0.261916 0.261925 0.261934 0.261943 0.261952 0.26196 
0.261969 0.261978 0.261986 0.261994 0.262003 0.262011 0.262019 0.262028 0.262036 
0.262044 0.262052 0.26206 0.262068 0.262076 0.262085 0.262095 0.262109 0.262149 
0.262445 0.264175 0.440763 0.440687 0.440644 0.440612 0.440585 0.440562 0.44054 
0.44052 0.440501 0.440483 0.440466 0.44045 0.440436 0.440422 0.440409 0.440398 
0.440387 0.440378 0.440369 0.440361 0.440354 0.440348 0.440342 0.440337 0.440333 
0.440329 0.440326 0.440324 0.440322 0.44032 0.440319 0.440318 0.440317 0.440317 
0.440317 0.440317 0.440317 0.440318 0.440319 0.44032 0.440321 0.440322 0.440324 
0.440325 0.440327 0.440329 0.440331 0.440333 0.440334 0.440336 0.440339 0.440341 
0.440343 0.440345 0.440347 0.44035 0.440352 0.440354 0.440357 0.440359 0.440361 
0.440364 0.440366 0.440369 0.440371 0.440374 0.440376 0.440378 0.440381 0.440383 
0.440386 0.440388 0.440391 0.440393 0.440396 0.440398 0.440401 0.440403 0.440406 
0.440409 0.440411 0.440414 0.440416 0.440419 0.440421 0.440424 0.440426 0.440429 
0.440431 0.440434 0.440436 0.440439 0.440441 0.440444 0.440447 0.440449 0.440441 
0.440441 0.435356 0.260007 0.260021 0.260034 0.260048 0.260061 0.260074 0.260087 
0.260099 0.260111 0.260123 0.260135 0.260146 0.260157 0.260168 0.260179 0.260189 
0.2602 0.26021 0.26022 0.26023 0.26024 0.260251 0.260261 0.260271 0.260282 
0.260293 0.260303 0.260314 0.260325 0.260336 0.260347 0.260358 0.260369 0.26038 
0.260391 0.260402 0.260413 0.260424 0.260435 0.260445 0.260456 0.260467 0.260477 
0.260488 0.260498 0.260509 0.260519 0.26053 0.260541 0.260551 0.260562 0.260574 
0.260585 0.260597 0.260608 0.26062 0.260633 0.260645 0.260658 0.26067 0.260683 
0.260696 0.260709 0.260721 0.260734 0.260747 0.260759 0.260772 0.260784 0.260796 
0.260807 0.260819 0.26083 0.260841 0.260852 0.260863 0.260873 0.260884 0.260894 
0.260904 0.260915 0.260925 0.260935 0.260945 0.260955 0.260965 0.260976 0.260986 
0.260996 0.261007 0.261017 0.261028 0.261038 0.261049 0.261059 0.26107 0.26108 
0.261091 0.261101 0.261112 0.261122 0.261133 0.261143 0.261154 0.261164 0.261175 
0.261185 0.261196 0.261206 0.261217 0.261228 0.261238 0.261249 0.26126 0.261271 
0.261282 0.261293 0.261305 0.261316 0.261327 0.261339 0.26135 0.261361 0.261373 
0.261384 0.261396 0.261407 0.261419 0.26143 0.261442 0.261453 0.261465 0.261476 
0.261487 0.261499 0.26151 0.261521 0.261532 0.261544 0.261555 0.261566 0.261577 
0.261588 0.261599 0.26161 0.261621 0.261632 0.261643 0.261654 0.261665 0.261676 
0.261687 0.261697 0.261708 0.261719 0.261729 0.26174 0.26175 0.261761 0.261771 
0.261781 0.261791 0.261801 0.261811 0.261821 0.261831 0.261841 0.26185 0.26186 
0.261869 0.261879 0.261888 0.261898 0.261907 0.261916 0.261925 0.261934 0.261943 
0.261952 0.26196 0.261969 0.261978 0.261986 0.261994 0.262003 0.262011 0.262019 
0.262028 0.262036 0.262044 0.262052 0.26206 0.262068 0.262076 0.262084 0.262092 
0.262102 0.262129 0.262473 0.264277 0.440686 0.440656 0.44063 0.440606 0.440582 
0.44056 0.440539 0.440518 0.440499 0.440482 0.440465 0.440449 0.440434 0.440421 
0.440408 0.440397 0.440386 0.440377 0.440368 0.44036 0.440353 0.440347 0.440341 
0.440337 0.440332 0.440329 0.440326 0.440323 0.440321 0.44032 0.440318 0.440317 
0.440317 0.440316 0.440316 0.440317 0.440317 0.440318 0.440319 0.44032 0.440321 
0.440322 0.440324 0.440325 0.440327 0.440329 0.440331 0.440332 0.440334 0.440336 
0.440339 0.440341 0.440343 0.440345 0.440347 0.44035 0.440352 0.440354 0.440357 
0.440359 0.440361 0.440364 0.440366 0.440369 0.440371 0.440373 0.440376 0.440378 
0.440381 0.440383 0.440386 0.440388 0.440391 0.440393 0.440396 0.440398 0.440401 
0.440403 0.440406 0.440408 0.440411 0.440414 0.440416 0.440419 0.440421 0.440424 
0.440426 0.440429 0.440431 0.440434 0.440436 0.440439 0.440441 0.440444 0.440447 
0.440449 0.440441 0.440441 0.435356 0.260007 0.260021 0.260035 0.260048 0.260062 
0.260075 0.260087 0.2601 0.260112 0.260124 0.260136 0.260147 0.260158 0.260169 
0.260179 0.26019 0.2602 0.26021 0.26022 0.260231 0.260241 0.260251 0.260261 
0.260272 0.260282 0.260293 0.260303 0.260314 0.260325 0.260336 0.260347 0.260358 
0.26037 0.260381 0.260392 0.260403 0.260414 0.260425 0.260435 0.260446 0.260457 
0.260467 0.260478 0.260488 0.260499 0.260509 0.260519 0.26053 0.260541 0.260551 
0.260562 0.260574 0.260585 0.260597 0.260608 0.26062 0.260633 0.260645 0.260658 
0.26067 0.260683 0.260696 0.260709 0.260722 0.260735 0.260747 0.26076 0.260772 
0.260784 0.260796 0.260808 0.26082 0.260831 0.260842 0.260853 0.260863 0.260874 
0.260884 0.260895 0.260905 0.260915 0.260925 0.260935 0.260945 0.260955 0.260965 
0.260976 0.260986 0.260996 0.261007 0.261017 0.261028 0.261038 0.261049 0.261059 
0.26107 0.261081 0.261091 0.261102 0.261112 0.261123 0.261133 0.261144 0.261154 
0.261164 0.261175 0.261185 0.261196 0.261206 0.261217 0.261228 0.261239 0.261249 
0.26126 0.261271 0.261282 0.261294 0.261305 0.261316 0.261328 0.261339 0.26135 
0.261362 0.261373 0.261385 0.261396 0.261408 0.261419 0.261431 0.261442 0.261454 
0.261465 0.261476 0.261488 0.261499 0.26151 0.261522 0.261533 0.261544 0.261555 
0.261566 0.261578 0.261589 0.2616 0.261611 0.261622 0.261633 0.261644 0.261655 
0.261665 0.261676 0.261687 0.261698 0.261709 0.261719 0.26173 0.26174 0.261751 
0.261761 0.261771 0.261782 0.261792 0.261802 0.261812 0.261822 0.261831 0.261841 
0.261851 0.26186 0.26187 0.261879 0.261889 0.261898 0.261907 0.261916 0.261925 
0.261934 0.261943 0.261952 0.261961 0.26197 0.261978 0.261987 0.261995 0.262003 
0.262012 0.26202 0.262028 0.262036 0.262044 0.262052 0.26206 0.262068 0.262076 
0.262083 0.26209 0.262099 0.262123 0.262522 0.264478 0.440562 0.44062 0.440615 
0.440598 0.440577 0.440556 0.440535 0.440516 0.440497 0.440479 0.440462 0.440447 
0.440432 0.440419 0.440406 0.440395 0.440384 0.440375 0.440366 0.440358 0.440352 
0.440345 0.44034 0.440335 0.440331 0.440328 0.440325 0.440322 0.44032 0.440319 
0.440318 0.440317 0.440316 0.440316 0.440316 0.440316 0.440317 0.440318 0.440318 
0.44032 0.440321 0.440322 0.440324 0.440325 0.440327 0.440329 0.44033 0.440332 
0.440334 0.440336 0.440338 0.440341 0.440343 0.440345 0.440347 0.44035 0.440352 
0.440354 0.440357 0.440359 0.440361 0.440364 0.440366 0.440369 0.440371 0.440373 
0.440376 0.440378 0.440381 0.440383 0.440386 0.440388 0.440391 0.440393 0.440396 
0.440398 0.440401 0.440403 0.440406 0.440408 0.440411 0.440414 0.440416 0.440419 
0.440421 0.440424 0.440426 0.440429 0.440431 0.440434 0.440436 0.440439 0.440441 
0.440444 0.440447 0.440449 0.440441 0.440441 0.435356 0.260007 0.260021 0.260035 
0.260048 0.260062 0.260075 0.260088 0.2601 0.260112 0.260124 0.260136 0.260147 
0.260158 0.260169 0.260179 0.26019 0.2602 0.26021 0.26022 0.26023 0.26024 
0.260251 0.260261 0.260271 0.260282 0.260292 0.260303 0.260314 0.260325 0.260336 
0.260347 0.260358 0.260369 0.260381 0.260392 0.260403 0.260414 0.260425 0.260436 
0.260446 0.260457 0.260467 0.260478 0.260488 0.260498 0.260509 0.260519 0.26053 
0.26054 0.260551 0.260562 0.260573 0.260584 0.260596 0.260608 0.26062 0.260632 
0.260645 0.260657 0.26067 0.260683 0.260696 0.260709 0.260722 0.260735 0.260748 
0.26076 0.260773 0.260785 0.260797 0.260808 0.26082 0.260831 0.260842 0.260853 
0.260864 0.260874 0.260884 0.260894 0.260905 0.260915 0.260925 0.260935 0.260945 
0.260955 0.260965 0.260975 0.260985 0.260996 0.261006 0.261017 0.261027 0.261038 
0.261048 0.261059 0.26107 0.26108 0.261091 0.261101 0.261112 0.261122 0.261133 
0.261143 0.261154 0.261164 0.261174 0.261185 0.261195 0.261206 0.261217 0.261227 
0.261238 0.261249 0.26126 0.261271 0.261282 0.261293 0.261304 0.261316 0.261327 
0.261339 0.26135 0.261361 0.261373 0.261384 0.261396 0.261407 0.261419 0.26143 
0.261442 0.261453 0.261465 0.261476 0.261488 0.261499 0.26151 0.261522 0.261533 
0.261544 0.261555 0.261566 0.261577 0.261588 0.261599 0.26161 0.261621 0.261632 
0.261643 0.261654 0.261665 0.261676 0.261687 0.261698 0.261708 0.261719 0.26173 
0.26174 0.26175 0.261761 0.261771 0.261781 0.261791 0.261801 0.261811 0.261821 
0.261831 0.261841 0.26185 0.26186 0.261869 0.261879 0.261888 0.261897 0.261907 
0.261916 0.261925 0.261934 0.261943 0.261952 0.26196 0.261969 0.261977 0.261986 
0.261994 0.262003 0.262011 0.262019 0.262028 0.262036 0.262044 0.262052 0.262059 
0.262067 0.262075 0.262082 0.262089 0.262098 0.262129 0.262486 0.26433 0.440685 
0.440639 0.440615 0.440594 0.440573 0.440552 0.440531 0.440512 0.440493 0.440475 
0.440459 0.440443 0.440429 0.440415 0.440403 0.440391 0.440381 0.440372 0.440363 
0.440356 0.440349 0.440343 0.440338 0.440333 0.440329 0.440326 0.440323 0.440321 
0.440319 0.440318 0.440316 0.440316 0.440315 0.440315 0.440315 0.440316 0.440316 
0.440317 0.440318 0.440319 0.44032 0.440322 0.440323 0.440325 0.440327 0.440328 
0.44033 0.440332 0.440334 0.440336 0.440338 0.44034 0.440343 0.440345 0.440347 
0.440349 0.440352 0.440354 0.440356 0.440359 0.440361 0.440364 0.440366 0.440369 
0.440371 0.440373 0.440376 0.440378 0.440381 0.440383 0.440386 0.440388 0.440391 
0.440393 0.440396 0.440398 0.440401 0.440403 0.440406 0.440408 0.440411 0.440414 
0.440416 0.440419 0.440421 0.440424 0.440426 0.440429 0.440431 0.440434 0.440436 
0.440439 0.440441 0.440444 0.440447 0.440449 0.440441 0.440441 0.435356 0.260007 
0.260021 0.260035 0.260049 0.260062 0.260076 0.260089 0.260101 0.260113 0.260125 
0.260137 0.260148 0.260159 0.260169 0.26018 0.26019 0.2602 0.26021 0.26022 
0.26023 0.26024 0.26025 0.260261 0.260271 0.260281 0.260292 0.260303 0.260314 
0.260325 0.260336 0.260347 0.260358 0.26037 0.260381 0.260392 0.260403 0.260414 
0.260425 0.260436 0.260447 0.260457 0.260468 0.260478 0.260488 0.260498 0.260509 
0.260519 0.260529 0.26054 0.26055 0.260561 0.260572 0.260583 0.260595 0.260607 
0.260619 0.260631 0.260644 0.260657 0.26067 0.260683 0.260696 0.260709 0.260722 
0.260735 0.260748 0.260761 0.260773 0.260785 0.260797 0.260809 0.260821 0.260832 
0.260843 0.260853 0.260864 0.260874 0.260885 0.260895 0.260905 0.260915 0.260924 
0.260934 0.260944 0.260954 0.260965 0.260975 0.260985 0.260996 0.261006 0.261017 
0.261027 0.261038 0.261048 0.261059 0.26107 0.26108 0.261091 0.261102 0.261112 
0.261122 0.261133 0.261143 0.261154 0.261164 0.261174 0.261185 0.261195 0.261206 
0.261216 0.261227 0.261238 0.261249 0.26126 0.261271 0.261282 0.261293 0.261304 
0.261316 0.261327 0.261338 0.26135 0.261361 0.261373 0.261385 0.261396 0.261408 
0.261419 0.261431 0.261442 0.261454 0.261465 0.261477 0.261488 0.261499 0.261511 
0.261522 0.261533 0.261544 0.261555 0.261566 0.261578 0.261589 0.2616 0.261611 
0.261622 0.261633 0.261644 0.261654 0.261665 0.261676 0.261687 0.261698 0.261709 
0.261719 0.26173 0.26174 0.261751 0.261761 0.261771 0.261781 0.261791 0.261801 
0.261811 0.261821 0.261831 0.261841 0.26185 0.26186 0.261869 0.261879 0.261888 
0.261897 0.261907 0.261916 0.261925 0.261934 0.261943 0.261952 0.26196 0.261969 
0.261978 0.261986 0.261995 0.262003 0.262011 0.26202 0.262028 0.262036 0.262044 
0.262052 0.26206 0.262067 0.262075 0.262082 0.26209 0.2621 0.262134 0.262489 
0.264311 0.440677 0.440635 0.44061 0.440589 0.440567 0.440547 0.440526 0.440507 
0.440488 0.44047 0.440454 0.440438 0.440424 0.440411 0.440398 0.440387 0.440377 
0.440368 0.44036 0.440352 0.440346 0.44034 0.440335 0.440331 0.440327 0.440324 
0.440321 0.440319 0.440317 0.440316 0.440315 0.440314 0.440314 0.440314 0.440314 
0.440315 0.440315 0.440316 0.440317 0.440318 0.44032 0.440321 0.440323 0.440324 
0.440326 0.440328 0.44033 0.440332 0.440334 0.440336 0.440338 0.44034 0.440342 
0.440345 0.440347 0.440349 0.440352 0.440354 0.440356 0.440359 0.440361 0.440364 
0.440366 0.440368 0.440371 0.440373 0.440376 0.440378 0.440381 0.440383 0.440386 
0.440388 0.440391 0.440393 0.440396 0.440398 0.440401 0.440403 0.440406 0.440408 
0.440411 0.440414 0.440416 0.440419 0.440421 0.440424 0.440426 0.440429 0.440431 
0.440434 0.440436 0.440439 0.440441 0.440444 0.440447 0.440449 0.440441 0.440441 
0.435356 0.260007 0.260022 0.260036 0.26005 0.260063 0.260077 0.26009 0.260102 
0.260115 0.260127 0.260138 0.260149 0.26016 0.260171 0.260181 0.260191 0.260201 
0.260211 0.260221 0.260231 0.260241 0.260251 0.260261 0.260271 0.260282 0.260292 
0.260303 0.260314 0.260325 0.260336 0.260348 0.260359 0.260371 0.260382 0.260393 
0.260405 0.260416 0.260427 0.260437 0.260448 0.260458 0.260469 0.260479 0.260489 
0.260499 0.260509 0.260519 0.260529 0.260539 0.26055 0.26056 0.260571 0.260583 
0.260594 0.260606 0.260618 0.260631 0.260643 0.260656 0.260669 0.260682 0.260696 
0.260709 0.260722 0.260736 0.260749 0.260761 0.260774 0.260786 0.260799 0.26081 
0.260822 0.260833 0.260844 0.260854 0.260865 0.260875 0.260885 0.260895 0.260905 
0.260915 0.260925 0.260935 0.260944 0.260954 0.260965 0.260975 0.260985 0.260995 
0.261006 0.261017 0.261027 0.261038 0.261049 0.261059 0.26107 0.261081 0.261092 
0.261102 0.261113 0.261123 0.261133 0.261144 0.261154 0.261164 0.261175 0.261185 
0.261195 0.261206 0.261216 0.261227 0.261238 0.261249 0.26126 0.261271 0.261282 
0.261293 0.261304 0.261316 0.261327 0.261339 0.26135 0.261362 0.261373 0.261385 
0.261397 0.261408 0.26142 0.261431 0.261443 0.261454 0.261466 0.261477 0.261489 
0.2615 0.261511 0.261523 0.261534 0.261545 0.261556 0.261567 0.261578 0.261589 
0.2616 0.261611 0.261622 0.261633 0.261644 0.261655 0.261666 0.261677 0.261688 
0.261699 0.261709 0.26172 0.261731 0.261741 0.261751 0.261762 0.261772 0.261782 
0.261792 0.261802 0.261812 0.261822 0.261831 0.261841 0.261851 0.26186 0.26187 
0.261879 0.261889 0.261898 0.261907 0.261916 0.261925 0.261934 0.261943 0.261952 
0.261961 0.26197 0.261978 0.261987 0.261995 0.262004 0.262012 0.26202 0.262029 
0.262037 0.262045 0.262053 0.26206 0.262068 0.262076 0.262083 0.262091 0.262103 
0.262136 0.262525 0.264449 0.440577 0.440612 0.440602 0.440582 0.440562 0.440541 
0.44052 0.4405 0.440482 0.440464 0.440448 0.440432 0.440418 0.440405 0.440393 
0.440382 0.440372 0.440363 0.440355 0.440348 0.440342 0.440337 0.440332 0.440328 
0.440324 0.440321 0.440319 0.440317 0.440315 0.440314 0.440313 0.440313 0.440313 
0.440313 0.440313 0.440314 0.440314 0.440315 0.440317 0.440318 0.440319 0.440321 
0.440322 0.440324 0.440326 0.440328 0.44033 0.440332 0.440334 0.440336 0.440338 
0.44034 0.440342 0.440345 0.440347 0.440349 0.440352 0.440354 0.440356 0.440359 
0.440361 0.440364 0.440366 0.440368 0.440371 0.440373 0.440376 0.440378 0.440381 
0.440383 0.440386 0.440388 0.440391 0.440393 0.440396 0.440398 0.440401 0.440403 
0.440406 0.440408 0.440411 0.440414 0.440416 0.440419 0.440421 0.440424 0.440426 
0.440429 0.440431 0.440434 0.440436 0.440439 0.440441 0.440444 0.440447 0.440449 
0.440441 0.440441 0.435356 0.260007 0.260022 0.260036 0.26005 0.260064 0.260078 
0.260091 0.260104 0.260116 0.260128 0.260139 0.26015 0.260161 0.260171 0.260181 
0.260191 0.260201 0.260211 0.26022 0.26023 0.26024 0.26025 0.26026 0.26027 
0.260281 0.260291 0.260302 0.260313 0.260325 0.260336 0.260348 0.260359 0.260371 
0.260382 0.260394 0.260405 0.260416 0.260427 0.260438 0.260449 0.260459 0.260469 
0.260479 0.260489 0.260499 0.260509 0.260519 0.260529 0.260539 0.260549 0.260559 
0.26057 0.260581 0.260593 0.260605 0.260617 0.260629 0.260642 0.260655 0.260669 
0.260682 0.260696 0.260709 0.260723 0.260736 0.260749 0.260762 0.260775 0.260788 
0.2608 0.260811 0.260823 0.260834 0.260845 0.260855 0.260865 0.260876 0.260885 
0.260895 0.260905 0.260915 0.260924 0.260934 0.260944 0.260954 0.260964 0.260974 
0.260984 0.260995 0.261005 0.261016 0.261027 0.261037 0.261048 0.261059 0.26107 
0.261081 0.261091 0.261102 0.261112 0.261123 0.261133 0.261143 0.261154 0.261164 
0.261174 0.261184 0.261195 0.261205 0.261216 0.261226 0.261237 0.261248 0.261259 
0.26127 0.261281 0.261292 0.261304 0.261315 0.261327 0.261338 0.26135 0.261361 
0.261373 0.261385 0.261396 0.261408 0.26142 0.261431 0.261443 0.261454 0.261466 
0.261477 0.261489 0.2615 0.261511 0.261523 0.261534 0.261545 0.261556 0.261567 
0.261578 0.261589 0.2616 0.261611 0.261622 0.261633 0.261644 0.261655 0.261666 
0.261677 0.261688 0.261698 0.261709 0.26172 0.26173 0.261741 0.261751 0.261761 
0.261772 0.261782 0.261792 0.261801 0.261811 0.261821 0.261831 0.26184 0.26185 
0.261859 0.261869 0.261878 0.261888 0.261897 0.261906 0.261916 0.261925 0.261934 
0.261943 0.261951 0.26196 0.261969 0.261977 0.261986 0.261995 0.262003 0.262011 
0.26202 0.262028 0.262036 0.262044 0.262052 0.26206 0.262067 0.262075 0.262082 
0.26209 0.2621 0.262134 0.262481 0.264293 0.4407 0.440635 0.440603 0.440578 
0.440556 0.440534 0.440513 0.440493 0.440474 0.440457 0.44044 0.440425 0.440411 
0.440398 0.440386 0.440376 0.440366 0.440358 0.44035 0.440343 0.440337 0.440332 
0.440328 0.440324 0.440321 0.440318 0.440316 0.440314 0.440313 0.440312 0.440311 
0.440311 0.440311 0.440311 0.440312 0.440312 0.440313 0.440314 0.440316 0.440317 
0.440318 0.44032 0.440322 0.440323 0.440325 0.440327 0.440329 0.440331 0.440333 
0.440335 0.440338 0.44034 0.440342 0.440344 0.440347 0.440349 0.440351 0.440354 
0.440356 0.440359 0.440361 0.440363 0.440366 0.440368 0.440371 0.440373 0.440376 
0.440378 0.440381 0.440383 0.440386 0.440388 0.440391 0.440393 0.440396 0.440398 
0.440401 0.440403 0.440406 0.440408 0.440411 0.440414 0.440416 0.440419 0.440421 
0.440424 0.440426 0.440429 0.440431 0.440434 0.440436 0.440439 0.440441 0.440444 
0.440447 0.440449 0.440441 0.440441 0.435356 0.260008 0.260022 0.260037 0.260051 
0.260066 0.260079 0.260092 0.260105 0.260118 0.260129 0.260141 0.260152 0.260162 
0.260172 0.260182 0.260192 0.260202 0.260211 0.26022 0.26023 0.26024 0.260249 
0.260259 0.260269 0.26028 0.260291 0.260302 0.260313 0.260324 0.260336 0.260348 
0.260359 0.260371 0.260383 0.260395 0.260406 0.260418 0.260429 0.260439 0.26045 
0.26046 0.26047 0.26048 0.26049 0.260499 0.260509 0.260518 0.260528 0.260538 
0.260548 0.260558 0.260568 0.260579 0.260591 0.260603 0.260615 0.260628 0.260641 
0.260654 0.260668 0.260682 0.260695 0.260709 0.260723 0.260737 0.26075 0.260763 
0.260776 0.260789 0.260801 0.260813 0.260824 0.260835 0.260846 0.260856 0.260866 
0.260876 0.260886 0.260896 0.260905 0.260914 0.260924 0.260934 0.260943 0.260953 
0.260963 0.260973 0.260983 0.260994 0.261005 0.261015 0.261026 0.261037 0.261048 
0.261059 0.26107 0.261081 0.261092 0.261102 0.261113 0.261123 0.261133 0.261144 
0.261154 0.261164 0.261174 0.261184 0.261194 0.261205 0.261215 0.261226 0.261236 
0.261247 0.261258 0.261269 0.261281 0.261292 0.261303 0.261315 0.261327 0.261338 