# vtk DataFile Version 5.1
vtk output
ASCII
DATASET UNSTRUCTURED_GRID
POINTS 693 double
0.1016 1.5 0 0.1016 1.3125 0 0.1016 1.125 0 
0.1016 0.9375 0 0.1016 0.75 0 0.1016 0.5625 0 
0.1016 0.375 0 0.1016 0.1875 0 0.1016 0 0 
5.08 1.5 0 5.08 1.3125 0 5.08 1.125 0 
5.08 0.9375 0 5.08 0.75 0 5.08 0.5625 0 
5.08 0.375 0 5.08 0.1875 0 5.08 0 0 
0.300736 1.5 0 0.300736 1.3125 0 0.300736 1.125 0 
0.300736 0.9375 0 0.300736 0.75 0 0.300736 0.5625 0 
0.300736 0.375 0 0.300736 0.1875 0 0.300736 0 0 
0.499872 1.5 0 0.499872 1.3125 0 0.499872 1.125 0 
0.499872 0.9375 0 0.499872 0.75 0 0.499872 0.5625 0 
0.499872 0.375 0 0.499872 0.1875 0 0.499872 0 0 
0.699008 1.5 0 0.699008 1.3125 0 0.699008 1.125 0 
0.699008 0.9375 0 0.699008 0.75 0 0.699008 0.5625 0 
0.699008 0.375 0 0.699008 0.1875 0 0.699008 0 0 
0.898144 1.5 0 0.898144 1.3125 0 0.898144 1.125 0 
0.898144 0.9375 0 0.898144 0.75 0 0.898144 0.5625 0 
0.898144 0.375 0 0.898144 0.1875 0 0.898144 0 0 
1.09728 1.5 0 1.09728 1.3125 0 1.09728 1.125 0 
1.09728 0.9375 0 1.09728 0.75 0 1.09728 0.5625 0 
1.09728 0.375 0 1.09728 0.1875 0 1.09728 0 0 
1.296416 1.5 0 1.296416 1.3125 0 1.296416 1.125 0 
1.296416 0.9375 0 1.296416 0.75 0 1.296416 0.5625 0 
1.296416 0.375 0 1.296416 0.1875 0 1.296416 0 0 
1.495552 1.5 0 1.495552 1.3125 0 1.495552 1.125 0 
1.495552 0.9375 0 1.495552 0.75 0 1.495552 0.5625 0 
1.495552 0.375 0 1.495552 0.1875 0 1.495552 0 0 
1.694688 1.5 0 1.694688 1.3125 0 1.694688 1.125 0 
1.694688 0.9375 0 1.694688 0.75 0 1.694688 0.5625 0 
1.694688 0.375 0 1.694688 0.1875 0 1.694688 0 0 
1.893824 1.5 0 1.893824 1.3125 0 1.893824 1.125 0 
1.893824 0.9375 0 1.893824 0.75 0 1.893824 0.5625 0 
1.893824 0.375 0 1.893824 0.1875 0 1.893824 0 0 
2.09296 1.5 0 2.09296 1.3125 0 2.09296 1.125 0 
2.09296 0.9375 0 2.09296 0.75 0 2.09296 0.5625 0 
2.09296 0.375 0 2.09296 0.1875 0 2.09296 0 0 
2.292096 1.5 0 2.292096 1.3125 0 2.292096 1.125 0 
2.292096 0.9375 0 2.292096 0.75 0 2.292096 0.5625 0 
2.292096 0.375 0 2.292096 0.1875 0 2.292096 0 0 
2.491232 1.5 0 2.491232 1.3125 0 2.491232 1.125 0 
2.491232 0.9375 0 2.491232 0.75 0 2.491232 0.5625 0 
2.491232 0.375 0 2.491232 0.1875 0 2.491232 0 0 
2.690368 1.5 0 2.690368 1.3125 0 2.690368 1.125 0 
2.690368 0.9375 0 2.690368 0.75 0 2.690368 0.5625 0 
2.690368 0.375 0 2.690368 0.1875 0 2.690368 0 0 
2.889504 1.5 0 2.889504 1.3125 0 2.889504 1.125 0 
2.889504 0.9375 0 2.889504 0.75 0 2.889504 0.5625 0 
2.889504 0.375 0 2.889504 0.1875 0 2.889504 0 0 
3.08864 1.5 0 3.08864 1.3125 0 3.08864 1.125 0 
3.08864 0.9375 0 3.08864 0.75 0 3.08864 0.5625 0 
3.08864 0.375 0 3.08864 0.1875 0 3.08864 0 0 
3.287776 1.5 0 3.287776 1.3125 0 3.287776 1.125 0 
3.287776 0.9375 0 3.287776 0.75 0 3.287776 0.5625 0 
3.287776 0.375 0 3.287776 0.1875 0 3.287776 0 0 
3.486912 1.5 0 3.486912 1.3125 0 3.486912 1.125 0 
3.486912 0.9375 0 3.486912 0.75 0 3.486912 0.5625 0 
3.486912 0.375 0 3.486912 0.1875 0 3.486912 0 0 
3.686048 1.5 0 3.686048 1.3125 0 3.686048 1.125 0 
3.686048 0.9375 0 3.686048 0.75 0 3.686048 0.5625 0 
3.686048 0.375 0 3.686048 0.1875 0 3.686048 0 0 
3.885184 1.5 0 3.885184 1.3125 0 3.885184 1.125 0 
3.885184 0.9375 0 3.885184 0.75 0 3.885184 0.5625 0 
3.885184 0.375 0 3.885184 0.1875 0 3.885184 0 0 
4.08432 1.5 0 4.08432 1.3125 0 4.08432 1.125 0 
4.08432 0.9375 0 4.08432 0.75 0 4.08432 0.5625 0 
4.08432 0.375 0 4.08432 0.1875 0 4.08432 0 0 
4.283456 1.5 0 4.283456 1.3125 0 4.283456 1.125 0 
4.283456 0.9375 0 4.283456 0.75 0 4.283456 0.5625 0 
4.283456 0.375 0 4.283456 0.1875 0 4.283456 0 0 
4.482592 1.5 0 4.482592 1.3125 0 4.482592 1.125 0 
4.482592 0.9375 0 4.482592 0.75 0 4.482592 0.5625 0 
4.482592 0.375 0 4.482592 0.1875 0 4.482592 0 0 
4.681728 1.5 0 4.681728 1.3125 0 4.681728 1.125 0 
4.681728 0.9375 0 4.681728 0.75 0 4.681728 0.5625 0 
4.681728 0.375 0 4.681728 0.1875 0 4.681728 0 0 
4.880864 1.5 0 4.880864 1.3125 0 4.880864 1.125 0 
4.880864 0.9375 0 4.880864 0.75 0 4.880864 0.5625 0 
4.880864 0.375 0 4.880864 0.1875 0 4.880864 0 0 
-0.1 1.5 0 -0.1 1.3125 0 -0.1 1.125 0 
-0.1 0.9375 0 -0.1 0.75 0 -0.1 0.5625 0 
-0.1 0.375 0 -0.1 0.1875 0 -0.1 0 0 
-10.16 1.5 0 -10.16 1.3125 0 -10.16 1.125 0 
-10.16 0.9375 0 -10.16 0.75 0 -10.16 0.5625 0 
-10.16 0.375 0 -10.16 0.1875 0 -10.16 0 0 
-9.9588 1.5 0 -9.9588 1.3125 0 -9.9588 1.125 0 
-9.9588 0.9375 0 -9.9588 0.75 0 -9.9588 0.5625 0 
-9.9588 0.375 0 -9.9588 0.1875 0 -9.9588 0 0 
-9.7576 1.5 0 -9.7576 1.3125 0 -9.7576 1.125 0 
-9.7576 0.9375 0 -9.7576 0.75 0 -9.7576 0.5625 0 
-9.7576 0.375 0 -9.7576 0.1875 0 -9.7576 0 0 
-9.5564 1.5 0 -9.5564 1.3125 0 -9.5564 1.125 0 
-9.5564 0.9375 0 -9.5564 0.75 0 -9.5564 0.5625 0 
-9.5564 0.375 0 -9.5564 0.1875 0 -9.5564 0 0 
-9.3552 1.5 0 -9.3552 1.3125 0 -9.3552 1.125 0 
-9.3552 0.9375 0 -9.3552 0.75 0 -9.3552 0.5625 0 
-9.3552 0.375 0 -9.3552 0.1875 0 -9.3552 0 0 
-9.154 1.5 0 -9.154 1.3125 0 -9.154 1.125 0 
-9.154 0.9375 0 -9.154 0.75 0 -9.154 0.5625 0 
-9.154 0.375 0 -9.154 0.1875 0 -9.154 0 0 
-8.9528 1.5 0 -8.9528 1.3125 0 -8.9528 1.125 0 
-8.9528 0.9375 0 -8.9528 0.75 0 -8.9528 0.5625 0 
-8.9528 0.375 0 -8.9528 0.1875 0 -8.9528 0 0 
-8.7516 1.5 0 -8.7516 1.3125 0 -8.7516 1.125 0 
-8.7516 0.9375 0 -8.7516 0.75 0 -8.7516 0.5625 0 
-8.7516 0.375 0 -8.7516 0.1875 0 -8.7516 0 0 
-8.5504 1.5 0 -8.5504 1.3125 0 -8.5504 1.125 0 
-8.5504 0.9375 0 -8.5504 0.75 0 -8.5504 0.5625 0 
-8.5504 0.375 0 -8.5504 0.1875 0 -8.5504 0 0 
-8.3492 1.5 0 -8.3492 1.3125 0 -8.3492 1.125 0 
-8.3492 0.9375 0 -8.3492 0.75 0 -8.3492 0.5625 0 
-8.3492 0.375 0 -8.3492 0.1875 0 -8.3492 0 0 
-8.148 1.5 0 -8.148 1.3125 0 -8.148 1.125 0 
-8.148 0.9375 0 -8.148 0.75 0 -8.148 0.5625 0 
-8.148 0.375 0 -8.148 0.1875 0 -8.148 0 0 
-7.9468 1.5 0 -7.9468 1.3125 0 -7.9468 1.125 0 
-7.9468 0.9375 0 -7.9468 0.75 0 -7.9468 0.5625 0 
-7.9468 0.375 0 -7.9468 0.1875 0 -7.9468 0 0 
-7.7456 1.5 0 -7.7456 1.3125 0 -7.7456 1.125 0 
-7.7456 0.9375 0 -7.7456 0.75 0 -7.7456 0.5625 0 
-7.7456 0.375 0 -7.7456 0.1875 0 -7.7456 0 0 
-7.5444 1.5 0 -7.5444 1.3125 0 -7.5444 1.125 0 
-7.5444 0.9375 0 -7.5444 0.75 0 -7.5444 0.5625 0 
-7.5444 0.375 0 -7.5444 0.1875 0 -7.5444 0 0 
-7.3432 1.5 0 -7.3432 1.3125 0 -7.3432 1.125 0 
-7.3432 0.9375 0 -7.3432 0.75 0 -7.3432 0.5625 0 
-7.3432 0.375 0 -7.3432 0.1875 0 -7.3432 0 0 
-7.142 1.5 0 -7.142 1.3125 0 -7.142 1.125 0 
-7.142 0.9375 0 -7.142 0.75 0 -7.142 0.5625 0 
-7.142 0.375 0 -7.142 0.1875 0 -7.142 0 0 
-6.9408 1.5 0 -6.9408 1.3125 0 -6.9408 1.125 0 
-6.9408 0.9375 0 -6.9408 0.75 0 -6.9408 0.5625 0 
-6.9408 0.375 0 -6.9408 0.1875 0 -6.9408 0 0 
-6.7396 1.5 0 -6.7396 1.3125 0 -6.7396 1.125 0 
-6.7396 0.9375 0 -6.7396 0.75 0 -6.7396 0.5625 0 
-6.7396 0.375 0 -6.7396 0.1875 0 -6.7396 0 0 
-6.5384 1.5 0 -6.5384 1.3125 0 -6.5384 1.125 0 
-6.5384 0.9375 0 -6.5384 0.75 0 -6.5384 0.5625 0 
-6.5384 0.375 0 -6.5384 0.1875 0 -6.5384 0 0 
-6.3372 1.5 0 -6.3372 1.3125 0 -6.3372 1.125 0 
-6.3372 0.9375 0 -6.3372 0.75 0 -6.3372 0.5625 0 
-6.3372 0.375 0 -6.3372 0.1875 0 -6.3372 0 0 
-6.136 1.5 0 -6.136 1.3125 0 -6.136 1.125 0 
-6.136 0.9375 0 -6.136 0.75 0 -6.136 0.5625 0 
-6.136 0.375 0 -6.136 0.1875 0 -6.136 0 0 
-5.9348 1.5 0 -5.9348 1.3125 0 -5.9348 1.125 0 
-5.9348 0.9375 0 -5.9348 0.75 0 -5.9348 0.5625 0 
-5.9348 0.375 0 -5.9348 0.1875 0 -5.9348 0 0 
-5.7336 1.5 0 -5.7336 1.3125 0 -5.7336 1.125 0 
-5.7336 0.9375 0 -5.7336 0.75 0 -5.7336 0.5625 0 
-5.7336 0.375 0 -5.7336 0.1875 0 -5.7336 0 0 
-5.5324 1.5 0 -5.5324 1.3125 0 -5.5324 1.125 0 
-5.5324 0.9375 0 -5.5324 0.75 0 -5.5324 0.5625 0 
-5.5324 0.375 0 -5.5324 0.1875 0 -5.5324 0 0 
-5.3312 1.5 0 -5.3312 1.3125 0 -5.3312 1.125 0 
-5.3312 0.9375 0 -5.3312 0.75 0 -5.3312 0.5625 0 
-5.3312 0.375 0 -5.3312 0.1875 0 -5.3312 0 0 
-5.13 1.5 0 -5.13 1.3125 0 -5.13 1.125 0 
-5.13 0.9375 0 -5.13 0.75 0 -5.13 0.5625 0 
-5.13 0.375 0 -5.13 0.1875 0 -5.13 0 0 
-4.9288 1.5 0 -4.9288 1.3125 0 -4.9288 1.125 0 
-4.9288 0.9375 0 -4.9288 0.75 0 -4.9288 0.5625 0 
-4.9288 0.375 0 -4.9288 0.1875 0 -4.9288 0 0 
-4.7276 1.5 0 -4.7276 1.3125 0 -4.7276 1.125 0 
-4.7276 0.9375 0 -4.7276 0.75 0 -4.7276 0.5625 0 
-4.7276 0.375 0 -4.7276 0.1875 0 -4.7276 0 0 
-4.5264 1.5 0 -4.5264 1.3125 0 -4.5264 1.125 0 
-4.5264 0.9375 0 -4.5264 0.75 0 -4.5264 0.5625 0 
-4.5264 0.375 0 -4.5264 0.1875 0 -4.5264 0 0 
-4.3252 1.5 0 -4.3252 1.3125 0 -4.3252 1.125 0 
-4.3252 0.9375 0 -4.3252 0.75 0 -4.3252 0.5625 0 
-4.3252 0.375 0 -4.3252 0.1875 0 -4.3252 0 0 
-4.124 1.5 0 -4.124 1.3125 0 -4.124 1.125 0 
-4.124 0.9375 0 -4.124 0.75 0 -4.124 0.5625 0 
-4.124 0.375 0 -4.124 0.1875 0 -4.124 0 0 
-3.9228 1.5 0 -3.9228 1.3125 0 -3.9228 1.125 0 
-3.9228 0.9375 0 -3.9228 0.75 0 -3.9228 0.5625 0 
-3.9228 0.375 0 -3.9228 0.1875 0 -3.9228 0 0 
-3.7216 1.5 0 -3.7216 1.3125 0 -3.7216 1.125 0 
-3.7216 0.9375 0 -3.7216 0.75 0 -3.7216 0.5625 0 
-3.7216 0.375 0 -3.7216 0.1875 0 -3.7216 0 0 
-3.5204 1.5 0 -3.5204 1.3125 0 -3.5204 1.125 0 
-3.5204 0.9375 0 -3.5204 0.75 0 -3.5204 0.5625 0 
-3.5204 0.375 0 -3.5204 0.1875 0 -3.5204 0 0 
-3.3192 1.5 0 -3.3192 1.3125 0 -3.3192 1.125 0 
-3.3192 0.9375 0 -3.3192 0.75 0 -3.3192 0.5625 0 
-3.3192 0.375 0 -3.3192 0.1875 0 -3.3192 0 0 
-3.118 1.5 0 -3.118 1.3125 0 -3.118 1.125 0 
-3.118 0.9375 0 -3.118 0.75 0 -3.118 0.5625 0 
-3.118 0.375 0 -3.118 0.1875 0 -3.118 0 0 
-2.9168 1.5 0 -2.9168 1.3125 0 -2.9168 1.125 0 
-2.9168 0.9375 0 -2.9168 0.75 0 -2.9168 0.5625 0 
-2.9168 0.375 0 -2.9168 0.1875 0 -2.9168 0 0 
-2.7156 1.5 0 -2.7156 1.3125 0 -2.7156 1.125 0 
-2.7156 0.9375 0 -2.7156 0.75 0 -2.7156 0.5625 0 
-2.7156 0.375 0 -2.7156 0.1875 0 -2.7156 0 0 
-2.5144 1.5 0 -2.5144 1.3125 0 -2.5144 1.125 0 
-2.5144 0.9375 0 -2.5144 0.75 0 -2.5144 0.5625 0 
-2.5144 0.375 0 -2.5144 0.1875 0 -2.5144 0 0 
-2.3132 1.5 0 -2.3132 1.3125 0 -2.3132 1.125 0 
-2.3132 0.9375 0 -2.3132 0.75 0 -2.3132 0.5625 0 
-2.3132 0.375 0 -2.3132 0.1875 0 -2.3132 0 0 
-2.112 1.5 0 -2.112 1.3125 0 -2.112 1.125 0 
-2.112 0.9375 0 -2.112 0.75 0 -2.112 0.5625 0 
-2.112 0.375 0 -2.112 0.1875 0 -2.112 0 0 
-1.9108 1.5 0 -1.9108 1.3125 0 -1.9108 1.125 0 
[...]
CELL_DATA 608
FIELD FieldData 7
B_Stress_n_p_m2 1 608 float
1.47618 1.47473 1.47621 1.47688 1.47688 1.47621 1.47473 1.47618 0.38729 
0.394031 0.396727 0.397603 0.397603 0.396727 0.394031 0.38729 0.483458 0.49609 
0.501139 0.502792 0.502792 0.501139 0.49609 0.483458 0.477322 0.489177 0.494455 
0.496314 0.496314 0.494455 0.489177 0.477322 0.477024 0.489012 0.494462 0.496401 
0.496401 0.494462 0.489012 0.477024 0.477054 0.48893 0.49433 0.496241 0.496241 
0.49433 0.48893 0.477054 0.477125 0.488837 0.49409 0.495919 0.495919 0.49409 
0.488837 0.477125 0.477264 0.488779 0.493831 0.495549 0.495549 0.493831 0.488779 
0.477264 0.477443 0.488735 0.493552 0.495141 0.495141 0.493552 0.488735 0.477443 
0.477655 0.488699 0.493257 0.494708 0.494708 0.493257 0.488699 0.477655 0.477897 
0.488669 0.492948 0.494254 0.494254 0.492948 0.488669 0.477897 0.478171 0.48864 
0.492623 0.493781 0.493781 0.492623 0.48864 0.478171 0.478479 0.488613 0.492282 
0.49329 0.49329 0.492282 0.488613 0.478479 0.478823 0.488585 0.491924 0.492782 
0.492782 0.491924 0.488585 0.478823 0.479207 0.488553 0.491548 0.492256 0.492256 
0.491548 0.488553 0.479207 0.479635 0.488515 0.491151 0.491712 0.491712 0.491151 
0.488515 0.479635 0.480113 0.488467 0.490731 0.491151 0.491151 0.490731 0.488467 
0.480113 0.480647 0.488404 0.490288 0.490574 0.490574 0.490288 0.488404 0.480647 
0.481242 0.48832 0.489819 0.489982 0.489982 0.489819 0.48832 0.481242 0.481905 
0.488207 0.489325 0.489379 0.489379 0.489325 0.488207 0.481905 0.482642 0.488056 
0.488804 0.488769 0.488769 0.488804 0.488056 0.482642 0.483456 0.487852 0.488259 
0.488158 0.488158 0.488259 0.487852 0.483456 0.484348 0.487573 0.487682 0.48755 
0.48755 0.487682 0.487573 0.484348 0.485266 0.487209 0.487114 0.486998 0.486998 
0.487114 0.487209 0.485266 0.486015 0.486847 0.48672 0.486657 0.486657 0.48672 
0.486847 0.486015 0.00232323 0.00232671 0.00233026 0.00233159 0.00233159 0.00233026 0.00232671 
0.00232323 0.721617 0.744816 0.758382 0.764556 0.764556 0.758382 0.744816 0.721617 
0.720899 0.74406 0.757548 0.76368 0.76368 0.757548 0.74406 0.720899 0.720554 
0.743674 0.757105 0.7632 0.7632 0.757105 0.743674 0.720554 0.720177 0.743244 
0.756611 0.762664 0.762664 0.756611 0.743244 0.720177 0.719809 0.74282 0.756119 
0.762126 0.762126 0.756119 0.74282 0.719809 0.719446 0.742398 0.755625 0.761584 
0.761584 0.755625 0.742398 0.719446 0.71909 0.741979 0.75513 0.761038 0.761038 
0.75513 0.741979 0.71909 0.718739 0.741563 0.754634 0.760487 0.760487 0.754634 
0.741563 0.718739 0.718393 0.741149 0.754137 0.759933 0.759933 0.754137 0.741149 
0.718393 0.718054 0.740739 0.753638 0.759373 0.759373 0.753638 0.740739 0.718054 
0.717721 0.740332 0.753137 0.758809 0.758809 0.753137 0.740332 0.717721 0.717394 
0.739928 0.752635 0.75824 0.75824 0.752635 0.739928 0.717394 0.717075 0.739527 
0.752131 0.757665 0.757665 0.752131 0.739527 0.717075 0.716763 0.73913 0.751625 
0.757084 0.757084 0.751625 0.73913 0.716763 0.716458 0.738737 0.751117 0.756497 
0.756497 0.751117 0.738737 0.716458 0.716162 0.738347 0.750606 0.755903 0.755903 
0.750606 0.738347 0.716162 0.715874 0.737962 0.750093 0.755302 0.755302 0.750093 
0.737962 0.715874 0.715595 0.73758 0.749577 0.754693 0.754693 0.749577 0.73758 
0.715595 0.715326 0.737203 0.749058 0.754076 0.754076 0.749058 0.737203 0.715326 
0.715067 0.736831 0.748535 0.753451 0.753451 0.748535 0.736831 0.715067 0.714818 
0.736463 0.748009 0.752816 0.752816 0.748009 0.736463 0.714818 0.714581 0.736101 
0.74748 0.752172 0.752172 0.74748 0.736101 0.714581 0.714355 0.735744 0.746946 
0.751517 0.751517 0.746946 0.735744 0.714355 0.714142 0.735393 0.746408 0.750851 
0.750851 0.746408 0.735393 0.714142 0.713942 0.735047 0.745865 0.750174 0.750174 
0.745865 0.735047 0.713942 0.713756 0.734708 0.745317 0.749484 0.749484 0.745317 
0.734708 0.713756 0.713584 0.734375 0.744763 0.748781 0.748781 0.744763 0.734375 
0.713584 0.713428 0.73405 0.744203 0.748064 0.748064 0.744203 0.73405 0.713428 
0.713289 0.733731 0.743637 0.747332 0.747332 0.743637 0.733731 0.713289 0.713167 
0.733421 0.743064 0.746584 0.746584 0.743064 0.733421 0.713167 0.713063 0.733119 
0.742483 0.745821 0.745821 0.742483 0.733119 0.713063 0.712979 0.732825 0.741894 
0.74504 0.74504 0.741894 0.732825 0.712979 0.712916 0.732541 0.741296 0.74424 
0.74424 0.741296 0.732541 0.712916 0.712874 0.732267 0.740688 0.743421 0.743421 
0.740688 0.732267 0.712874 0.712855 0.732004 0.740069 0.742582 0.742582 0.740069 
0.732004 0.712855 0.71286 0.731753 0.739438 0.741722 0.741722 0.739438 0.731753 
0.71286 0.71289 0.731512 0.738793 0.740838 0.740838 0.738793 0.731512 0.71289 
0.712947 0.731285 0.738133 0.73993 0.73993 0.738133 0.731285 0.712947 0.71304 
0.73108 0.737463 0.739005 0.739005 0.737463 0.73108 0.71304 0.713179 0.730905 
0.73679 0.738069 0.738069 0.73679 0.730905 0.713179 0.713308 0.730707 0.736058 
0.737067 0.737067 0.736058 0.730707 0.713308 0.713295 0.730355 0.735134 0.735867 
0.735867 0.735134 0.730355 0.713295 0.713416 0.730108 0.734265 0.734714 0.734714 
0.734265 0.730108 0.713416 0.715133 0.731379 0.734844 0.734997 0.734997 0.734844 
0.731379 0.715133 0.718264 0.734039 0.736784 0.736654 0.736654 0.736784 0.734039 
0.718264 0.710964 0.726562 0.728705 0.728333 0.728333 0.728705 0.726562 0.710964 
0.679151 0.694571 0.69606 0.695368 0.695368 0.69606 0.694571 0.679151 0.696214 
0.708897 0.708858 0.707677 0.707677 0.708858 0.708897 0.696214 1.00411 1.00944 
1.00748 1.0064 1.0064 1.00748 1.00944 1.00411 1.32469 1.3353 1.33528 
1.33529 1.33529 1.33528 1.3353 1.32469 
Froude 1 608 float
0.287848 0.287665 0.287791 0.287851 0.287851 0.287791 0.287665 0.287848 0.148031 
0.149317 0.149825 0.14999 0.14999 0.149825 0.149317 0.148031 0.165339 0.167484 
0.168332 0.168609 0.168609 0.168332 0.167484 0.165339 0.16428 0.166308 0.167202 
0.167515 0.167515 0.167202 0.166308 0.16428 0.164222 0.166273 0.167196 0.167524 
0.167524 0.167196 0.166273 0.164222 0.164221 0.166252 0.167167 0.16749 0.16749 
0.167167 0.166252 0.164221 0.164226 0.16623 0.16712 0.167429 0.167429 0.16712 
0.16623 0.164226 0.164244 0.166213 0.16707 0.16736 0.16736 0.16707 0.166213 
0.164244 0.164268 0.166199 0.167016 0.167285 0.167285 0.167016 0.166199 0.164268 
0.164298 0.166186 0.166959 0.167205 0.167205 0.166959 0.166186 0.164298 0.164333 
0.166174 0.1669 0.167121 0.167121 0.1669 0.166174 0.164333 0.164373 0.166163 
0.166839 0.167035 0.167035 0.166839 0.166163 0.164373 0.16442 0.166152 0.166774 
0.166945 0.166945 0.166774 0.166152 0.16442 0.164472 0.16614 0.166707 0.166852 
0.166852 0.166707 0.16614 0.164472 0.164532 0.166128 0.166637 0.166757 0.166757 
0.166637 0.166128 0.164532 0.164599 0.166115 0.166563 0.166658 0.166658 0.166563 
0.166115 0.164599 0.164674 0.1661 0.166485 0.166556 0.166556 0.166485 0.1661 
0.164674 0.164759 0.166083 0.166403 0.166452 0.166452 0.166403 0.166083 0.164759 
0.164854 0.166062 0.166317 0.166345 0.166345 0.166317 0.166062 0.164854 0.164961 
0.166036 0.166226 0.166236 0.166236 0.166226 0.166036 0.164961 0.165081 0.166004 
0.166131 0.166126 0.166126 0.166131 0.166004 0.165081 0.165213 0.165963 0.166032 
0.166015 0.166015 0.166032 0.165963 0.165213 0.165359 0.165909 0.165928 0.165905 
0.165905 0.165928 0.165909 0.165359 0.165509 0.16584 0.165824 0.165805 0.165805 
0.165824 0.16584 0.165509 0.165629 0.165772 0.165751 0.165741 0.165741 0.165751 
0.165772 0.165629 0.0117024 0.0117105 0.0117191 0.0117222 0.0117222 0.0117191 0.0117105 
0.0117024 0.214573 0.217995 0.219971 0.220865 0.220865 0.219971 0.217995 0.214573 
0.214448 0.217866 0.219832 0.22072 0.22072 0.219832 0.217866 0.214448 0.214378 
0.21779 0.219748 0.220631 0.220631 0.219748 0.21779 0.214378 0.214303 0.217708 
0.219657 0.220534 0.220534 0.219657 0.217708 0.214303 0.21423 0.217627 0.219567 
0.220437 0.220437 0.219567 0.217627 0.21423 0.214157 0.217546 0.219476 0.22034 
0.22034 0.219476 0.217546 0.214157 0.214085 0.217466 0.219385 0.220241 0.220241 
0.219385 0.217466 0.214085 0.214015 0.217386 0.219294 0.220143 0.220143 0.219294 
0.217386 0.214015 0.213945 0.217307 0.219202 0.220043 0.220043 0.219202 0.217307 
0.213945 0.213875 0.217228 0.219111 0.219943 0.219943 0.219111 0.217228 0.213875 
0.213807 0.217149 0.219019 0.219842 0.219842 0.219019 0.217149 0.213807 0.21374 
0.217071 0.218927 0.219741 0.219741 0.218927 0.217071 0.21374 0.213674 0.216994 
0.218835 0.219638 0.219638 0.218835 0.216994 0.213674 0.213609 0.216917 0.218742 
0.219535 0.219535 0.218742 0.216917 0.213609 0.213545 0.21684 0.218649 0.219431 
0.219431 0.218649 0.21684 0.213545 0.213483 0.216764 0.218556 0.219326 0.219326 
0.218556 0.216764 0.213483 0.213421 0.216689 0.218463 0.21922 0.21922 0.218463 
0.216689 0.213421 0.213362 0.216614 0.218369 0.219113 0.219113 0.218369 0.216614 
0.213362 0.213303 0.21654 0.218274 0.219004 0.219004 0.218274 0.21654 0.213303 
0.213246 0.216467 0.21818 0.218895 0.218895 0.21818 0.216467 0.213246 0.213191 
0.216395 0.218084 0.218784 0.218784 0.218084 0.216395 0.213191 0.213137 0.216323 
0.217988 0.218671 0.218671 0.217988 0.216323 0.213137 0.213085 0.216252 0.217892 
0.218558 0.218558 0.217892 0.216252 0.213085 0.213035 0.216182 0.217795 0.218442 
0.218442 0.217795 0.216182 0.213035 0.212987 0.216112 0.217697 0.218325 0.218325 
0.217697 0.216112 0.212987 0.212941 0.216044 0.217598 0.218206 0.218206 0.217598 
0.216044 0.212941 0.212898 0.215977 0.217499 0.218085 0.218085 0.217499 0.215977 
0.212898 0.212856 0.215911 0.217399 0.217962 0.217962 0.217399 0.215911 0.212856 
0.212817 0.215845 0.217298 0.217837 0.217837 0.217298 0.215845 0.212817 0.212781 
0.215781 0.217195 0.217709 0.217709 0.217195 0.215781 0.212781 0.212748 0.215719 
0.217092 0.217579 0.217579 0.217092 0.215719 0.212748 0.212717 0.215657 0.216987 
0.217447 0.217447 0.216987 0.215657 0.212717 0.212689 0.215597 0.216882 0.217312 
0.217312 0.216882 0.215597 0.212689 0.212665 0.215539 0.216774 0.217174 0.217174 
0.216774 0.215539 0.212665 0.212644 0.215482 0.216665 0.217033 0.217033 0.216665 
0.215482 0.212644 0.212627 0.215426 0.216555 0.216889 0.216889 0.216555 0.215426 
0.212627 0.212614 0.215373 0.216442 0.216741 0.216741 0.216442 0.215373 0.212614 
0.212604 0.215321 0.216327 0.21659 0.21659 0.216327 0.215321 0.212604 0.2126 
0.215273 0.216211 0.216437 0.216437 0.216211 0.215273 0.2126 0.212603 0.215229 
0.216094 0.216281 0.216281 0.216094 0.215229 0.212603 0.212605 0.215182 0.215968 
0.216116 0.216116 0.215968 0.215182 0.212605 0.212584 0.215111 0.215814 0.215921 
0.215921 0.215814 0.215111 0.212584 0.212585 0.215057 0.215669 0.215734 0.215734 
0.215669 0.215057 0.212585 0.212829 0.215233 0.215742 0.215764 0.215764 0.215742 
0.215233 0.212829 0.213283 0.215612 0.216015 0.215996 0.215996 0.216015 0.215612 
0.213283 0.212135 0.21445 0.214768 0.214713 0.214713 0.214768 0.21445 0.212135 
0.207211 0.209551 0.209777 0.209672 0.209672 0.209777 0.209551 0.207211 0.209978 
0.21187 0.211863 0.211685 0.211685 0.211863 0.21187 0.209978 0.253516 0.254162 
0.253912 0.253778 0.253778 0.253912 0.254162 0.253516 0.291144 0.292352 0.29236 
0.292365 0.292365 0.29236 0.292352 0.291144 
Vel_Mag_m_p_s 1 608 float
0.50605 0.505837 0.506106 0.506226 0.506226 0.506106 0.505837 0.50605 0.258685 
0.260923 0.261816 0.262106 0.262106 0.261816 0.260923 0.258685 0.289069 0.292822 
0.29431 0.294796 0.294796 0.29431 0.292822 0.289069 0.287234 0.29078 0.292344 
0.292894 0.292894 0.292344 0.29078 0.287234 0.28715 0.290736 0.292352 0.292925 
0.292925 0.292352 0.290736 0.28715 0.287165 0.290718 0.292319 0.292883 0.292883 
0.292319 0.290718 0.287165 0.287192 0.290696 0.292254 0.292794 0.292794 0.292254 
0.290696 0.287192 0.28724 0.290685 0.292183 0.292691 0.292691 0.292183 0.290685 
0.28724 0.2873 0.290677 0.292106 0.292576 0.292576 0.292106 0.290677 0.2873 
0.287369 0.290672 0.292025 0.292454 0.292454 0.292025 0.290672 0.287369 0.287448 
0.290669 0.291939 0.292326 0.292326 0.291939 0.290669 0.287448 0.287536 0.290666 
0.291849 0.292192 0.292192 0.291849 0.290666 0.287536 0.287634 0.290664 0.291753 
0.292052 0.292052 0.291753 0.290664 0.287634 0.287743 0.290661 0.291653 0.291907 
0.291907 0.291653 0.290661 0.287743 0.287864 0.290658 0.291547 0.291757 0.291757 
0.291547 0.290658 0.287864 0.287999 0.290652 0.291435 0.291602 0.291602 0.291435 
0.290652 0.287999 0.288148 0.290644 0.291317 0.291441 0.291441 0.291317 0.290644 
0.288148 0.288313 0.290631 0.291191 0.291276 0.291276 0.291191 0.290631 0.288313 
0.288498 0.290612 0.291057 0.291106 0.291106 0.291057 0.290612 0.288498 0.288702 
0.290584 0.290916 0.290932 0.290932 0.290916 0.290584 0.288702 0.288928 0.290545 
0.290767 0.290757 0.290757 0.290767 0.290545 0.288928 0.289178 0.29049 0.290611 
0.290581 0.290581 0.290611 0.29049 0.289178 0.28945 0.290413 0.290445 0.290405 
0.290405 0.290445 0.290413 0.28945 0.289731 0.29031 0.290281 0.290246 0.290246 
0.290281 0.29031 0.289731 0.289961 0.290207 0.290169 0.29015 0.29015 0.290169 
0.290207 0.289961 0.0198313 0.0198467 0.0198622 0.019868 0.019868 0.0198622 0.0198467 
0.0198313 0.342659 0.348124 0.35128 0.352707 0.352707 0.35128 0.348124 0.342659 
0.342503 0.347962 0.351102 0.35252 0.35252 0.351102 0.347962 0.342503 0.342437 
0.347887 0.351014 0.352424 0.352424 0.351014 0.347887 0.342437 0.342362 0.347801 
0.350915 0.352316 0.352316 0.350915 0.347801 0.342362 0.342289 0.347717 0.350816 
0.352207 0.352207 0.350816 0.347717 0.342289 0.342218 0.347634 0.350717 0.352097 
0.352097 0.350717 0.347634 0.342218 0.342148 0.347551 0.350617 0.351986 0.351986 
0.350617 0.347551 0.342148 0.342079 0.347468 0.350517 0.351874 0.351874 0.350517 
0.347468 0.342079 0.342012 0.347387 0.350417 0.351761 0.351761 0.350417 0.347387 
0.342012 0.341946 0.347306 0.350316 0.351647 0.351647 0.350316 0.347306 0.341946 
0.341882 0.347225 0.350215 0.351531 0.351531 0.350215 0.347225 0.341882 0.341819 
0.347145 0.350114 0.351415 0.351415 0.350114 0.347145 0.341819 0.341757 0.347066 
0.350011 0.351297 0.351297 0.350011 0.347066 0.341757 0.341698 0.346988 0.349909 
0.351177 0.351177 0.349909 0.346988 0.341698 0.34164 0.346911 0.349806 0.351056 
0.351056 0.349806 0.346911 0.34164 0.341584 0.346834 0.349702 0.350933 0.350933 
0.349702 0.346834 0.341584 0.34153 0.346759 0.349597 0.350809 0.350809 0.349597 
0.346759 0.34153 0.341478 0.346684 0.349492 0.350683 0.350683 0.349492 0.346684 
0.341478 0.341428 0.34661 0.349386 0.350554 0.350554 0.349386 0.34661 0.341428 
0.341381 0.346537 0.349279 0.350424 0.350424 0.349279 0.346537 0.341381 0.341337 
0.346466 0.349171 0.350291 0.350291 0.349171 0.346466 0.341337 0.341294 0.346395 
0.349063 0.350156 0.350156 0.349063 0.346395 0.341294 0.341255 0.346326 0.348953 
0.350019 0.350019 0.348953 0.346326 0.341255 0.341219 0.346258 0.348842 0.349879 
0.349879 0.348842 0.346258 0.341219 0.341186 0.346192 0.34873 0.349736 0.349736 
0.34873 0.346192 0.341186 0.341156 0.346127 0.348617 0.34959 0.34959 0.348617 
0.346127 0.341156 0.341129 0.346063 0.348502 0.349441 0.349441 0.348502 0.346063 
0.341129 0.341106 0.346001 0.348386 0.349288 0.349288 0.348386 0.346001 0.341106 
0.341088 0.345941 0.348268 0.349132 0.349132 0.348268 0.345941 0.341088 0.341073 
0.345882 0.348149 0.348972 0.348972 0.348149 0.345882 0.341073 0.341063 0.345826 
0.348027 0.348809 0.348809 0.348027 0.345826 0.341063 0.341057 0.345771 0.347904 
0.348641 0.348641 0.347904 0.345771 0.341057 0.341056 0.345719 0.347778 0.348468 
0.348468 0.347778 0.345719 0.341056 0.341061 0.345669 0.34765 0.348291 0.348291 
0.34765 0.345669 0.341061 0.34107 0.345621 0.34752 0.348109 0.348109 0.34752 
0.345621 0.34107 0.341086 0.345576 0.347386 0.347922 0.347922 0.347386 0.345576 
0.341086 0.341108 0.345534 0.347249 0.34773 0.34773 0.347249 0.345534 0.341108 
0.341136 0.345495 0.347109 0.347531 0.347531 0.347109 0.345495 0.341136 0.341172 
0.345461 0.346966 0.347329 0.347329 0.346966 0.345461 0.341172 0.34122 0.345434 
0.346822 0.347123 0.347123 0.346822 0.345434 0.34122 0.341265 0.345402 0.346665 
0.346902 0.346902 0.346665 0.345402 0.341265 0.341277 0.345334 0.346462 0.346635 
0.346635 0.346462 0.345334 0.341277 0.34132 0.34529 0.346271 0.346377 0.346377 
0.346271 0.34529 0.34132 0.341739 0.3456 0.346417 0.346453 0.346453 0.346417 
0.3456 0.341739 0.342496 0.346237 0.346883 0.346853 0.346853 0.346883 0.346237 
0.342496 0.3408 0.344517 0.345024 0.344936 0.344936 0.345024 0.344517 0.3408 
0.333187 0.336948 0.337308 0.337141 0.337141 0.337308 0.336948 0.333187 0.337203 
0.340269 0.340261 0.339979 0.339979 0.340261 0.340269 0.337203 0.40388 0.404972 
0.404581 0.404364 0.404364 0.404581 0.404972 0.40388 0.46393 0.465748 0.465736 
0.465736 0.465736 0.465736 0.465748 0.46393 
Water_Depth_m 1 608 float
0.315155 0.315291 0.315348 0.315369 0.315369 0.315348 0.315291 0.315155 0.311388 
0.311365 0.311376 0.311383 0.311383 0.311376 0.311365 0.311388 0.311684 0.311692 
0.311702 0.311706 0.311706 0.311702 0.311692 0.311684 0.311721 0.311722 0.311726 
0.311728 0.311728 0.311726 0.311722 0.311721 0.311759 0.311759 0.311761 0.311763 
0.311763 0.311761 0.311759 0.311759 0.311797 0.311798 0.311798 0.311799 0.311799 
0.311798 0.311798 0.311797 0.311835 0.311835 0.311836 0.311836 0.311836 0.311836 
0.311835 0.311835 0.311872 0.311873 0.311873 0.311873 0.311873 0.311873 0.311873 
0.311872 0.31191 0.31191 0.31191 0.31191 0.31191 0.31191 0.31191 0.31191 
0.311947 0.311947 0.311947 0.311947 0.311947 0.311947 0.311947 0.311947 0.311984 
0.311985 0.311985 0.311985 0.311985 0.311985 0.311985 0.311984 0.312022 0.312022 
0.312022 0.312022 0.312022 0.312022 0.312022 0.312022 0.312059 0.312059 0.312059 
0.312059 0.312059 0.312059 0.312059 0.312059 0.312096 0.312097 0.312096 0.312096 
0.312096 0.312096 0.312097 0.312096 0.312133 0.312134 0.312134 0.312134 0.312134 
0.312134 0.312134 0.312133 0.312171 0.312171 0.312171 0.312171 0.312171 0.312171 
0.312171 0.312171 0.312208 0.312208 0.312208 0.312208 0.312208 0.312208 0.312208 
0.312208 0.312245 0.312246 0.312245 0.312245 0.312245 0.312245 0.312246 0.312245 
0.312282 0.312283 0.312282 0.312283 0.312283 0.312282 0.312283 0.312282 0.312319 
0.31232 0.31232 0.31232 0.31232 0.31232 0.31232 0.312319 0.312357 0.312357 
0.312357 0.312357 0.312357 0.312357 0.312357 0.312357 0.312394 0.312395 0.312394 
0.312394 0.312394 0.312394 0.312395 0.312394 0.312432 0.312432 0.312431 0.31243 
0.31243 0.312431 0.312432 0.312432 0.312471 0.31247 0.312467 0.312466 0.312466 
0.312467 0.31247 0.312471 0.312514 0.312505 0.312501 0.312499 0.312499 0.312501 
0.312505 0.312514 0.292829 0.292879 0.292909 0.292923 0.292923 0.292909 0.292879 
0.292829 0.260038 0.260038 0.260038 0.260038 0.260038 0.260038 0.260038 0.260038 
0.260105 0.260105 0.260105 0.260105 0.260105 0.260105 0.260105 0.260105 0.260174 
0.260173 0.260173 0.260173 0.260173 0.260173 0.260173 0.260174 0.260242 0.260242 
0.260242 0.260242 0.260242 0.260242 0.260242 0.260242 0.26031 0.26031 0.26031 
0.26031 0.26031 0.26031 0.26031 0.26031 0.260378 0.260378 0.260378 0.260378 
0.260378 0.260378 0.260378 0.260378 0.260446 0.260446 0.260446 0.260446 0.260446 
0.260446 0.260446 0.260446 0.260514 0.260514 0.260514 0.260514 0.260514 0.260514 
0.260514 0.260514 0.260582 0.260582 0.260582 0.260582 0.260582 0.260582 0.260582 
0.260582 0.26065 0.260649 0.26065 0.26065 0.26065 0.26065 0.260649 0.26065 
0.260718 0.260717 0.260717 0.260717 0.260717 0.260717 0.260717 0.260718 0.260785 
0.260785 0.260785 0.260785 0.260785 0.260785 0.260785 0.260785 0.260853 0.260853 
0.260853 0.260853 0.260853 0.260853 0.260853 0.260853 0.26092 0.26092 0.26092 
0.26092 0.26092 0.26092 0.26092 0.26092 0.260988 0.260988 0.260988 0.260988 
0.260988 0.260988 0.260988 0.260988 0.261056 0.261055 0.261055 0.261055 0.261055 
0.261055 0.261055 0.261056 0.261123 0.261123 0.261123 0.261123 0.261123 0.261123 
0.261123 0.261123 0.26119 0.26119 0.26119 0.26119 0.26119 0.26119 0.26119 
0.26119 0.261258 0.261257 0.261258 0.261258 0.261258 0.261258 0.261257 0.261258 
0.261325 0.261325 0.261325 0.261325 0.261325 0.261325 0.261325 0.261325 0.261392 
0.261392 0.261392 0.261392 0.261392 0.261392 0.261392 0.261392 0.261459 0.261459 