# vtk DataFile Version 5.1
vtk output
ASCII
DATASET UNSTRUCTURED_GRID
POINTS 9610 double
0.1016 1.5 0 0.1016 1.45 0 0.1016 1.4 0 
0.1016 1.35 0 0.1016 1.3 0 0.1016 1.25 0 
0.1016 1.2 0 0.1016 1.15 0 0.1016 1.1 0 
0.1016 1.05 0 0.1016 1 0 0.1016 0.95 0 
0.1016 0.9 0 0.1016 0.85 0 0.1016 0.8 0 
0.1016 0.75 0 0.1016 0.7 0 0.1016 0.65 0 
0.1016 0.6 0 0.1016 0.55 0 0.1016 0.5 0 
0.1016 0.45 0 0.1016 0.4 0 0.1016 0.35 0 
0.1016 0.3 0 0.1016 0.25 0 0.1016 0.2 0 
0.1016 0.15 0 0.1016 0.1 0 0.1016 0.05 0 
0.1016 0 0 5.08 1.5 0 5.08 1.45 0 
5.08 1.4 0 5.08 1.35 0 5.08 1.3 0 
5.08 1.25 0 5.08 1.2 0 5.08 1.15 0 
5.08 1.1 0 5.08 1.05 0 5.08 1 0 
5.08 0.95 0 5.08 0.9 0 5.08 0.85 0 
5.08 0.8 0 5.08 0.75 0 5.08 0.7 0 
5.08 0.65 0 5.08 0.6 0 5.08 0.55 0 
5.08 0.5 0 5.08 0.45 0 5.08 0.4 0 
5.08 0.35 0 5.08 0.3 0 5.08 0.25 0 
5.08 0.2 0 5.08 0.15 0 5.08 0.1 0 
5.08 0.05 0 5.08 0 0 0.151384 1.5 0 
0.151384 1.45 0 0.151384 1.4 0 0.151384 1.35 0 
0.151384 1.3 0 0.151384 1.25 0 0.151384 1.2 0 
0.151384 1.15 0 0.151384 1.1 0 0.151384 1.05 0 
0.151384 1 0 0.151384 0.95 0 0.151384 0.9 0 
0.151384 0.85 0 0.151384 0.8 0 0.151384 0.75 0 
0.151384 0.7 0 0.151384 0.65 0 0.151384 0.6 0 
0.151384 0.55 0 0.151384 0.5 0 0.151384 0.45 0 
0.151384 0.4 0 0.151384 0.35 0 0.151384 0.3 0 
0.151384 0.25 0 0.151384 0.2 0 0.151384 0.15 0 
0.151384 0.1 0 0.151384 0.05 0 0.151384 0 0 
0.201168 1.5 0 0.201168 1.45 0 0.201168 1.4 0 
0.201168 1.35 0 0.201168 1.3 0 0.201168 1.25 0 
0.201168 1.2 0 0.201168 1.15 0 0.201168 1.1 0 
0.201168 1.05 0 0.201168 1 0 0.201168 0.95 0 
0.201168 0.9 0 0.201168 0.85 0 0.201168 0.8 0 
0.201168 0.75 0 0.201168 0.7 0 0.201168 0.65 0 
0.201168 0.6 0 0.201168 0.55 0 0.201168 0.5 0 
0.201168 0.45 0 0.201168 0.4 0 0.201168 0.35 0 
0.201168 0.3 0 0.201168 0.25 0 0.201168 0.2 0 
0.201168 0.15 0 0.201168 0.1 0 0.201168 0.05 0 
0.201168 0 0 0.250952 1.5 0 0.250952 1.45 0 
0.250952 1.4 0 0.250952 1.35 0 0.250952 1.3 0 
0.250952 1.25 0 0.250952 1.2 0 0.250952 1.15 0 
0.250952 1.1 0 0.250952 1.05 0 0.250952 1 0 
0.250952 0.95 0 0.250952 0.9 0 0.250952 0.85 0 
0.250952 0.8 0 0.250952 0.75 0 0.250952 0.7 0 
0.250952 0.65 0 0.250952 0.6 0 0.250952 0.55 0 
0.250952 0.5 0 0.250952 0.45 0 0.250952 0.4 0 
0.250952 0.35 0 0.250952 0.3 0 0.250952 0.25 0 
0.250952 0.2 0 0.250952 0.15 0 0.250952 0.1 0 
0.250952 0.05 0 0.250952 0 0 0.300736 1.5 0 
0.300736 1.45 0 0.300736 1.4 0 0.300736 1.35 0 
0.300736 1.3 0 0.300736 1.25 0 0.300736 1.2 0 
0.300736 1.15 0 0.300736 1.1 0 0.300736 1.05 0 
0.300736 1 0 0.300736 0.95 0 0.300736 0.9 0 
0.300736 0.85 0 0.300736 0.8 0 0.300736 0.75 0 
0.300736 0.7 0 0.300736 0.65 0 0.300736 0.6 0 
0.300736 0.55 0 0.300736 0.5 0 0.300736 0.45 0 
0.300736 0.4 0 0.300736 0.35 0 0.300736 0.3 0 
0.300736 0.25 0 0.300736 0.2 0 0.300736 0.15 0 
0.300736 0.1 0 0.300736 0.05 0 0.300736 0 0 
0.35052 1.5 0 0.35052 1.45 0 0.35052 1.4 0 
0.35052 1.35 0 0.35052 1.3 0 0.35052 1.25 0 
0.35052 1.2 0 0.35052 1.15 0 0.35052 1.1 0 
0.35052 1.05 0 0.35052 1 0 0.35052 0.95 0 
0.35052 0.9 0 0.35052 0.85 0 0.35052 0.8 0 
0.35052 0.75 0 0.35052 0.7 0 0.35052 0.65 0 
0.35052 0.6 0 0.35052 0.55 0 0.35052 0.5 0 
0.35052 0.45 0 0.35052 0.4 0 0.35052 0.35 0 
0.35052 0.3 0 0.35052 0.25 0 0.35052 0.2 0 
0.35052 0.15 0 0.35052 0.1 0 0.35052 0.05 0 
0.35052 0 0 0.400304 1.5 0 0.400304 1.45 0 
0.400304 1.4 0 0.400304 1.35 0 0.400304 1.3 0 
0.400304 1.25 0 0.400304 1.2 0 0.400304 1.15 0 
0.400304 1.1 0 0.400304 1.05 0 0.400304 1 0 
0.400304 0.95 0 0.400304 0.9 0 0.400304 0.85 0 
0.400304 0.8 0 0.400304 0.75 0 0.400304 0.7 0 
0.400304 0.65 0 0.400304 0.6 0 0.400304 0.55 0 
0.400304 0.5 0 0.400304 0.45 0 0.400304 0.4 0 
0.400304 0.35 0 0.400304 0.3 0 0.400304 0.25 0 
0.400304 0.2 0 0.400304 0.15 0 0.400304 0.1 0 
0.400304 0.05 0 0.400304 0 0 0.450088 1.5 0 
0.450088 1.45 0 0.450088 1.4 0 0.450088 1.35 0 
0.450088 1.3 0 0.450088 1.25 0 0.450088 1.2 0 
0.450088 1.15 0 0.450088 1.1 0 0.450088 1.05 0 
0.450088 1 0 0.450088 0.95 0 0.450088 0.9 0 
0.450088 0.85 0 0.450088 0.8 0 0.450088 0.75 0 
0.450088 0.7 0 0.450088 0.65 0 0.450088 0.6 0 
0.450088 0.55 0 0.450088 0.5 0 0.450088 0.45 0 
0.450088 0.4 0 0.450088 0.35 0 0.450088 0.3 0 
0.450088 0.25 0 0.450088 0.2 0 0.450088 0.15 0 
0.450088 0.1 0 0.450088 0.05 0 0.450088 0 0 
0.499872 1.5 0 0.499872 1.45 0 0.499872 1.4 0 
0.499872 1.35 0 0.499872 1.3 0 0.499872 1.25 0 
0.499872 1.2 0 0.499872 1.15 0 0.499872 1.1 0 
0.499872 1.05 0 0.499872 1 0 0.499872 0.95 0 
0.499872 0.9 0 0.499872 0.85 0 0.499872 0.8 0 
0.499872 0.75 0 0.499872 0.7 0 0.499872 0.65 0 
0.499872 0.6 0 0.499872 0.55 0 0.499872 0.5 0 
0.499872 0.45 0 0.499872 0.4 0 0.499872 0.35 0 
0.499872 0.3 0 0.499872 0.25 0 0.499872 0.2 0 
0.499872 0.15 0 0.499872 0.1 0 0.499872 0.05 0 
0.499872 0 0 0.549656 1.5 0 0.549656 1.45 0 
0.549656 1.4 0 0.549656 1.35 0 0.549656 1.3 0 
0.549656 1.25 0 0.549656 1.2 0 0.549656 1.15 0 
0.549656 1.1 0 0.549656 1.05 0 0.549656 1 0 
0.549656 0.95 0 0.549656 0.9 0 0.549656 0.85 0 
0.549656 0.8 0 0.549656 0.75 0 0.549656 0.7 0 
0.549656 0.65 0 0.549656 0.6 0 0.549656 0.55 0 
0.549656 0.5 0 0.549656 0.45 0 0.549656 0.4 0 
0.549656 0.35 0 0.549656 0.3 0 0.549656 0.25 0 
0.549656 0.2 0 0.549656 0.15 0 0.549656 0.1 0 
0.549656 0.05 0 0.549656 0 0 0.59944 1.5 0 
0.59944 1.45 0 0.59944 1.4 0 0.59944 1.35 0 
0.59944 1.3 0 0.59944 1.25 0 0.59944 1.2 0 
0.59944 1.15 0 0.59944 1.1 0 0.59944 1.05 0 
0.59944 1 0 0.59944 0.95 0 0.59944 0.9 0 
0.59944 0.85 0 0.59944 0.8 0 0.59944 0.75 0 
0.59944 0.7 0 0.59944 0.65 0 0.59944 0.6 0 
0.59944 0.55 0 0.59944 0.5 0 0.59944 0.45 0 
0.59944 0.4 0 0.59944 0.35 0 0.59944 0.3 0 
0.59944 0.25 0 0.59944 0.2 0 0.59944 0.15 0 
0.59944 0.1 0 0.59944 0.05 0 0.59944 0 0 
0.649224 1.5 0 0.649224 1.45 0 0.649224 1.4 0 
0.649224 1.35 0 0.649224 1.3 0 0.649224 1.25 0 
0.649224 1.2 0 0.649224 1.15 0 0.649224 1.1 0 
0.649224 1.05 0 0.649224 1 0 0.649224 0.95 0 
0.649224 0.9 0 0.649224 0.85 0 0.649224 0.8 0 
0.649224 0.75 0 0.649224 0.7 0 0.649224 0.65 0 
0.649224 0.6 0 0.649224 0.55 0 0.649224 0.5 0 
0.649224 0.45 0 0.649224 0.4 0 0.649224 0.35 0 
0.649224 0.3 0 0.649224 0.25 0 0.649224 0.2 0 
0.649224 0.15 0 0.649224 0.1 0 0.649224 0.05 0 
0.649224 0 0 0.699008 1.5 0 0.699008 1.45 0 
0.699008 1.4 0 0.699008 1.35 0 0.699008 1.3 0 
0.699008 1.25 0 0.699008 1.2 0 0.699008 1.15 0 
0.699008 1.1 0 0.699008 1.05 0 0.699008 1 0 
0.699008 0.95 0 0.699008 0.9 0 0.699008 0.85 0 
0.699008 0.8 0 0.699008 0.75 0 0.699008 0.7 0 
0.699008 0.65 0 0.699008 0.6 0 0.699008 0.55 0 
0.699008 0.5 0 0.699008 0.45 0 0.699008 0.4 0 
0.699008 0.35 0 0.699008 0.3 0 0.699008 0.25 0 
0.699008 0.2 0 0.699008 0.15 0 0.699008 0.1 0 
0.699008 0.05 0 0.699008 0 0 0.748792 1.5 0 
0.748792 1.45 0 0.748792 1.4 0 0.748792 1.35 0 
0.748792 1.3 0 0.748792 1.25 0 0.748792 1.2 0 
0.748792 1.15 0 0.748792 1.1 0 0.748792 1.05 0 
0.748792 1 0 0.748792 0.95 0 0.748792 0.9 0 
0.748792 0.85 0 0.748792 0.8 0 0.748792 0.75 0 
0.748792 0.7 0 0.748792 0.65 0 0.748792 0.6 0 
0.748792 0.55 0 0.748792 0.5 0 0.748792 0.45 0 
0.748792 0.4 0 0.748792 0.35 0 0.748792 0.3 0 
0.748792 0.25 0 0.748792 0.2 0 0.748792 0.15 0 
0.748792 0.1 0 0.748792 0.05 0 0.748792 0 0 
0.798576 1.5 0 0.798576 1.45 0 0.798576 1.4 0 
0.798576 1.35 0 0.798576 1.3 0 0.798576 1.25 0 
0.798576 1.2 0 0.798576 1.15 0 0.798576 1.1 0 
0.798576 1.05 0 0.798576 1 0 0.798576 0.95 0 
0.798576 0.9 0 0.798576 0.85 0 0.798576 0.8 0 
0.798576 0.75 0 0.798576 0.7 0 0.798576 0.65 0 
0.798576 0.6 0 0.798576 0.55 0 0.798576 0.5 0 
0.798576 0.45 0 0.798576 0.4 0 0.798576 0.35 0 
0.798576 0.3 0 0.798576 0.25 0 0.798576 0.2 0 
0.798576 0.15 0 0.798576 0.1 0 0.798576 0.05 0 
0.798576 0 0 0.84836 1.5 0 0.84836 1.45 0 
0.84836 1.4 0 0.84836 1.35 0 0.84836 1.3 0 
0.84836 1.25 0 0.84836 1.2 0 0.84836 1.15 0 
0.84836 1.1 0 0.84836 1.05 0 0.84836 1 0 
0.84836 0.95 0 0.84836 0.9 0 0.84836 0.85 0 
0.84836 0.8 0 0.84836 0.75 0 0.84836 0.7 0 
0.84836 0.65 0 0.84836 0.6 0 0.84836 0.55 0 
0.84836 0.5 0 0.84836 0.45 0 0.84836 0.4 0 
0.84836 0.35 0 0.84836 0.3 0 0.84836 0.25 0 
0.84836 0.2 0 0.84836 0.15 0 0.84836 0.1 0 
0.84836 0.05 0 0.84836 0 0 0.898144 1.5 0 
0.898144 1.45 0 0.898144 1.4 0 0.898144 1.35 0 
0.898144 1.3 0 0.898144 1.25 0 0.898144 1.2 0 
0.898144 1.15 0 0.898144 1.1 0 0.898144 1.05 0 
0.898144 1 0 0.898144 0.95 0 0.898144 0.9 0 
0.898144 0.85 0 0.898144 0.8 0 0.898144 0.75 0 
0.898144 0.7 0 0.898144 0.65 0 0.898144 0.6 0 
0.898144 0.55 0 0.898144 0.5 0 0.898144 0.45 0 
0.898144 0.4 0 0.898144 0.35 0 0.898144 0.3 0 
0.898144 0.25 0 0.898144 0.2 0 0.898144 0.15 0 
0.898144 0.1 0 0.898144 0.05 0 0.898144 0 0 
0.947928 1.5 0 0.947928 1.45 0 0.947928 1.4 0 
0.947928 1.35 0 0.947928 1.3 0 0.947928 1.25 0 
0.947928 1.2 0 0.947928 1.15 0 0.947928 1.1 0 
0.947928 1.05 0 0.947928 1 0 0.947928 0.95 0 
0.947928 0.9 0 0.947928 0.85 0 0.947928 0.8 0 
0.947928 0.75 0 0.947928 0.7 0 0.947928 0.65 0 
0.947928 0.6 0 0.947928 0.55 0 0.947928 0.5 0 
0.947928 0.45 0 0.947928 0.4 0 0.947928 0.35 0 
0.947928 0.3 0 0.947928 0.25 0 0.947928 0.2 0 
0.947928 0.15 0 0.947928 0.1 0 0.947928 0.05 0 
0.947928 0 0 0.997712 1.5 0 0.997712 1.45 0 
0.997712 1.4 0 0.997712 1.35 0 0.997712 1.3 0 
0.997712 1.25 0 0.997712 1.2 0 0.997712 1.15 0 
0.997712 1.1 0 0.997712 1.05 0 0.997712 1 0 
0.997712 0.95 0 0.997712 0.9 0 0.997712 0.85 0 
0.997712 0.8 0 0.997712 0.75 0 0.997712 0.7 0 
0.997712 0.65 0 0.997712 0.6 0 0.997712 0.55 0 
0.997712 0.5 0 0.997712 0.45 0 0.997712 0.4 0 
0.997712 0.35 0 0.997712 0.3 0 0.997712 0.25 0 
0.997712 0.2 0 0.997712 0.15 0 0.997712 0.1 0 
0.997712 0.05 0 0.997712 0 0 1.047496 1.5 0 
1.047496 1.45 0 1.047496 1.4 0 1.047496 1.35 0 
1.047496 1.3 0 1.047496 1.25 0 1.047496 1.2 0 
1.047496 1.15 0 1.047496 1.1 0 1.047496 1.05 0 
1.047496 1 0 1.047496 0.95 0 1.047496 0.9 0 
1.047496 0.85 0 1.047496 0.8 0 1.047496 0.75 0 
1.047496 0.7 0 1.047496 0.65 0 1.047496 0.6 0 
1.047496 0.55 0 1.047496 0.5 0 1.047496 0.45 0 
1.047496 0.4 0 1.047496 0.35 0 1.047496 0.3 0 
1.047496 0.25 0 1.047496 0.2 0 1.047496 0.15 0 
[...]
CELL_DATA 9270
FIELD FieldData 7
B_Stress_n_p_m2 1 9270 float
0.60603 0.62875 0.631971 0.631436 0.630585 0.630156 0.629975 0.629949 0.62999 
0.630069 0.630163 0.630268 0.630376 0.630485 0.630592 0.630592 0.630485 0.630376 
0.630268 0.630163 0.630069 0.62999 0.629949 0.629975 0.630156 0.630585 0.631436 
0.631971 0.62875 0.60603 0.134188 0.175792 0.182342 0.181331 0.179255 0.177831 
0.17688 0.176284 0.175885 0.175621 0.175441 0.175323 0.175247 0.175206 0.175189 
0.175189 0.175206 0.175247 0.175323 0.175441 0.175621 0.175885 0.176284 0.17688 
0.177831 0.179255 0.181331 0.182342 0.175792 0.134188 0.178136 0.226441 0.236187 
0.236083 0.234067 0.232428 0.231213 0.230375 0.229771 0.229342 0.22903 0.228807 
0.228651 0.228549 0.228494 0.228494 0.228549 0.228651 0.228807 0.22903 0.229342 
0.229771 0.230375 0.231213 0.232428 0.234067 0.236083 0.236187 0.226441 0.178136 
0.164283 0.215191 0.227052 0.227888 0.226297 0.224792 0.223596 0.222724 0.222073 
0.221597 0.221246 0.220994 0.220819 0.22071 0.220657 0.220657 0.22071 0.220819 
0.220994 0.221246 0.221597 0.222073 0.222724 0.223596 0.224792 0.226297 0.227888 
0.227052 0.215191 0.164283 0.162871 0.214561 0.227574 0.229082 0.227912 0.226607 
0.225501 0.224649 0.223988 0.223487 0.223109 0.222831 0.222636 0.222511 0.22245 
0.22245 0.222511 0.222636 0.222831 0.223109 0.223487 0.223988 0.224649 0.225501 
0.226607 0.227912 0.229082 0.227574 0.214561 0.162871 0.160859 0.212886 0.226593 
0.228578 0.227766 0.226674 0.225695 0.224908 0.224276 0.223784 0.223404 0.22312 
0.222918 0.222788 0.222725 0.222725 0.222788 0.222918 0.22312 0.223404 0.223784 
0.224276 0.224908 0.225695 0.226674 0.227766 0.228578 0.226593 0.212886 0.160859 
0.159794 0.211852 0.22593 0.228233 0.227701 0.226804 0.225958 0.225252 0.22467 
0.224205 0.223838 0.22356 0.223359 0.22323 0.223166 0.223166 0.22323 0.223359 
0.22356 0.223838 0.224205 0.22467 0.225252 0.225958 0.226804 0.227701 0.228233 
0.22593 0.211852 0.159794 0.159119 0.211073 0.22534 0.227851 0.227531 0.226798 
0.226077 0.225456 0.224932 0.224504 0.224161 0.223897 0.223705 0.223579 0.223518 
0.223518 0.223579 0.223705 0.223897 0.224161 0.224504 0.224932 0.225456 0.226077 
0.226798 0.227531 0.227851 0.22534 0.211073 0.159119 0.158746 0.210519 0.224858 
0.2275 0.227338 0.226739 0.226126 0.225587 0.225122 0.224736 0.224421 0.224177 
0.223997 0.223879 0.22382 0.22382 0.223879 0.223997 0.224177 0.224421 0.224736 
0.225122 0.225587 0.226126 0.226739 0.227338 0.2275 0.224858 0.210519 0.158746 
0.158581 0.210126 0.224464 0.227184 0.227138 0.226646 0.226125 0.225659 0.225251 
0.224906 0.224623 0.2244 0.224235 0.224126 0.224072 0.224072 0.224126 0.224235 
0.2244 0.224623 0.224906 0.225251 0.225659 0.226125 0.226646 0.227138 0.227184 
0.224464 0.210126 0.158581 0.15857 0.209856 0.224146 0.226906 0.226945 0.226537 
0.226093 0.22569 0.225333 0.225029 0.224776 0.224575 0.224426 0.224326 0.224277 
0.224277 0.224326 0.224426 0.224575 0.224776 0.225029 0.225333 0.22569 0.226093 
0.226537 0.226945 0.226906 0.224146 0.209856 0.15857 0.158667 0.209683 0.223888 
0.226663 0.226763 0.226421 0.22604 0.225691 0.22538 0.225113 0.224888 0.224709 
0.224575 0.224485 0.224441 0.224441 0.224485 0.224575 0.224709 0.224888 0.225113 
0.22538 0.225691 0.22604 0.226421 0.226763 0.226663 0.223888 0.209683 0.158667 
0.158841 0.209593 0.22368 0.226452 0.226595 0.226305 0.225975 0.225672 0.2254 
0.225165 0.224967 0.224808 0.224688 0.224608 0.224568 0.224568 0.224608 0.224688 
0.224808 0.224967 0.225165 0.2254 0.225672 0.225975 0.226305 0.226595 0.226452 
0.22368 0.209593 0.158841 0.159075 0.209564 0.223516 0.226267 0.226441 0.226191 
0.225903 0.225638 0.225399 0.225193 0.225018 0.224877 0.224771 0.2247 0.224664 
0.224664 0.2247 0.224771 0.224877 0.225018 0.225193 0.225399 0.225638 0.225903 
0.226191 0.226441 0.226267 0.223516 0.209564 0.159075 0.159355 0.209582 0.223386 
0.226105 0.226299 0.226081 0.225827 0.225593 0.225383 0.225201 0.225046 0.224922 
0.224827 0.224764 0.224732 0.224732 0.224764 0.224827 0.224922 0.225046 0.225201 
0.225383 0.225593 0.225827 0.226081 0.226299 0.226105 0.223386 0.209582 0.159355 
0.159673 0.209638 0.223283 0.225963 0.226169 0.225976 0.225748 0.22554 0.225354 
0.225193 0.225056 0.224945 0.224862 0.224805 0.224777 0.224777 0.224805 0.224862 
0.224945 0.225056 0.225193 0.225354 0.22554 0.225748 0.225976 0.226169 0.225963 
0.223283 0.209638 0.159673 0.160021 0.209723 0.223203 0.225836 0.226048 0.225875 
0.225669 0.225482 0.225316 0.225172 0.225051 0.224952 0.224878 0.224827 0.224802 
0.224802 0.224827 0.224878 0.224952 0.225051 0.225172 0.225316 0.225482 0.225669 
0.225875 0.226048 0.225836 0.223203 0.209723 0.160021 0.160394 0.209832 0.223141 
0.225723 0.225937 0.225778 0.22559 0.225421 0.225271 0.225142 0.225033 0.224945 
0.224878 0.224833 0.224811 0.224811 0.224833 0.224878 0.224945 0.225033 0.225142 
0.225271 0.225421 0.22559 0.225778 0.225937 0.225723 0.223141 0.209832 0.160394 
0.160788 0.20996 0.223092 0.22562 0.225832 0.225685 0.225511 0.225356 0.22522 
0.225103 0.225004 0.224925 0.224865 0.224825 0.224805 0.224805 0.224825 0.224865 
0.224925 0.225004 0.225103 0.22522 0.225356 0.225511 0.225685 0.225832 0.22562 
0.223092 0.20996 0.160788 0.161199 0.210102 0.223055 0.225526 0.225733 0.225595 
0.225433 0.225289 0.225164 0.225057 0.224968 0.224896 0.224842 0.224806 0.224787 
0.224787 0.224806 0.224842 0.224896 0.224968 0.225057 0.225164 0.225289 0.225433 
0.225595 0.225733 0.225526 0.223055 0.210102 0.161199 0.161626 0.210256 0.223026 
0.225439 0.225639 0.225508 0.225355 0.225221 0.225105 0.225007 0.224925 0.224859 
0.22481 0.224777 0.22476 0.22476 0.224777 0.22481 0.224859 0.224925 0.225007 
0.225105 0.225221 0.225355 0.225508 0.225639 0.225439 0.223026 0.210256 0.161626 
0.162065 0.21042 0.223005 0.225357 0.22555 0.225423 0.225278 0.225151 0.225043 
0.224952 0.224876 0.224816 0.22477 0.22474 0.224725 0.224725 0.22474 0.22477 
0.224816 0.224876 0.224952 0.225043 0.225151 0.225278 0.225423 0.22555 0.225357 
0.223005 0.21042 0.162065 0.162517 0.210591 0.222989 0.22528 0.225463 0.22534 
0.225201 0.225081 0.224979 0.224893 0.224823 0.224766 0.224724 0.224696 0.224682 
0.224682 0.224696 0.224724 0.224766 0.224823 0.224893 0.224979 0.225081 0.225201 
0.22534 0.225463 0.22528 0.222989 0.210591 0.162517 0.162978 0.210769 0.222977 
0.225207 0.22538 0.225259 0.225124 0.22501 0.224913 0.224832 0.224766 0.224713 
0.224674 0.224647 0.224634 0.224634 0.224647 0.224674 0.224713 0.224766 0.224832 
0.224913 0.22501 0.225124 0.225259 0.22538 0.225207 0.222977 0.210769 0.162978 
0.163449 0.210951 0.222968 0.225136 0.225298 0.225179 0.225048 0.224938 0.224845 
0.224768 0.224705 0.224655 0.224619 0.224594 0.224582 0.224582 0.224594 0.224619 
0.224655 0.224705 0.224768 0.224845 0.224938 0.225048 0.225179 0.225298 0.225136 
0.222968 0.210951 0.163449 0.163928 0.211137 0.222962 0.225067 0.225218 0.2251 
0.224973 0.224866 0.224776 0.224702 0.224642 0.224595 0.22456 0.224537 0.224525 
0.224525 0.224537 0.22456 0.224595 0.224642 0.224702 0.224776 0.224866 0.224973 
0.2251 0.225218 0.225067 0.222962 0.211137 0.163928 0.164415 0.211327 0.222957 
0.225 0.22514 0.225022 0.224897 0.224793 0.224706 0.224635 0.224577 0.224532 
0.224498 0.224476 0.224465 0.224465 0.224476 0.224498 0.224532 0.224577 0.224635 
0.224706 0.224793 0.224897 0.225022 0.22514 0.225 0.222957 0.211327 0.164415 
0.16491 0.211518 0.222953 0.224934 0.225062 0.224944 0.224822 0.22472 0.224636 
0.224566 0.224511 0.224467 0.224435 0.224413 0.224403 0.224403 0.224413 0.224435 
0.224467 0.224511 0.224566 0.224636 0.22472 0.224822 0.224944 0.225062 0.224934 
0.222953 0.211518 0.16491 0.165411 0.211711 0.222951 0.22487 0.224986 0.224867 
0.224747 0.224646 0.224564 0.224497 0.224442 0.2244 0.224369 0.224348 0.224338 
0.224338 0.224348 0.224369 0.2244 0.224442 0.224497 0.224564 0.224646 0.224747 
0.224867 0.224986 0.22487 0.222951 0.211711 0.165411 0.165919 0.211906 0.222948 
0.224805 0.22491 0.224791 0.224671 0.224573 0.224492 0.224426 0.224373 0.224332 
0.224301 0.224281 0.224271 0.224271 0.224281 0.224301 0.224332 0.224373 0.224426 
0.224492 0.224573 0.224671 0.224791 0.22491 0.224805 0.222948 0.211906 0.165919 
0.166434 0.212102 0.222946 0.224742 0.224834 0.224714 0.224596 0.224499 0.224419 
0.224354 0.224302 0.224262 0.224232 0.224213 0.224203 0.224203 0.224213 0.224232 
0.224262 0.224302 0.224354 0.224419 0.224499 0.224596 0.224714 0.224834 0.224742 
0.222946 0.212102 0.166434 0.166954 0.212298 0.222943 0.224678 0.224759 0.224638 
0.224521 0.224424 0.224346 0.224282 0.224231 0.224191 0.224162 0.224143 0.224133 
0.224133 0.224143 0.224162 0.224191 0.224231 0.224282 0.224346 0.224424 0.224521 
0.224638 0.224759 0.224678 0.222943 0.212298 0.166954 0.167481 0.212494 0.22294 
0.224615 0.224684 0.224562 0.224445 0.22435 0.224272 0.224209 0.224159 0.224119 
0.224091 0.224072 0.224063 0.224063 0.224072 0.224091 0.224119 0.224159 0.224209 
0.224272 0.22435 0.224445 0.224562 0.224684 0.224615 0.22294 0.212494 0.167481 
0.168014 0.212691 0.222936 0.224551 0.224609 0.224486 0.22437 0.224275 0.224198 
0.224135 0.224086 0.224047 0.224019 0.224 0.223991 0.223991 0.224 0.224019 
0.224047 0.224086 0.224135 0.224198 0.224275 0.22437 0.224486 0.224609 0.224551 
0.222936 0.212691 0.168014 0.168553 0.212887 0.222931 0.224487 0.224535 0.22441 
0.224294 0.2242 0.224123 0.224061 0.224012 0.223974 0.223946 0.223927 0.223918 
0.223918 0.223927 0.223946 0.223974 0.224012 0.224061 0.224123 0.2242 0.224294 
0.22441 0.224535 0.224487 0.222931 0.212887 0.168553 0.169098 0.213084 0.222926 
0.224424 0.22446 0.224335 0.224219 0.224125 0.224049 0.223987 0.223938 0.2239 
0.223872 0.223854 0.223845 0.223845 0.223854 0.223872 0.2239 0.223938 0.223987 
0.224049 0.224125 0.224219 0.224335 0.22446 0.224424 0.222926 0.213084 0.169098 
0.169649 0.213279 0.22292 0.224359 0.224385 0.224259 0.224143 0.224049 0.223973 
0.223912 0.223864 0.223826 0.223798 0.22378 0.223771 0.223771 0.22378 0.223798 
0.223826 0.223864 0.223912 0.223973 0.224049 0.224143 0.224259 0.224385 0.224359 
0.22292 0.213279 0.169649 0.170206 0.213475 0.222913 0.224295 0.22431 0.224182 
0.224067 0.223974 0.223898 0.223837 0.223789 0.223751 0.223724 0.223706 0.223697 
0.223697 0.223706 0.223724 0.223751 0.223789 0.223837 0.223898 0.223974 0.224067 
0.224182 0.22431 0.224295 0.222913 0.213475 0.170206 0.170769 0.213669 0.222904 
0.22423 0.224235 0.224106 0.223991 0.223898 0.223822 0.223761 0.223713 0.223676 
0.223649 0.223631 0.223622 0.223622 0.223631 0.223649 0.223676 0.223713 0.223761 
0.223822 0.223898 0.223991 0.224106 0.224235 0.22423 0.222904 0.213669 0.170769 
0.171337 0.213863 0.222895 0.224165 0.22416 0.22403 0.223915 0.223821 0.223746 
0.223686 0.223638 0.223601 0.223574 0.223556 0.223547 0.223547 0.223556 0.223574 
0.223601 0.223638 0.223686 0.223746 0.223821 0.223915 0.22403 0.22416 0.224165 
0.222895 0.213863 0.171337 0.171912 0.214056 0.222884 0.224099 0.224085 0.223953 
0.223838 0.223745 0.22367 0.22361 0.223562 0.223525 0.223498 0.22348 0.223471 
0.223471 0.22348 0.223498 0.223525 0.223562 0.22361 0.22367 0.223745 0.223838 
0.223953 0.224085 0.224099 0.222884 0.214056 0.171912 0.172493 0.214248 0.222872 
0.224033 0.224009 0.223877 0.223762 0.223669 0.223594 0.223533 0.223486 0.223449 
0.223422 0.223404 0.223395 0.223395 0.223404 0.223422 0.223449 0.223486 0.223533 
0.223594 0.223669 0.223762 0.223877 0.224009 0.224033 0.222872 0.214248 0.172493 
0.17308 0.214439 0.222858 0.223966 0.223933 0.2238 0.223685 0.223592 0.223517 
0.223457 0.223409 0.223372 0.223345 0.223328 0.223319 0.223319 0.223328 0.223345 
0.223372 0.223409 0.223457 0.223517 0.223592 0.223685 0.2238 0.223933 0.223966 
0.222858 0.214439 0.17308 0.173673 0.214629 0.222844 0.223899 0.223857 0.223723 
0.223608 0.223515 0.22344 0.22338 0.223332 0.223295 0.223269 0.223251 0.223242 
0.223242 0.223251 0.223269 0.223295 0.223332 0.22338 0.22344 0.223515 0.223608 
0.223723 0.223857 0.223899 0.222844 0.214629 0.173673 0.174272 0.214817 0.222828 
0.223831 0.223781 0.223646 0.223531 0.223438 0.223363 0.223303 0.223255 0.223218 
0.223192 0.223174 0.223165 0.223165 0.223174 0.223192 0.223218 0.223255 0.223303 
0.223363 0.223438 0.223531 0.223646 0.223781 0.223831 0.222828 0.214817 0.174272 
0.174878 0.215005 0.22281 0.223763 0.223705 0.223568 0.223453 0.22336 0.223286 
0.223226 0.223178 0.223141 0.223114 0.223097 0.223088 0.223088 0.223097 0.223114 
0.223141 0.223178 0.223226 0.223286 0.22336 0.223453 0.223568 0.223705 0.223763 
0.22281 0.215005 0.174878 0.17549 0.215191 0.222792 0.223694 0.223628 0.223491 
0.223376 0.223283 0.223208 0.223148 0.223101 0.223064 0.223037 0.223019 0.223011 
0.223011 0.223019 0.223037 0.223064 0.223101 0.223148 0.223208 0.223283 0.223376 
0.223491 0.223628 0.223694 0.222792 0.215191 0.17549 0.176109 0.215375 0.222772 
0.223625 0.223551 0.223413 0.223298 0.223205 0.223131 0.22307 0.223023 0.222986 
0.222959 0.222942 0.222933 0.222933 0.222942 0.222959 0.222986 0.223023 0.22307 
0.223131 0.223205 0.223298 0.223413 0.223551 0.223625 0.222772 0.215375 0.176109 
0.176734 0.215558 0.22275 0.223555 0.223474 0.223335 0.22322 0.223127 0.223053 
0.222992 0.222945 0.222908 0.222881 0.222864 0.222855 0.222855 0.222864 0.222881 
0.222908 0.222945 0.222992 0.223053 0.223127 0.22322 0.223335 0.223474 0.223555 
0.22275 0.215558 0.176734 0.177366 0.215739 0.222727 0.223485 0.223397 0.223257 
0.223142 0.223049 0.222975 0.222914 0.222867 0.22283 0.222803 0.222786 0.222777 
0.222777 0.222786 0.222803 0.22283 0.222867 0.222914 0.222975 0.223049 0.223142 
0.223257 0.223397 0.223485 0.222727 0.215739 0.177366 0.178004 0.215918 0.222702 
0.223414 0.223319 0.223179 0.223064 0.222971 0.222896 0.222836 0.222789 0.222752 
0.222725 0.222707 0.222699 0.222699 0.222707 0.222725 0.222752 0.222789 0.222836 
0.222896 0.222971 0.223064 0.223179 0.223319 0.223414 0.222702 0.215918 0.178004 
0.178649 0.216096 0.222676 0.223342 0.223241 0.2231 0.222985 0.222892 0.222818 
0.222757 0.22271 0.222673 0.222646 0.222629 0.22262 0.22262 0.222629 0.222646 
0.222673 0.22271 0.222757 0.222818 0.222892 0.222985 0.2231 0.223241 0.223342 
0.222676 0.216096 0.178649 0.179302 0.216272 0.222649 0.223271 0.223163 0.223021 
0.222906 0.222813 0.222739 0.222679 0.222631 0.222594 0.222568 0.22255 0.222541 
0.222541 0.22255 0.222568 0.222594 0.222631 0.222679 0.222739 0.222813 0.222906 
0.223021 0.223163 0.223271 0.222649 0.216272 0.179302 0.179961 0.216446 0.22262 
0.223198 0.223085 0.222942 0.222827 0.222734 0.22266 0.2226 0.222552 0.222515 
0.222489 0.222471 0.222462 0.222462 0.222471 0.222489 0.222515 0.222552 0.2226 
0.22266 0.222734 0.222827 0.222942 0.223085 0.223198 0.22262 0.216446 0.179961 
0.180627 0.216617 0.222589 0.223125 0.223006 0.222863 0.222748 0.222655 0.222581 
0.22252 0.222473 0.222436 0.222409 0.222392 0.222383 0.222383 0.222392 0.222409 
0.222436 0.222473 0.22252 0.222581 0.222655 0.222748 0.222863 0.223006 0.223125 
0.222589 0.216617 0.180627 0.181301 0.216787 0.222557 0.223052 0.222928 0.222784 
0.222669 0.222576 0.222502 0.222441 0.222394 0.222357 0.22233 0.222312 0.222304 
0.222304 0.222312 0.22233 0.222357 0.222394 0.222441 0.222502 0.222576 0.222669 
0.222784 0.222928 0.223052 0.222557 0.216787 0.181301 0.181982 0.216954 0.222524 
0.222978 0.222849 0.222704 0.22259 0.222496 0.222422 0.222362 0.222314 0.222277 
0.22225 0.222233 0.222224 0.222224 0.222233 0.22225 0.222277 0.222314 0.222362 
0.222422 0.222496 0.22259 0.222704 0.222849 0.222978 0.222524 0.216954 0.181982 
0.18267 0.217119 0.222489 0.222904 0.222769 0.222625 0.22251 0.222417 0.222342 
0.222282 0.222234 0.222197 0.222171 0.222153 0.222144 0.222144 0.222153 0.222171 
0.222197 0.222234 0.222282 0.222342 0.222417 0.22251 0.222625 0.222769 0.222904 
0.222489 0.217119 0.18267 0.183366 0.217282 0.222452 0.222829 0.22269 0.222545 
0.22243 0.222337 0.222263 0.222202 0.222155 0.222117 0.222091 0.222073 0.222064 
0.222064 0.222073 0.222091 0.222117 0.222155 0.222202 0.222263 0.222337 0.22243 
0.222545 0.22269 0.222829 0.222452 0.217282 0.183366 0.184069 0.217442 0.222414 
0.222753 0.22261 0.222465 0.22235 0.222257 0.222182 0.222122 0.222074 0.222037 
0.222011 0.221993 0.221984 0.221984 0.221993 0.222011 0.222037 0.222074 0.222122 
0.222182 0.222257 0.22235 0.222465 0.22261 0.222753 0.222414 0.217442 0.184069 
0.18478 0.217599 0.222374 0.222678 0.22253 0.222384 0.22227 0.222176 0.222102 
0.222041 0.221994 0.221957 0.22193 0.221913 0.221904 0.221904 0.221913 0.22193 
0.221957 0.221994 0.222041 0.222102 0.222176 0.22227 0.222384 0.22253 0.222678 
0.222374 0.217599 0.18478 0.185499 0.217754 0.222333 0.222601 0.22245 0.222304 
0.222189 0.222096 0.222022 0.221961 0.221914 0.221876 0.22185 0.221832 0.221823 
0.221823 0.221832 0.22185 0.221876 0.221914 0.221961 0.222022 0.222096 0.222189 
0.222304 0.22245 0.222601 0.222333 0.217754 0.185499 0.186226 0.217906 0.22229 
0.222525 0.22237 0.222223 0.222109 0.222015 0.221941 0.22188 0.221833 0.221796 
0.221769 0.221751 0.221743 0.221743 0.221751 0.221769 0.221796 0.221833 0.22188 
0.221941 0.222015 0.222109 0.222223 0.22237 0.222525 0.22229 0.217906 0.186226 
0.186961 0.218055 0.222246 0.222447 0.222289 0.222142 0.222028 0.221934 0.22186 
0.221799 0.221752 0.221715 0.221688 0.22167 0.221662 0.221662 0.22167 0.221688 
0.221715 0.221752 0.221799 0.22186 0.221934 0.222028 0.222142 0.222289 0.222447 
0.222246 0.218055 0.186961 0.187705 0.218201 0.2222 0.22237 0.222208 0.222061 
0.221947 0.221853 0.221779 0.221718 0.221671 0.221634 0.221607 0.221589 0.221581 
0.221581 0.221589 0.221607 0.221634 0.221671 0.221718 0.221779 0.221853 0.221947 
0.222061 0.222208 0.22237 0.2222 0.218201 0.187705 0.188456 0.218343 0.222153 
0.222292 0.222127 0.22198 0.221866 0.221772 0.221698 0.221637 0.22159 0.221553 
0.221526 0.221508 0.2215 0.2215 0.221508 0.221526 0.221553 0.22159 0.221637 
0.221698 0.221772 0.221866 0.22198 0.222127 0.222292 0.222153 0.218343 0.188456 
0.189216 0.218482 0.222103 0.222213 0.222046 0.221898 0.221784 0.221691 0.221617 
0.221556 0.221508 0.221471 0.221445 0.221427 0.221418 0.221418 0.221427 0.221445 
0.221471 0.221508 0.221556 0.221617 0.221691 0.221784 0.221898 0.222046 0.222213 
0.222103 0.218482 0.189216 0.189985 0.218618 0.222053 0.222134 0.221965 0.221817 
0.221703 0.221609 0.221535 0.221474 0.221427 0.22139 0.221363 0.221345 0.221337 
0.221337 0.221345 0.221363 0.22139 0.221427 0.221474 0.221535 0.221609 0.221703 
0.221817 0.221965 0.222134 0.222053 0.218618 0.189985 0.190762 0.21875 0.222001 
0.222055 0.221883 0.221735 0.221621 0.221527 0.221453 0.221392 0.221345 0.221308 
0.221281 0.221264 0.221255 0.221255 0.221264 0.221281 0.221308 0.221345 0.221392 
0.221453 0.221527 0.221621 0.221735 0.221883 0.222055 0.222001 0.21875 0.190762 
0.191548 0.218878 0.221947 0.221975 0.221801 0.221653 0.221539 0.221445 0.221371 
0.221311 0.221263 0.221226 0.2212 0.221182 0.221173 0.221173 0.221182 0.2212 
0.221226 0.221263 0.221311 0.221371 0.221445 0.221539 0.221653 0.221801 0.221975 
0.221947 0.218878 0.191548 0.192343 0.219003 0.221892 0.221895 0.221719 0.221571 
0.221457 0.221363 0.221289 0.221229 0.221181 0.221144 0.221118 0.2211 0.221091 
0.221091 0.2211 0.221118 0.221144 0.221181 0.221229 0.221289 0.221363 0.221457 
0.221571 0.221719 0.221895 0.221892 0.219003 0.192343 0.193147 0.219123 0.221835 
0.221814 0.221636 0.221488 0.221374 0.221281 0.221207 0.221146 0.221099 0.221062 
0.221036 0.221018 0.22101 0.22101 0.221018 0.221036 0.221062 0.221099 0.221146 
0.221207 0.221281 0.221374 0.221488 0.221636 0.221814 0.221835 0.219123 0.193147 
0.19396 0.219239 0.221776 0.221733 0.221554 0.221405 0.221292 0.221198 0.221125 
0.221064 0.221017 0.22098 0.220954 0.220936 0.220927 0.220927 0.220936 0.220954 
0.22098 0.221017 0.221064 0.221125 0.221198 0.221292 0.221405 0.221554 0.221733 
0.221776 0.219239 0.19396 0.194783 0.219351 0.221716 0.221652 0.221471 0.221323 
0.221209 0.221116 0.221042 0.220982 0.220935 0.220898 0.220871 0.220854 0.220845 
0.220845 0.220854 0.220871 0.220898 0.220935 0.220982 0.221042 0.221116 0.221209 