# vtk DataFile Version 5.1
vtk output
ASCII
DATASET UNSTRUCTURED_GRID
POINTS 9486 double
0.1016 1.5 0 0.1016 1.45 0 0.1016 1.4 0 
0.1016 1.35 0 0.1016 1.3 0 0.1016 1.25 0 
0.1016 1.2 0 0.1016 1.15 0 0.1016 1.1 0 
0.1016 1.05 0 0.1016 1 0 0.1016 0.95 0 
0.1016 0.9 0 0.1016 0.85 0 0.1016 0.8 0 
0.1016 0.75 0 0.1016 0.7 0 0.1016 0.65 0 
0.1016 0.6 0 0.1016 0.55 0 0.1016 0.5 0 
0.1016 0.45 0 0.1016 0.4 0 0.1016 0.35 0 
0.1016 0.3 0 0.1016 0.25 0 0.1016 0.2 0 
0.1016 0.15 0 0.1016 0.1 0 0.1016 0.05 0 
0.1016 0 0 5.08 1.5 0 5.08 1.45 0 
5.08 1.4 0 5.08 1.35 0 5.08 1.3 0 
5.08 1.25 0 5.08 1.2 0 5.08 1.15 0 
5.08 1.1 0 5.08 1.05 0 5.08 1 0 
5.08 0.95 0 5.08 0.9 0 5.08 0.85 0 
5.08 0.8 0 5.08 0.75 0 5.08 0.7 0 
5.08 0.65 0 5.08 0.6 0 5.08 0.55 0 
5.08 0.5 0 5.08 0.45 0 5.08 0.4 0 
5.08 0.35 0 5.08 0.3 0 5.08 0.25 0 
5.08 0.2 0 5.08 0.15 0 5.08 0.1 0 
5.08 0.05 0 5.08 0 0 0.151384 1.5 0 
0.151384 1.45 0 0.151384 1.4 0 0.151384 1.35 0 
0.151384 1.3 0 0.151384 1.25 0 0.151384 1.2 0 
0.151384 1.15 0 0.151384 1.1 0 0.151384 1.05 0 
0.151384 1 0 0.151384 0.95 0 0.151384 0.9 0 
0.151384 0.85 0 0.151384 0.8 0 0.151384 0.75 0 
0.151384 0.7 0 0.151384 0.65 0 0.151384 0.6 0 
0.151384 0.55 0 0.151384 0.5 0 0.151384 0.45 0 
0.151384 0.4 0 0.151384 0.35 0 0.151384 0.3 0 
0.151384 0.25 0 0.151384 0.2 0 0.151384 0.15 0 
0.151384 0.1 0 0.151384 0.05 0 0.151384 0 0 
0.201168 1.5 0 0.201168 1.45 0 0.201168 1.4 0 
0.201168 1.35 0 0.201168 1.3 0 0.201168 1.25 0 
0.201168 1.2 0 0.201168 1.15 0 0.201168 1.1 0 
0.201168 1.05 0 0.201168 1 0 0.201168 0.95 0 
0.201168 0.9 0 0.201168 0.85 0 0.201168 0.8 0 
0.201168 0.75 0 0.201168 0.7 0 0.201168 0.65 0 
0.201168 0.6 0 0.201168 0.55 0 0.201168 0.5 0 
0.201168 0.45 0 0.201168 0.4 0 0.201168 0.35 0 
0.201168 0.3 0 0.201168 0.25 0 0.201168 0.2 0 
0.201168 0.15 0 0.201168 0.1 0 0.201168 0.05 0 
0.201168 0 0 0.250952 1.5 0 0.250952 1.45 0 
0.250952 1.4 0 0.250952 1.35 0 0.250952 1.3 0 
0.250952 1.25 0 0.250952 1.2 0 0.250952 1.15 0 
0.250952 1.1 0 0.250952 1.05 0 0.250952 1 0 
0.250952 0.95 0 0.250952 0.9 0 0.250952 0.85 0 
0.250952 0.8 0 0.250952 0.75 0 0.250952 0.7 0 
0.250952 0.65 0 0.250952 0.6 0 0.250952 0.55 0 
0.250952 0.5 0 0.250952 0.45 0 0.250952 0.4 0 
0.250952 0.35 0 0.250952 0.3 0 0.250952 0.25 0 
0.250952 0.2 0 0.250952 0.15 0 0.250952 0.1 0 
0.250952 0.05 0 0.250952 0 0 0.300736 1.5 0 
0.300736 1.45 0 0.300736 1.4 0 0.300736 1.35 0 
0.300736 1.3 0 0.300736 1.25 0 0.300736 1.2 0 
0.300736 1.15 0 0.300736 1.1 0 0.300736 1.05 0 
0.300736 1 0 0.300736 0.95 0 0.300736 0.9 0 
0.300736 0.85 0 0.300736 0.8 0 0.300736 0.75 0 
0.300736 0.7 0 0.300736 0.65 0 0.300736 0.6 0 
0.300736 0.55 0 0.300736 0.5 0 0.300736 0.45 0 
0.300736 0.4 0 0.300736 0.35 0 0.300736 0.3 0 
0.300736 0.25 0 0.300736 0.2 0 0.300736 0.15 0 
0.300736 0.1 0 0.300736 0.05 0 0.300736 0 0 
0.35052 1.5 0 0.35052 1.45 0 0.35052 1.4 0 
0.35052 1.35 0 0.35052 1.3 0 0.35052 1.25 0 
0.35052 1.2 0 0.35052 1.15 0 0.35052 1.1 0 
0.35052 1.05 0 0.35052 1 0 0.35052 0.95 0 
0.35052 0.9 0 0.35052 0.85 0 0.35052 0.8 0 
0.35052 0.75 0 0.35052 0.7 0 0.35052 0.65 0 
0.35052 0.6 0 0.35052 0.55 0 0.35052 0.5 0 
0.35052 0.45 0 0.35052 0.4 0 0.35052 0.35 0 
0.35052 0.3 0 0.35052 0.25 0 0.35052 0.2 0 
0.35052 0.15 0 0.35052 0.1 0 0.35052 0.05 0 
0.35052 0 0 0.400304 1.5 0 0.400304 1.45 0 
0.400304 1.4 0 0.400304 1.35 0 0.400304 1.3 0 
0.400304 1.25 0 0.400304 1.2 0 0.400304 1.15 0 
0.400304 1.1 0 0.400304 1.05 0 0.400304 1 0 
0.400304 0.95 0 0.400304 0.9 0 0.400304 0.85 0 
0.400304 0.8 0 0.400304 0.75 0 0.400304 0.7 0 
0.400304 0.65 0 0.400304 0.6 0 0.400304 0.55 0 
0.400304 0.5 0 0.400304 0.45 0 0.400304 0.4 0 
0.400304 0.35 0 0.400304 0.3 0 0.400304 0.25 0 
0.400304 0.2 0 0.400304 0.15 0 0.400304 0.1 0 
0.400304 0.05 0 0.400304 0 0 0.450088 1.5 0 
0.450088 1.45 0 0.450088 1.4 0 0.450088 1.35 0 
0.450088 1.3 0 0.450088 1.25 0 0.450088 1.2 0 
0.450088 1.15 0 0.450088 1.1 0 0.450088 1.05 0 
0.450088 1 0 0.450088 0.95 0 0.450088 0.9 0 
0.450088 0.85 0 0.450088 0.8 0 0.450088 0.75 0 
0.450088 0.7 0 0.450088 0.65 0 0.450088 0.6 0 
0.450088 0.55 0 0.450088 0.5 0 0.450088 0.45 0 
0.450088 0.4 0 0.450088 0.35 0 0.450088 0.3 0 
0.450088 0.25 0 0.450088 0.2 0 0.450088 0.15 0 
0.450088 0.1 0 0.450088 0.05 0 0.450088 0 0 
0.499872 1.5 0 0.499872 1.45 0 0.499872 1.4 0 
0.499872 1.35 0 0.499872 1.3 0 0.499872 1.25 0 
0.499872 1.2 0 0.499872 1.15 0 0.499872 1.1 0 
0.499872 1.05 0 0.499872 1 0 0.499872 0.95 0 
0.499872 0.9 0 0.499872 0.85 0 0.499872 0.8 0 
0.499872 0.75 0 0.499872 0.7 0 0.499872 0.65 0 
0.499872 0.6 0 0.499872 0.55 0 0.499872 0.5 0 
0.499872 0.45 0 0.499872 0.4 0 0.499872 0.35 0 
0.499872 0.3 0 0.499872 0.25 0 0.499872 0.2 0 
0.499872 0.15 0 0.499872 0.1 0 0.499872 0.05 0 
0.499872 0 0 0.549656 1.5 0 0.549656 1.45 0 
0.549656 1.4 0 0.549656 1.35 0 0.549656 1.3 0 
0.549656 1.25 0 0.549656 1.2 0 0.549656 1.15 0 
0.549656 1.1 0 0.549656 1.05 0 0.549656 1 0 
0.549656 0.95 0 0.549656 0.9 0 0.549656 0.85 0 
0.549656 0.8 0 0.549656 0.75 0 0.549656 0.7 0 
0.549656 0.65 0 0.549656 0.6 0 0.549656 0.55 0 
0.549656 0.5 0 0.549656 0.45 0 0.549656 0.4 0 
0.549656 0.35 0 0.549656 0.3 0 0.549656 0.25 0 
0.549656 0.2 0 0.549656 0.15 0 0.549656 0.1 0 
0.549656 0.05 0 0.549656 0 0 0.59944 1.5 0 
0.59944 1.45 0 0.59944 1.4 0 0.59944 1.35 0 
0.59944 1.3 0 0.59944 1.25 0 0.59944 1.2 0 
0.59944 1.15 0 0.59944 1.1 0 0.59944 1.05 0 
0.59944 1 0 0.59944 0.95 0 0.59944 0.9 0 
0.59944 0.85 0 0.59944 0.8 0 0.59944 0.75 0 
0.59944 0.7 0 0.59944 0.65 0 0.59944 0.6 0 
0.59944 0.55 0 0.59944 0.5 0 0.59944 0.45 0 
0.59944 0.4 0 0.59944 0.35 0 0.59944 0.3 0 
0.59944 0.25 0 0.59944 0.2 0 0.59944 0.15 0 
0.59944 0.1 0 0.59944 0.05 0 0.59944 0 0 
0.649224 1.5 0 0.649224 1.45 0 0.649224 1.4 0 
0.649224 1.35 0 0.649224 1.3 0 0.649224 1.25 0 
0.649224 1.2 0 0.649224 1.15 0 0.649224 1.1 0 
0.649224 1.05 0 0.649224 1 0 0.649224 0.95 0 
0.649224 0.9 0 0.649224 0.85 0 0.649224 0.8 0 
0.649224 0.75 0 0.649224 0.7 0 0.649224 0.65 0 
0.649224 0.6 0 0.649224 0.55 0 0.649224 0.5 0 
0.649224 0.45 0 0.649224 0.4 0 0.649224 0.35 0 
0.649224 0.3 0 0.649224 0.25 0 0.649224 0.2 0 
0.649224 0.15 0 0.649224 0.1 0 0.649224 0.05 0 
0.649224 0 0 0.699008 1.5 0 0.699008 1.45 0 
0.699008 1.4 0 0.699008 1.35 0 0.699008 1.3 0 
0.699008 1.25 0 0.699008 1.2 0 0.699008 1.15 0 
0.699008 1.1 0 0.699008 1.05 0 0.699008 1 0 
0.699008 0.95 0 0.699008 0.9 0 0.699008 0.85 0 
0.699008 0.8 0 0.699008 0.75 0 0.699008 0.7 0 
0.699008 0.65 0 0.699008 0.6 0 0.699008 0.55 0 
0.699008 0.5 0 0.699008 0.45 0 0.699008 0.4 0 
0.699008 0.35 0 0.699008 0.3 0 0.699008 0.25 0 
0.699008 0.2 0 0.699008 0.15 0 0.699008 0.1 0 
0.699008 0.05 0 0.699008 0 0 0.748792 1.5 0 
0.748792 1.45 0 0.748792 1.4 0 0.748792 1.35 0 
0.748792 1.3 0 0.748792 1.25 0 0.748792 1.2 0 
0.748792 1.15 0 0.748792 1.1 0 0.748792 1.05 0 
0.748792 1 0 0.748792 0.95 0 0.748792 0.9 0 
0.748792 0.85 0 0.748792 0.8 0 0.748792 0.75 0 
0.748792 0.7 0 0.748792 0.65 0 0.748792 0.6 0 
0.748792 0.55 0 0.748792 0.5 0 0.748792 0.45 0 
0.748792 0.4 0 0.748792 0.35 0 0.748792 0.3 0 
0.748792 0.25 0 0.748792 0.2 0 0.748792 0.15 0 
0.748792 0.1 0 0.748792 0.05 0 0.748792 0 0 
0.798576 1.5 0 0.798576 1.45 0 0.798576 1.4 0 
0.798576 1.35 0 0.798576 1.3 0 0.798576 1.25 0 
0.798576 1.2 0 0.798576 1.15 0 0.798576 1.1 0 
0.798576 1.05 0 0.798576 1 0 0.798576 0.95 0 
0.798576 0.9 0 0.798576 0.85 0 0.798576 0.8 0 
0.798576 0.75 0 0.798576 0.7 0 0.798576 0.65 0 
0.798576 0.6 0 0.798576 0.55 0 0.798576 0.5 0 
0.798576 0.45 0 0.798576 0.4 0 0.798576 0.35 0 
0.798576 0.3 0 0.798576 0.25 0 0.798576 0.2 0 
0.798576 0.15 0 0.798576 0.1 0 0.798576 0.05 0 
0.798576 0 0 0.84836 1.5 0 0.84836 1.45 0 
0.84836 1.4 0 0.84836 1.35 0 0.84836 1.3 0 
0.84836 1.25 0 0.84836 1.2 0 0.84836 1.15 0 
0.84836 1.1 0 0.84836 1.05 0 0.84836 1 0 
0.84836 0.95 0 0.84836 0.9 0 0.84836 0.85 0 
0.84836 0.8 0 0.84836 0.75 0 0.84836 0.7 0 
0.84836 0.65 0 0.84836 0.6 0 0.84836 0.55 0 
0.84836 0.5 0 0.84836 0.45 0 0.84836 0.4 0 
0.84836 0.35 0 0.84836 0.3 0 0.84836 0.25 0 
0.84836 0.2 0 0.84836 0.15 0 0.84836 0.1 0 
0.84836 0.05 0 0.84836 0 0 0.898144 1.5 0 
0.898144 1.45 0 0.898144 1.4 0 0.898144 1.35 0 
0.898144 1.3 0 0.898144 1.25 0 0.898144 1.2 0 
0.898144 1.15 0 0.898144 1.1 0 0.898144 1.05 0 
0.898144 1 0 0.898144 0.95 0 0.898144 0.9 0 
0.898144 0.85 0 0.898144 0.8 0 0.898144 0.75 0 
0.898144 0.7 0 0.898144 0.65 0 0.898144 0.6 0 
0.898144 0.55 0 0.898144 0.5 0 0.898144 0.45 0 
0.898144 0.4 0 0.898144 0.35 0 0.898144 0.3 0 
0.898144 0.25 0 0.898144 0.2 0 0.898144 0.15 0 
0.898144 0.1 0 0.898144 0.05 0 0.898144 0 0 
0.947928 1.5 0 0.947928 1.45 0 0.947928 1.4 0 
0.947928 1.35 0 0.947928 1.3 0 0.947928 1.25 0 
0.947928 1.2 0 0.947928 1.15 0 0.947928 1.1 0 
0.947928 1.05 0 0.947928 1 0 0.947928 0.95 0 
0.947928 0.9 0 0.947928 0.85 0 0.947928 0.8 0 
0.947928 0.75 0 0.947928 0.7 0 0.947928 0.65 0 
0.947928 0.6 0 0.947928 0.55 0 0.947928 0.5 0 
0.947928 0.45 0 0.947928 0.4 0 0.947928 0.35 0 
0.947928 0.3 0 0.947928 0.25 0 0.947928 0.2 0 
0.947928 0.15 0 0.947928 0.1 0 0.947928 0.05 0 
0.947928 0 0 0.997712 1.5 0 0.997712 1.45 0 
0.997712 1.4 0 0.997712 1.35 0 0.997712 1.3 0 
0.997712 1.25 0 0.997712 1.2 0 0.997712 1.15 0 
0.997712 1.1 0 0.997712 1.05 0 0.997712 1 0 
0.997712 0.95 0 0.997712 0.9 0 0.997712 0.85 0 
0.997712 0.8 0 0.997712 0.75 0 0.997712 0.7 0 
0.997712 0.65 0 0.997712 0.6 0 0.997712 0.55 0 
0.997712 0.5 0 0.997712 0.45 0 0.997712 0.4 0 
0.997712 0.35 0 0.997712 0.3 0 0.997712 0.25 0 
0.997712 0.2 0 0.997712 0.15 0 0.997712 0.1 0 
0.997712 0.05 0 0.997712 0 0 1.047496 1.5 0 
1.047496 1.45 0 1.047496 1.4 0 1.047496 1.35 0 
1.047496 1.3 0 1.047496 1.25 0 1.047496 1.2 0 
1.047496 1.15 0 1.047496 1.1 0 1.047496 1.05 0 
1.047496 1 0 1.047496 0.95 0 1.047496 0.9 0 
1.047496 0.85 0 1.047496 0.8 0 1.047496 0.75 0 
1.047496 0.7 0 1.047496 0.65 0 1.047496 0.6 0 
1.047496 0.55 0 1.047496 0.5 0 1.047496 0.45 0 
1.047496 0.4 0 1.047496 0.35 0 1.047496 0.3 0 
1.047496 0.25 0 1.047496 0.2 0 1.047496 0.15 0 
[...]
CELL_DATA 9150
FIELD FieldData 7
B_Stress_n_p_m2 1 9150 float
0.442001 0.436683 0.433995 0.433053 0.432779 0.432736 0.43277 0.432824 0.432881 
0.432936 0.432987 0.433035 0.433078 0.433116 0.433144 0.433144 0.433116 0.433078 
0.433035 0.432987 0.432936 0.432881 0.432824 0.43277 0.432736 0.432779 0.433053 
0.433995 0.436683 0.442001 0.214786 0.215116 0.214816 0.214857 0.215082 0.215323 
0.215532 0.215699 0.21583 0.215929 0.216004 0.21606 0.216102 0.216131 0.216148 
0.216148 0.216131 0.216102 0.21606 0.216004 0.215929 0.21583 0.215699 0.215532 
0.215323 0.215082 0.214857 0.214816 0.215116 0.214786 0.205671 0.209044 0.210694 
0.211668 0.212375 0.212902 0.213299 0.213597 0.213818 0.213979 0.214094 0.214173 
0.214225 0.214254 0.214266 0.214266 0.214254 0.214225 0.214173 0.214094 0.213979 
0.213818 0.213597 0.213299 0.212902 0.212375 0.211668 0.210694 0.209044 0.205671 
0.213569 0.216079 0.217844 0.219108 0.220059 0.220782 0.221334 0.221754 0.222071 
0.222307 0.22248 0.222602 0.222685 0.222736 0.222759 0.222759 0.222736 0.222685 
0.222602 0.22248 0.222307 0.222071 0.221754 0.221334 0.220782 0.220059 0.219108 
0.217844 0.216079 0.213569 0.212932 0.215209 0.217013 0.218433 0.219549 0.220423 
0.221105 0.221633 0.222037 0.222343 0.22257 0.222734 0.222846 0.222916 0.22295 
0.22295 0.222916 0.222846 0.222734 0.22257 0.222343 0.222037 0.221633 0.221105 
0.220423 0.219549 0.218433 0.217013 0.215209 0.212932 0.211993 0.214357 0.216267 
0.217812 0.219056 0.220051 0.22084 0.221461 0.221942 0.222311 0.222587 0.222788 
0.222927 0.223015 0.223057 0.223057 0.223015 0.222927 0.222788 0.222587 0.222311 
0.221942 0.221461 0.22084 0.220051 0.219056 0.217812 0.216267 0.214357 0.211993 
0.211531 0.213931 0.215912 0.217548 0.218888 0.219978 0.220854 0.221552 0.222099 
0.222523 0.222843 0.223079 0.223243 0.223347 0.223397 0.223397 0.223347 0.223243 
0.223079 0.222843 0.222523 0.222099 0.221552 0.220854 0.219978 0.218888 0.217548 
0.215912 0.213931 0.211531 0.211193 0.213598 0.215624 0.217323 0.218736 0.219899 
0.220845 0.221606 0.222209 0.22268 0.223039 0.223305 0.223491 0.223609 0.223667 
0.223667 0.223609 0.223491 0.223305 0.223039 0.22268 0.222209 0.221606 0.220845 
0.219899 0.218736 0.217323 0.215624 0.213598 0.211193 0.210925 0.213332 0.215388 
0.217133 0.2186 0.21982 0.220821 0.221633 0.222283 0.222793 0.223185 0.223477 
0.223683 0.223814 0.223878 0.223878 0.223814 0.223683 0.223477 0.223185 0.222793 
0.222283 0.221633 0.220821 0.21982 0.2186 0.217133 0.215388 0.213332 0.210925 
0.210718 0.213126 0.215204 0.216982 0.21849 0.219753 0.220798 0.221651 0.222338 
0.222881 0.2233 0.223614 0.223836 0.223978 0.224048 0.224048 0.223978 0.223836 
0.223614 0.2233 0.222881 0.222338 0.221651 0.220798 0.219753 0.21849 0.216982 
0.215204 0.213126 0.210718 0.21056 0.212968 0.21506 0.216863 0.218401 0.219697 
0.220775 0.221661 0.222378 0.222947 0.223389 0.223721 0.223958 0.224109 0.224183 
0.224183 0.224109 0.223958 0.223721 0.223389 0.222947 0.222378 0.221661 0.220775 
0.219697 0.218401 0.216863 0.21506 0.212968 0.21056 0.210438 0.212846 0.214949 
0.21677 0.21833 0.219651 0.220755 0.221666 0.222407 0.222997 0.223458 0.223804 
0.224052 0.22421 0.224288 0.224288 0.22421 0.224052 0.223804 0.223458 0.222997 
0.222407 0.221666 0.220755 0.219651 0.21833 0.21677 0.214949 0.212846 0.210438 
0.210347 0.212754 0.214864 0.216698 0.218274 0.219614 0.220738 0.221668 0.222427 
0.223034 0.223508 0.223867 0.224123 0.224288 0.224368 0.224368 0.224288 0.224123 
0.223867 0.223508 0.223034 0.222427 0.221668 0.220738 0.219614 0.218274 0.216698 
0.214864 0.212754 0.210347 0.210278 0.212684 0.2148 0.216643 0.218231 0.219584 
0.220723 0.221668 0.22244 0.22306 0.223545 0.223913 0.224176 0.224345 0.224428 
0.224428 0.224345 0.224176 0.223913 0.223545 0.22306 0.22244 0.221668 0.220723 
0.219584 0.218231 0.216643 0.2148 0.212684 0.210278 0.210228 0.212634 0.214753 
0.216602 0.218199 0.219562 0.220711 0.221666 0.222448 0.223077 0.223571 0.223945 
0.224213 0.224386 0.22447 0.22447 0.224386 0.224213 0.223945 0.223571 0.223077 
0.222448 0.221666 0.220711 0.219562 0.218199 0.216602 0.214753 0.212634 0.210228 
0.210193 0.212598 0.214719 0.216572 0.218175 0.219545 0.220701 0.221663 0.222453 
0.223088 0.223587 0.223966 0.224237 0.224413 0.224499 0.224499 0.224413 0.224237 
0.223966 0.223587 0.223088 0.222453 0.221663 0.220701 0.219545 0.218175 0.216572 
0.214719 0.212598 0.210193 0.210171 0.212574 0.214697 0.216553 0.218158 0.219532 
0.220693 0.22166 0.222454 0.223093 0.223596 0.223977 0.224251 0.224428 0.224515 
0.224515 0.224428 0.224251 0.223977 0.223596 0.223093 0.222454 0.22166 0.220693 
0.219532 0.218158 0.216553 0.214697 0.212574 0.210171 0.210158 0.212561 0.214683 
0.21654 0.218148 0.219524 0.220687 0.221656 0.222452 0.223094 0.223598 0.223981 
0.224256 0.224434 0.224521 0.224521 0.224434 0.224256 0.223981 0.223598 0.223094 
0.222452 0.221656 0.220687 0.219524 0.218148 0.21654 0.214683 0.212561 0.210158 
0.210154 0.212555 0.214677 0.216535 0.218142 0.219519 0.220682 0.221652 0.222449 
0.22309 0.223595 0.223979 0.224254 0.224432 0.224519 0.224519 0.224432 0.224254 
0.223979 0.223595 0.22309 0.222449 0.221652 0.220682 0.219519 0.218142 0.216535 
0.214677 0.212555 0.210154 0.210156 0.212556 0.214678 0.216534 0.218141 0.219516 
0.220679 0.221648 0.222443 0.223084 0.223588 0.223971 0.224246 0.224423 0.22451 
0.22451 0.224423 0.224246 0.223971 0.223588 0.223084 0.222443 0.221648 0.220679 
0.219516 0.218141 0.216534 0.214678 0.212556 0.210156 0.210164 0.212563 0.214683 
0.216538 0.218143 0.219516 0.220677 0.221644 0.222437 0.223076 0.223578 0.223959 
0.224233 0.224409 0.224496 0.224496 0.224409 0.224233 0.223959 0.223578 0.223076 
0.222437 0.221644 0.220677 0.219516 0.218143 0.216538 0.214683 0.212563 0.210164 
0.210177 0.212574 0.214693 0.216545 0.218148 0.219518 0.220676 0.221639 0.222429 
0.223065 0.223565 0.223943 0.224215 0.224391 0.224476 0.224476 0.224391 0.224215 
0.223943 0.223565 0.223065 0.222429 0.221639 0.220676 0.219518 0.218148 0.216545 
0.214693 0.212574 0.210177 0.210193 0.21259 0.214706 0.216556 0.218156 0.219522 
0.220675 0.221635 0.222421 0.223053 0.223549 0.223925 0.224194 0.224368 0.224453 
0.224453 0.224368 0.224194 0.223925 0.223549 0.223053 0.222421 0.221635 0.220675 
0.219522 0.218156 0.216556 0.214706 0.21259 0.210193 0.210213 0.212608 0.214722 
0.216569 0.218165 0.219527 0.220676 0.22163 0.222411 0.223039 0.223531 0.223903 
0.22417 0.224342 0.224426 0.224426 0.224342 0.22417 0.223903 0.223531 0.223039 
0.222411 0.22163 0.220676 0.219527 0.218165 0.216569 0.214722 0.212608 0.210213 
0.210236 0.212629 0.214741 0.216585 0.218176 0.219533 0.220676 0.221626 0.222401 
0.223024 0.223511 0.22388 0.224144 0.224313 0.224396 0.224396 0.224313 0.224144 
0.22388 0.223511 0.223024 0.222401 0.221626 0.220676 0.219533 0.218176 0.216585 
0.214741 0.212629 0.210236 0.210261 0.212653 0.214762 0.216602 0.218189 0.219541 
0.220678 0.221621 0.222391 0.223007 0.22349 0.223854 0.224115 0.224282 0.224364 
0.224364 0.224282 0.224115 0.223854 0.22349 0.223007 0.222391 0.221621 0.220678 
0.219541 0.218189 0.216602 0.214762 0.212653 0.210261 0.210288 0.212679 0.214785 
0.216621 0.218203 0.219549 0.22068 0.221616 0.22238 0.22299 0.223467 0.223827 
0.224084 0.224249 0.22433 0.22433 0.224249 0.224084 0.223827 0.223467 0.22299 
0.22238 0.221616 0.22068 0.219549 0.218203 0.216621 0.214785 0.212679 0.210288 
0.210317 0.212707 0.21481 0.216642 0.218218 0.219558 0.220682 0.221611 0.222368 
0.222972 0.223443 0.223798 0.224051 0.224214 0.224293 0.224293 0.224214 0.224051 
0.223798 0.223443 0.222972 0.222368 0.221611 0.220682 0.219558 0.218218 0.216642 
0.21481 0.212707 0.210317 0.210348 0.212736 0.214837 0.216664 0.218234 0.219568 
0.220685 0.221607 0.222356 0.222953 0.223418 0.223768 0.224017 0.224177 0.224255 
0.224255 0.224177 0.224017 0.223768 0.223418 0.222953 0.222356 0.221607 0.220685 
0.219568 0.218234 0.216664 0.214837 0.212736 0.210348 0.210381 0.212767 0.214865 
0.216687 0.218252 0.219578 0.220687 0.221602 0.222344 0.222934 0.223393 0.223737 
0.223982 0.224139 0.224215 0.224215 0.224139 0.223982 0.223737 0.223393 0.222934 
0.222344 0.221602 0.220687 0.219578 0.218252 0.216687 0.214865 0.212767 0.210381 
0.210415 0.2128 0.214894 0.216711 0.21827 0.219589 0.22069 0.221597 0.222331 
0.222914 0.223366 0.223705 0.223945 0.224099 0.224174 0.224174 0.224099 0.223945 
0.223705 0.223366 0.222914 0.222331 0.221597 0.22069 0.219589 0.21827 0.216711 
0.214894 0.2128 0.210415 0.21045 0.212834 0.214924 0.216736 0.218288 0.2196 
0.220694 0.221592 0.222318 0.222893 0.223338 0.223671 0.223907 0.224058 0.224132 
0.224132 0.224058 0.223907 0.223671 0.223338 0.222893 0.222318 0.221592 0.220694 
0.2196 0.218288 0.216736 0.214924 0.212834 0.21045 0.210487 0.212869 0.214956 
0.216763 0.218308 0.219612 0.220697 0.221587 0.222304 0.222872 0.22331 0.223637 
0.223869 0.224016 0.224088 0.224088 0.224016 0.223869 0.223637 0.22331 0.222872 
0.222304 0.221587 0.220697 0.219612 0.218308 0.216763 0.214956 0.212869 0.210487 
0.210525 0.212905 0.214988 0.21679 0.218328 0.219624 0.220701 0.221582 0.22229 
0.22285 0.223281 0.223602 0.223829 0.223973 0.224043 0.224043 0.223973 0.223829 
0.223602 0.223281 0.22285 0.22229 0.221582 0.220701 0.219624 0.218328 0.21679 
0.214988 0.212905 0.210525 0.210564 0.212942 0.215022 0.216818 0.218349 0.219637 
0.220705 0.221577 0.222276 0.222827 0.223251 0.223566 0.223788 0.223929 0.223997 
0.223997 0.223929 0.223788 0.223566 0.223251 0.222827 0.222276 0.221577 0.220705 
0.219637 0.218349 0.216818 0.215022 0.212942 0.210564 0.210605 0.212981 0.215057 
0.216847 0.218371 0.21965 0.220709 0.221571 0.222262 0.222804 0.22322 0.223529 
0.223746 0.223883 0.22395 0.22395 0.223883 0.223746 0.223529 0.22322 0.222804 
0.222262 0.221571 0.220709 0.21965 0.218371 0.216847 0.215057 0.212981 0.210605 
0.210646 0.213021 0.215092 0.216877 0.218393 0.219664 0.220713 0.221566 0.222247 
0.222781 0.223189 0.223491 0.223703 0.223837 0.223902 0.223902 0.223837 0.223703 
0.223491 0.223189 0.222781 0.222247 0.221566 0.220713 0.219664 0.218393 0.216877 
0.215092 0.213021 0.210646 0.210689 0.213062 0.215129 0.216907 0.218416 0.219678 
0.220717 0.22156 0.222232 0.222757 0.223157 0.223452 0.223659 0.22379 0.223853 
0.223853 0.22379 0.223659 0.223452 0.223157 0.222757 0.222232 0.22156 0.220717 
0.219678 0.218416 0.216907 0.215129 0.213062 0.210689 0.210733 0.213104 0.215167 
0.216939 0.21844 0.219692 0.220722 0.221555 0.222216 0.222732 0.223124 0.223413 
0.223614 0.223742 0.223803 0.223803 0.223742 0.223614 0.223413 0.223124 0.222732 
0.222216 0.221555 0.220722 0.219692 0.21844 0.216939 0.215167 0.213104 0.210733 
0.210778 0.213147 0.215206 0.216971 0.218464 0.219707 0.220726 0.221549 0.222201 
0.222707 0.223091 0.223373 0.223569 0.223692 0.223752 0.223752 0.223692 0.223569 
0.223373 0.223091 0.222707 0.222201 0.221549 0.220726 0.219707 0.218464 0.216971 
0.215206 0.213147 0.210778 0.210825 0.213192 0.215246 0.217004 0.218488 0.219722 
0.220731 0.221543 0.222184 0.222681 0.223057 0.223331 0.223522 0.223642 0.2237 
0.2237 0.223642 0.223522 0.223331 0.223057 0.222681 0.222184 0.221543 0.220731 
0.219722 0.218488 0.217004 0.215246 0.213192 0.210825 0.210873 0.213237 0.215287 
0.217038 0.218514 0.219737 0.220736 0.221537 0.222168 0.222655 0.223022 0.22329 
0.223475 0.223591 0.223647 0.223647 0.223591 0.223475 0.22329 0.223022 0.222655 
0.222168 0.221537 0.220736 0.219737 0.218514 0.217038 0.215287 0.213237 0.210873 
0.210922 0.213284 0.215329 0.217073 0.21854 0.219753 0.22074 0.22153 0.222151 
0.222628 0.222986 0.223247 0.223427 0.223539 0.223593 0.223593 0.223539 0.223427 
0.223247 0.222986 0.222628 0.222151 0.22153 0.22074 0.219753 0.21854 0.217073 
0.215329 0.213284 0.210922 0.210972 0.213332 0.215372 0.217109 0.218566 0.219769 
0.220745 0.221524 0.222133 0.222601 0.22295 0.223203 0.223378 0.223486 0.223538 
0.223538 0.223486 0.223378 0.223203 0.22295 0.222601 0.222133 0.221524 0.220745 
0.219769 0.218566 0.217109 0.215372 0.213332 0.210972 0.211024 0.213381 0.215416 
0.217146 0.218593 0.219785 0.22075 0.221517 0.222116 0.222573 0.222913 0.223159 
0.223327 0.223432 0.223482 0.223482 0.223432 0.223327 0.223159 0.222913 0.222573 
0.222116 0.221517 0.22075 0.219785 0.218593 0.217146 0.215416 0.213381 0.211024 
0.211077 0.213432 0.215461 0.217183 0.218621 0.219802 0.220755 0.22151 0.222097 
0.222544 0.222876 0.223114 0.223276 0.223377 0.223426 0.223426 0.223377 0.223276 
0.223114 0.222876 0.222544 0.222097 0.22151 0.220755 0.219802 0.218621 0.217183 
0.215461 0.213432 0.211077 0.211131 0.213484 0.215507 0.217221 0.218649 0.219819 
0.22076 0.221503 0.222079 0.222515 0.222837 0.223068 0.223225 0.223322 0.223368 
0.223368 0.223322 0.223225 0.223068 0.222837 0.222515 0.222079 0.221503 0.22076 
0.219819 0.218649 0.217221 0.215507 0.213484 0.211131 0.211187 0.213537 0.215555 
0.217261 0.218679 0.219836 0.220765 0.221496 0.22206 0.222485 0.222798 0.223021 
0.223172 0.223265 0.223309 0.223309 0.223265 0.223172 0.223021 0.222798 0.222485 
0.22206 0.221496 0.220765 0.219836 0.218679 0.217261 0.215555 0.213537 0.211187 
0.211244 0.213591 0.215604 0.217301 0.218708 0.219854 0.22077 0.221488 0.22204 
0.222454 0.222758 0.222973 0.223118 0.223207 0.223249 0.223249 0.223207 0.223118 
0.222973 0.222758 0.222454 0.22204 0.221488 0.22077 0.219854 0.218708 0.217301 
0.215604 0.213591 0.211244 0.211303 0.213647 0.215654 0.217342 0.218739 0.219872 
0.220775 0.22148 0.22202 0.222423 0.222717 0.222924 0.223063 0.223148 0.223189 
0.223189 0.223148 0.223063 0.222924 0.222717 0.222423 0.22202 0.22148 0.220775 
0.219872 0.218739 0.217342 0.215654 0.213647 0.211303 0.211363 0.213705 0.215705 
0.217384 0.21877 0.21989 0.22078 0.221472 0.221999 0.222391 0.222675 0.222874 
0.223008 0.223089 0.223127 0.223127 0.223089 0.223008 0.222874 0.222675 0.222391 
0.221999 0.221472 0.22078 0.21989 0.21877 0.217384 0.215705 0.213705 0.211363 
0.211425 0.213764 0.215758 0.217428 0.218801 0.219909 0.220785 0.221464 0.221978 
0.222358 0.222632 0.222824 0.222951 0.223028 0.223064 0.223064 0.223028 0.222951 
0.222824 0.222632 0.222358 0.221978 0.221464 0.220785 0.219909 0.218801 0.217428 
0.215758 0.213764 0.211425 0.211488 0.213824 0.215811 0.217472 0.218833 0.219928 
0.22079 0.221455 0.221956 0.222325 0.222589 0.222772 0.222893 0.222966 0.223001 
0.223001 0.222966 0.222893 0.222772 0.222589 0.222325 0.221956 0.221455 0.22079 
0.219928 0.218833 0.217472 0.215811 0.213824 0.211488 0.211554 0.213886 0.215867 
0.217517 0.218866 0.219947 0.220795 0.221445 0.221933 0.22229 0.222544 0.22272 
0.222835 0.222904 0.222936 0.222936 0.222904 0.222835 0.22272 0.222544 0.22229 
0.221933 0.221445 0.220795 0.219947 0.218866 0.217517 0.215867 0.213886 0.211554 
0.211621 0.21395 0.215923 0.217564 0.2189 0.219967 0.2208 0.221436 0.22191 
0.222255 0.222499 0.222666 0.222775 0.22284 0.22287 0.22287 0.22284 0.222775 
0.222666 0.222499 0.222255 0.22191 0.221436 0.2208 0.219967 0.2189 0.217564 
0.215923 0.21395 0.211621 0.21169 0.214016 0.215981 0.217611 0.218934 0.219986 
0.220804 0.221425 0.221886 0.222219 0.222453 0.222612 0.222715 0.222775 0.222804 
0.222804 0.222775 0.222715 0.222612 0.222453 0.222219 0.221886 0.221425 0.220804 
0.219986 0.218934 0.217611 0.215981 0.214016 0.21169 0.211761 0.214083 0.216041 
0.21766 0.218969 0.220006 0.220809 0.221415 0.221861 0.222182 0.222406 0.222556 
0.222653 0.22271 0.222736 0.222736 0.22271 0.222653 0.222556 0.222406 0.222182 
0.221861 0.221415 0.220809 0.220006 0.218969 0.21766 0.216041 0.214083 0.211761 
0.211833 0.214152 0.216102 0.217709 0.219005 0.220026 0.220813 0.221404 0.221836 
0.222144 0.222357 0.2225 0.22259 0.222643 0.222667 0.222667 0.222643 0.22259 
0.2225 0.222357 0.222144 0.221836 0.221404 0.220813 0.220026 0.219005 0.217709 
0.216102 0.214152 0.211833 0.211908 0.214223 0.216165 0.21776 0.219041 0.220047 
0.220817 0.221392 0.22181 0.222105 0.222308 0.222442 0.222527 0.222576 0.222598 
0.222598 0.222576 0.222527 0.222442 0.222308 0.222105 0.22181 0.221392 0.220817 
0.220047 0.219041 0.21776 0.216165 0.214223 0.211908 0.211985 0.214296 0.216229 
0.217812 0.219078 0.220067 0.220821 0.221379 0.221783 0.222066 0.222258 0.222384 
0.222462 0.222507 0.222527 0.222527 0.222507 0.222462 0.222384 0.222258 0.222066 
0.221783 0.221379 0.220821 0.220067 0.219078 0.217812 0.216229 0.214296 0.211985 
0.212065 0.214371 0.216295 0.217865 0.219116 0.220088 0.220824 0.221366 0.221755 
0.222025 0.222206 0.222324 0.222396 0.222437 0.222456 0.222456 0.222437 0.222396 
0.222324 0.222206 0.222025 0.221755 0.221366 0.220824 0.220088 0.219116 0.217865 
0.216295 0.214371 0.212065 0.212146 0.214448 0.216363 0.21792 0.219154 0.220109 
0.220827 0.221353 0.221726 0.221983 0.222154 0.222263 0.22233 0.222367 0.222383 
0.222383 0.222367 0.22233 0.222263 0.222154 0.221983 0.221726 0.221353 0.220827 
0.220109 0.219154 0.21792 0.216363 0.214448 0.212146 0.21223 0.214528 0.216433 
0.217975 0.219193 0.22013 0.22083 0.221338 0.221696 0.22194 0.2221 0.222201 
0.222262 0.222295 0.22231 0.22231 0.222295 0.222262 0.222201 0.2221 0.22194 
0.221696 0.221338 0.22083 0.22013 0.219193 0.217975 0.216433 0.214528 0.21223 
0.212317 0.214609 0.216504 0.218032 0.219233 0.220151 0.220832 0.221323 0.221665 
0.221896 0.222045 0.222138 0.222193 0.222223 0.222236 0.222236 0.222223 0.222193 
0.222138 0.222045 0.221896 0.221665 0.221323 0.220832 0.220151 0.219233 0.218032 
0.216504 0.214609 0.212317 0.212406 0.214693 0.216578 0.218091 0.219273 0.220171 
0.220834 0.221307 0.221633 0.22185 0.221989 0.222074 0.222123 0.222149 0.22216 
0.22216 0.222149 0.222123 0.222074 0.221989 0.22185 0.221633 0.221307 0.220834 
0.220171 0.219273 0.218091 0.216578 0.214693 0.212406 0.212497 0.21478 0.216653 
0.21815 0.219314 0.220192 0.220835 0.221289 0.2216 0.221804 0.221932 0.222009 
0.222053 0.222075 0.222084 0.222084 0.222075 0.222053 0.222009 0.221932 0.221804 
0.2216 0.221289 0.220835 0.220192 0.219314 0.21815 0.216653 0.21478 0.212497 
0.212592 0.214869 0.21673 0.218211 0.219356 0.220213 0.220835 0.221271 0.221565 
0.221756 0.221874 0.221943 0.221981 0.222 0.222007 0.222007 0.222 0.221981 
0.221943 0.221874 0.221756 0.221565 0.221271 0.220835 0.220213 0.219356 0.218211 
0.21673 0.214869 0.212592 0.21269 0.214961 0.21681 0.218274 0.219398 0.220234 
0.220835 0.221252 0.22153 0.221707 0.221814 0.221875 0.221908 0.221924 0.22193 
0.22193 0.221924 0.221908 0.221875 0.221814 0.221707 0.22153 0.221252 0.220835 
0.220234 0.219398 0.218274 0.21681 0.214961 0.21269 0.212791 0.215055 0.216891 
0.218337 0.21944 0.220254 0.220834 0.221231 0.221493 0.221656 0.221753 0.221807 
0.221834 0.221846 0.221851 0.221851 0.221846 0.221834 0.221807 0.221753 0.221656 
0.221493 0.221231 0.220834 0.220254 0.21944 0.218337 0.216891 0.215055 0.212791 
0.212895 0.215153 0.216975 0.218402 0.219483 0.220274 0.220832 0.22121 0.221454 
0.221604 0.221691 0.221737 0.221759 0.221769 0.221772 0.221772 0.221769 0.221759 
0.221737 0.221691 0.221604 0.221454 0.22121 0.220832 0.220274 0.219483 0.218402 
0.216975 0.215153 0.212895 0.213002 0.215253 0.217062 0.218469 0.219527 0.220294 
0.220829 0.221187 0.221414 0.221551 0.221628 0.221666 0.221684 0.22169 0.221691 
0.221691 0.22169 0.221684 0.221666 0.221628 0.221551 0.221414 0.221187 0.220829 
0.220294 0.219527 0.218469 0.217062 0.215253 0.213002 0.213113 0.215357 0.21715 
0.218536 0.21957 0.220313 0.220825 0.221162 0.221373 0.221496 0.221563 0.221594 
0.221607 0.22161 0.221611 0.221611 0.22161 0.221607 0.221594 0.221563 0.221496 
0.221373 0.221162 0.220825 0.220313 0.21957 0.218536 0.21715 0.215357 0.213113 
0.213228 0.215464 0.217241 0.218606 0.219615 0.220332 0.22082 0.221136 0.221329 
0.22144 0.221496 0.221521 0.221529 0.22153 0.221529 0.221529 0.22153 0.221529 
0.221521 0.221496 0.22144 0.221329 0.221136 0.22082 0.220332 0.219615 0.218606 
0.217241 0.215464 0.213228 0.213347 0.215575 0.217335 0.218676 0.219659 0.220349 
0.220813 0.221108 0.221285 0.221382 0.221429 0.221447 0.221451 0.221449 0.221447 
0.221447 0.221449 0.221451 0.221447 0.221429 0.221382 0.221285 0.221108 0.220813 