# vtk DataFile Version 5.1
vtk output
ASCII
DATASET UNSTRUCTURED_GRID
POINTS 10043 double
-10.1 1.4499999993 0 -10.049999999 1.4499999993 0 -10.049999999 1.5 0 
-9.9999999985 1.4499999993 0 -9.9999999985 1.5 0 -9.9499999978 1.4499999993 0 
-9.9499999978 1.5 0 -9.899999997 1.4499999993 0 -9.899999997 1.5 0 
-9.8499999963 1.4499999993 0 -9.8499999963 1.5 0 -9.7999999955 1.4499999993 0 
-9.7999999955 1.5 0 -9.7499999948 1.4499999993 0 -9.7499999948 1.5 0 
-9.699999994 1.4499999993 0 -9.699999994 1.5 0 -9.6499999933 1.4499999993 0 
-9.6499999933 1.5 0 -9.5999999925 1.4499999993 0 -9.5999999925 1.5 0 
-9.5499999918 1.4499999993 0 -9.5499999918 1.5 0 -9.4999999911 1.4499999993 0 
-9.4999999911 1.5 0 -9.4499999903 1.4499999993 0 -9.4499999903 1.5 0 
-9.3999999896 1.4499999993 0 -9.3999999896 1.5 0 -9.3499999888 1.4499999993 0 
-9.3499999888 1.5 0 -9.2999999881 1.4499999993 0 -9.2999999881 1.5 0 
-9.2499999873 1.4499999993 0 -9.2499999873 1.5 0 -9.1999999866 1.4499999993 0 
-9.1999999866 1.5 0 -9.1499999858 1.4499999993 0 -9.1499999858 1.5 0 
-9.0999999851 1.4499999993 0 -9.0999999851 1.5 0 -9.0499999844 1.4499999993 0 
-9.0499999844 1.5 0 -8.9999999836 1.4499999993 0 -8.9999999836 1.5 0 
-8.9499999829 1.4499999993 0 -8.9499999829 1.5 0 -8.8999999821 1.4499999993 0 
-8.8999999821 1.5 0 -8.8499999814 1.4499999993 0 -8.8499999814 1.5 0 
-8.7999999806 1.4499999993 0 -8.7999999806 1.5 0 -8.7499999799 1.4499999993 0 
-8.7499999799 1.5 0 -8.6999999791 1.4499999993 0 -8.6999999791 1.5 0 
-8.6499999784 1.4499999993 0 -8.6499999784 1.5 0 -8.5999999776 1.4499999993 0 
-8.5999999776 1.5 0 -8.5499999769 1.4499999993 0 -8.5499999769 1.5 0 
-8.4999999762 1.4499999993 0 -8.4999999762 1.5 0 -8.4499999754 1.4499999993 0 
-8.4499999754 1.5 0 -8.3999999747 1.4499999993 0 -8.3999999747 1.5 0 
-8.3499999739 1.4499999993 0 -8.3499999739 1.5 0 -8.2999999732 1.4499999993 0 
-8.2999999732 1.5 0 -8.2499999724 1.4499999993 0 -8.2499999724 1.5 0 
-8.1999999717 1.4499999993 0 -8.1999999717 1.5 0 -8.1499999709 1.4499999993 0 
-8.1499999709 1.5 0 -8.0999999702 1.4499999993 0 -8.0999999702 1.5 0 
-8.0499999695 1.4499999993 0 -8.0499999695 1.5 0 -7.9999999687 1.4499999993 0 
-7.9999999687 1.5 0 -7.949999968 1.4499999993 0 -7.949999968 1.5 0 
-7.8999999672 1.4499999993 0 -7.8999999672 1.5 0 -7.8499999665 1.4499999993 0 
-7.8499999665 1.5 0 -7.7999999657 1.4499999993 0 -7.7999999657 1.5 0 
-7.749999965 1.4499999993 0 -7.749999965 1.5 0 -7.6999999642 1.4499999993 0 
-7.6999999642 1.5 0 -7.6499999635 1.4499999993 0 -7.6499999635 1.5 0 
-7.5999999627 1.4499999993 0 -7.5999999627 1.5 0 -7.549999962 1.4499999993 0 
-7.549999962 1.5 0 -7.4999999613 1.4499999993 0 -7.4999999613 1.5 0 
-7.4499999605 1.4499999993 0 -7.4499999605 1.5 0 -7.3999999598 1.4499999993 0 
-7.3999999598 1.5 0 -7.349999959 1.4499999993 0 -7.349999959 1.5 0 
-7.2999999583 1.4499999993 0 -7.2999999583 1.5 0 -7.2499999575 1.4499999993 0 
-7.2499999575 1.5 0 -7.1999999568 1.4499999993 0 -7.1999999568 1.5 0 
-7.149999956 1.4499999993 0 -7.149999956 1.5 0 -7.0999999553 1.4499999993 0 
-7.0999999553 1.5 0 -7.0499999546 1.4499999993 0 -7.0499999546 1.5 0 
-6.9999999538 1.4499999993 0 -6.9999999538 1.5 0 -6.9499999531 1.4499999993 0 
-6.9499999531 1.5 0 -6.8999999523 1.4499999993 0 -6.8999999523 1.5 0 
-6.8499999516 1.4499999993 0 -6.8499999516 1.5 0 -6.7999999508 1.4499999993 0 
-6.7999999508 1.5 0 -6.7499999501 1.4499999993 0 -6.7499999501 1.5 0 
-6.6999999493 1.4499999993 0 -6.6999999493 1.5 0 -6.6499999486 1.4499999993 0 
-6.6499999486 1.5 0 -6.5999999478 1.4499999993 0 -6.5999999478 1.5 0 
-6.5499999471 1.4499999993 0 -6.5499999471 1.5 0 -6.4999999464 1.4499999993 0 
-6.4999999464 1.5 0 -6.4499999456 1.4499999993 0 -6.4499999456 1.5 0 
-6.3999999449 1.4499999993 0 -6.3999999449 1.5 0 -6.3499999441 1.4499999993 0 
-6.3499999441 1.5 0 -6.2999999434 1.4499999993 0 -6.2999999434 1.5 0 
-6.2499999426 1.4499999993 0 -6.2499999426 1.5 0 -6.1999999419 1.4499999993 0 
-6.1999999419 1.5 0 -6.1499999411 1.4499999993 0 -6.1499999411 1.5 0 
-6.0999999404 1.4499999993 0 -6.0999999404 1.5 0 -6.0499999397 1.4499999993 0 
-6.0499999397 1.5 0 -5.9999999389 1.4499999993 0 -5.9999999389 1.5 0 
-5.9499999382 1.4499999993 0 -5.9499999382 1.5 0 -5.8999999374 1.4499999993 0 
-5.8999999374 1.5 0 -5.8499999367 1.4499999993 0 -5.8499999367 1.5 0 
-5.7999999359 1.4499999993 0 -5.7999999359 1.5 0 -5.7499999352 1.4499999993 0 
-5.7499999352 1.5 0 -5.6999999344 1.4499999993 0 -5.6999999344 1.5 0 
-5.6499999337 1.4499999993 0 -5.6499999337 1.5 0 -5.5999999329 1.4499999993 0 
-5.5999999329 1.5 0 -5.5499999322 1.4499999993 0 -5.5499999322 1.5 0 
-5.4999999315 1.4499999993 0 -5.4999999315 1.5 0 -5.4499999307 1.4499999993 0 
-5.4499999307 1.5 0 -5.39999993 1.4499999993 0 -5.39999993 1.5 0 
-5.3499999292 1.4499999993 0 -5.3499999292 1.5 0 -5.2999999285 1.4499999993 0 
-5.2999999285 1.5 0 -5.2499999277 1.4499999993 0 -5.2499999277 1.5 0 
-5.199999927 1.4499999993 0 -5.199999927 1.5 0 -5.1499999262 1.4499999993 0 
-5.1499999262 1.5 0 -5.0999999255 1.4499999993 0 -5.0999999255 1.5 0 
-5.0499999247 1.4499999993 0 -5.0499999247 1.5 0 -4.999999924 1.4499999993 0 
-4.999999924 1.5 0 -4.9499999233 1.4499999993 0 -4.9499999233 1.5 0 
-4.8999999225 1.4499999993 0 -4.8999999225 1.5 0 -4.8499999218 1.4499999993 0 
-4.8499999218 1.5 0 -4.799999921 1.4499999993 0 -4.799999921 1.5 0 
-4.7499999203 1.4499999993 0 -4.7499999203 1.5 0 -4.6999999195 1.4499999993 0 
-4.6999999195 1.5 0 -4.6499999188 1.4499999993 0 -4.6499999188 1.5 0 
-4.599999918 1.4499999993 0 -4.599999918 1.5 0 -4.5499999173 1.4499999993 0 
-4.5499999173 1.5 0 -4.4999999166 1.4499999993 0 -4.4999999166 1.5 0 
-4.4499999158 1.4499999993 0 -4.4499999158 1.5 0 -4.3999999151 1.4499999993 0 
-4.3999999151 1.5 0 -4.3499999143 1.4499999993 0 -4.3499999143 1.5 0 
-4.2999999136 1.4499999993 0 -4.2999999136 1.5 0 -4.2499999128 1.4499999993 0 
-4.2499999128 1.5 0 -4.1999999121 1.4499999993 0 -4.1999999121 1.5 0 
-4.1499999113 1.4499999993 0 -4.1499999113 1.5 0 -4.0999999106 1.4499999993 0 
-4.0999999106 1.5 0 -4.0499999098 1.4499999993 0 -4.0499999098 1.5 0 
-3.9999999091 1.4499999993 0 -3.9999999091 1.5 0 -3.9499999084 1.4499999993 0 
-3.9499999084 1.5 0 -3.8999999076 1.4499999993 0 -3.8999999076 1.5 0 
-3.8499999069 1.4499999993 0 -3.8499999069 1.5 0 -3.7999999061 1.4499999993 0 
-3.7999999061 1.5 0 -3.7499999054 1.4499999993 0 -3.7499999054 1.5 0 
-3.6999999046 1.4499999993 0 -3.6999999046 1.5 0 -3.6499999039 1.4499999993 0 
-3.6499999039 1.5 0 -3.5999999031 1.4499999993 0 -3.5999999031 1.5 0 
-3.5499999024 1.4499999993 0 -3.5499999024 1.5 0 -3.4999999017 1.4499999993 0 
-3.4999999017 1.5 0 -3.4499999009 1.4499999993 0 -3.4499999009 1.5 0 
-3.3999999002 1.4499999993 0 -3.3999999002 1.5 0 -3.3499998994 1.4499999993 0 
-3.3499998994 1.5 0 -3.2999998987 1.4499999993 0 -3.2999998987 1.5 0 
-3.2499998979 1.4499999993 0 -3.2499998979 1.5 0 -3.1999998972 1.4499999993 0 
-3.1999998972 1.5 0 -3.1499998964 1.4499999993 0 -3.1499998964 1.5 0 
-3.0999998957 1.4499999993 0 -3.0999998957 1.5 0 -3.0499998949 1.4499999993 0 
-3.0499998949 1.5 0 -2.9999998942 1.4499999993 0 -2.9999998942 1.5 0 
-2.9499998935 1.4499999993 0 -2.9499998935 1.5 0 -2.8999998927 1.4499999993 0 
-2.8999998927 1.5 0 -2.849999892 1.4499999993 0 -2.849999892 1.5 0 
-2.7999998912 1.4499999993 0 -2.7999998912 1.5 0 -2.7499998905 1.4499999993 0 
-2.7499998905 1.5 0 -2.6999998897 1.4499999993 0 -2.6999998897 1.5 0 
-2.649999889 1.4499999993 0 -2.649999889 1.5 0 -2.5999998882 1.4499999993 0 
-2.5999998882 1.5 0 -2.5499998875 1.4499999993 0 -2.5499998875 1.5 0 
-2.4999998868 1.4499999993 0 -2.4999998868 1.5 0 -2.449999886 1.4499999993 0 
-2.449999886 1.5 0 -2.3999998853 1.4499999993 0 -2.3999998853 1.5 0 
-2.3499998845 1.4499999993 0 -2.3499998845 1.5 0 -2.2999998838 1.4499999993 0 
-2.2999998838 1.5 0 -2.249999883 1.4499999993 0 -2.249999883 1.5 0 
-2.1999998823 1.4499999993 0 -2.1999998823 1.5 0 -2.1499998815 1.4499999993 0 
-2.1499998815 1.5 0 -2.0999998808 1.4499999993 0 -2.0999998808 1.5 0 
-2.04999988 1.4499999993 0 -2.04999988 1.5 0 -1.9999998793 1.4499999993 0 
-1.9999998793 1.5 0 -1.9499998786 1.4499999993 0 -1.9499998786 1.5 0 
-1.8999998778 1.4499999993 0 -1.8999998778 1.5 0 -1.8499998771 1.4499999993 0 
-1.8499998771 1.5 0 -1.7999998763 1.4499999993 0 -1.7999998763 1.5 0 
-1.7499998756 1.4499999993 0 -1.7499998756 1.5 0 -1.6999998748 1.4499999993 0 
-1.6999998748 1.5 0 -1.6499998741 1.4499999993 0 -1.6499998741 1.5 0 
-1.5999998733 1.4499999993 0 -1.5999998733 1.5 0 -1.5499998726 1.4499999993 0 
-1.5499998726 1.5 0 -1.4999998718 1.4499999993 0 -1.4999998718 1.5 0 
-1.4499998711 1.4499999993 0 -1.4499998711 1.5 0 -1.3999998704 1.4499999993 0 
-1.3999998704 1.5 0 -1.3499998696 1.4499999993 0 -1.3499998696 1.5 0 
-1.2999998689 1.4499999993 0 -1.2999998689 1.5 0 -1.2499998681 1.4499999993 0 
-1.2499998681 1.5 0 -1.1999998674 1.4499999993 0 -1.1999998674 1.5 0 
-1.1499998666 1.4499999993 0 -1.1499998666 1.5 0 -1.0999998659 1.4499999993 0 
-1.0999998659 1.5 0 -1.0499998651 1.4499999993 0 -1.0499998651 1.5 0 
-0.9999998644 1.4499999993 0 -0.9999998644 1.5 0 -0.94999986365 1.4499999993 0 
-0.94999986365 1.5 0 -0.89999986291 1.4499999993 0 -0.89999986291 1.5 0 
-0.84999986216 1.4499999993 0 -0.84999986216 1.5 0 -0.79999986142 1.4499999993 0 
-0.79999986142 1.5 0 -0.74999986067 1.4499999993 0 -0.74999986067 1.5 0 
-0.69999985993 1.4499999993 0 -0.69999985993 1.5 0 -0.64999985918 1.4499999993 0 
-0.64999985918 1.5 0 -0.59999985844 1.4499999993 0 -0.59999985844 1.5 0 
-0.54999985769 1.4499999993 0 -0.54999985769 1.5 0 -0.49999985695 1.4499999993 0 
-0.49999985695 1.5 0 -0.4499998562 1.4499999993 0 -0.4499998562 1.5 0 
-0.39999985546 1.4499999993 0 -0.39999985546 1.5 0 -0.34999985471 1.4499999993 0 
-0.34999985471 1.5 0 -0.29999985397 1.4499999993 0 -0.29999985397 1.5 0 
-0.24999985322 1.4499999993 0 -0.24999985322 1.5 0 -0.191663057 1.4499999993 0 
-0.17548248559 1.5 0 0.18862900414 1.4499999993 0 0.25000015423 1.4499999993 0 
[...]
CELL_DATA 9510
FIELD FieldData 4
Water_Depth_m 1 9510 float
0.479984 0.479955 0.479926 0.479896 0.479866 0.479836 0.479806 0.479776 0.479747 
0.479718 0.479689 0.479661 0.479635 0.479609 0.479586 0.479564 0.479544 0.479526 
0.479511 0.479498 0.479488 0.479482 0.479478 0.479478 0.479482 0.47949 0.479501 
0.479515 0.479534 0.479557 0.479583 0.479612 0.479645 0.479682 0.479721 0.479763 
0.479807 0.479853 0.479901 0.479951 0.480001 0.480052 0.480104 0.480155 0.480206 
0.480256 0.480305 0.480352 0.480398 0.480442 0.480484 0.480523 0.48056 0.480594 
0.480626 0.480654 0.480679 0.480701 0.48072 0.480736 0.480749 0.480758 0.480764 
0.480767 0.480767 0.480763 0.480757 0.480747 0.480734 0.480718 0.480699 0.480678 
0.480653 0.480626 0.480596 0.480564 0.480529 0.480492 0.480453 0.480412 0.480369 
0.480325 0.480281 0.480235 0.480189 0.480143 0.480098 0.480054 0.480011 0.47997 
0.479932 0.479896 0.479864 0.479836 0.479812 0.479793 0.479778 0.479768 0.479763 
0.479763 0.479768 0.479778 0.479791 0.479809 0.47983 0.479854 0.47988 0.479908 
0.479937 0.479966 0.479996 0.480025 0.480054 0.480081 0.480107 0.480131 0.480154 
0.480175 0.480194 0.480212 0.480228 0.480243 0.480257 0.48027 0.480282 0.480293 
0.480304 0.480315 0.480325 0.480335 0.480345 0.480355 0.480365 0.480374 0.480383 
0.480392 0.4804 0.480408 0.480415 0.480421 0.480427 0.480432 0.480436 0.48044 
0.480442 0.480444 0.480445 0.480446 0.480445 0.480445 0.480443 0.480442 0.48044 
0.480438 0.480435 0.480433 0.48043 0.480428 0.480426 0.480424 0.480422 0.480421 
0.48042 0.480419 0.480419 0.48042 0.480421 0.480423 0.480426 0.48043 0.480435 
0.48044 0.480448 0.480456 0.480466 0.480479 0.480493 0.48051 0.48053 0.480554 
0.480581 0.480613 0.480651 0.480694 0.480744 0.480803 0.48087 0.480947 0.481035 
0.481135 0.481249 0.481378 0.481521 0.481681 0.481865 0.482028 0.482231 0.482489 
0.484589 0.484828 0.485027 0.485211 0.48538 0.485533 0.485672 0.485797 0.485909 
0.48601 0.4861 0.486181 0.486253 0.486318 0.486375 0.486427 0.486473 0.486515 
0.486552 0.486586 0.486616 0.486643 0.486668 0.48669 0.48671 0.486729 0.486745 
0.48676 0.486774 0.486787 0.486798 0.486809 0.486819 0.486828 0.486836 0.486843 
0.486851 0.486857 0.486863 0.486869 0.486874 0.486879 0.486884 0.486889 0.486893 
0.486897 0.486901 0.486904 0.486908 0.486911 0.486914 0.486917 0.48692 0.486923 
0.486926 0.486928 0.486931 0.486934 0.486936 0.486938 0.486941 0.486943 0.486945 
0.486948 0.48695 0.486952 0.486954 0.486956 0.486958 0.48696 0.486962 0.486964 
0.486966 0.486968 0.48697 0.486972 0.486974 0.486976 0.486977 0.486979 0.486981 
0.486983 0.486984 0.486986 0.486988 0.48699 0.486991 0.486993 0.486995 0.486996 
0.486998 0.487 0.487001 0.487003 0.486959 0.486936 0.482689 0.479985 0.479957 
0.479927 0.479898 0.479868 0.479838 0.479808 0.479778 0.479748 0.479718 0.47969 
0.479662 0.479635 0.479609 0.479585 0.479563 0.479543 0.479525 0.479509 0.479496 
0.479486 0.479479 0.479475 0.479475 0.479479 0.479486 0.479496 0.479511 0.47953 
0.479552 0.479578 0.479607 0.47964 0.479676 0.479716 0.479758 0.479802 0.479848 
0.479897 0.479946 0.479997 0.480048 0.4801 0.480152 0.480203 0.480254 0.480303 
0.480351 0.480397 0.480442 0.480484 0.480523 0.480561 0.480595 0.480627 0.480655 
0.480681 0.480703 0.480723 0.480739 0.480751 0.480761 0.480767 0.48077 0.48077 
0.480767 0.48076 0.480751 0.480738 0.480722 0.480704 0.480682 0.480657 0.48063 
0.4806 0.480568 0.480533 0.480496 0.480456 0.480415 0.480373 0.480328 0.480283 
0.480237 0.480191 0.480145 0.480099 0.480054 0.480011 0.47997 0.479931 0.479895 
0.479862 0.479834 0.479809 0.479789 0.479774 0.479764 0.479759 0.479759 0.479764 
0.479774 0.479788 0.479805 0.479827 0.479851 0.479878 0.479906 0.479935 0.479965 
0.479995 0.480025 0.480054 0.480081 0.480107 0.480132 0.480155 0.480176 0.480195 
0.480213 0.480229 0.480244 0.480258 0.48027 0.480282 0.480294 0.480304 0.480315 
0.480325 0.480335 0.480345 0.480355 0.480365 0.480374 0.480383 0.480392 0.4804 
0.480408 0.480415 0.480422 0.480428 0.480433 0.480437 0.48044 0.480443 0.480445 
0.480446 0.480446 0.480446 0.480445 0.480444 0.480442 0.48044 0.480438 0.480436 
0.480433 0.480431 0.480428 0.480426 0.480424 0.480422 0.480421 0.48042 0.480419 
0.480419 0.48042 0.480421 0.480423 0.480426 0.480429 0.480434 0.480439 0.480446 
0.480455 0.480465 0.480476 0.48049 0.480507 0.480526 0.480549 0.480576 0.480607 
0.480644 0.480686 0.480735 0.480792 0.480857 0.480933 0.481019 0.481118 0.48123 
0.481356 0.481497 0.481654 0.481824 0.482015 0.48223 0.482569 0.484581 0.484824 
0.485025 0.485211 0.485381 0.485536 0.485675 0.485801 0.485913 0.486014 0.486104 
0.486184 0.486256 0.486321 0.486378 0.48643 0.486476 0.486517 0.486554 0.486588 
0.486618 0.486645 0.486669 0.486691 0.486711 0.48673 0.486746 0.486761 0.486775 
0.486787 0.486799 0.486809 0.486819 0.486828 0.486836 0.486844 0.486851 0.486857 
0.486864 0.486869 0.486875 0.48688 0.486884 0.486889 0.486893 0.486897 0.486901 
0.486904 0.486908 0.486911 0.486914 0.486917 0.48692 0.486923 0.486926 0.486929 
0.486931 0.486934 0.486936 0.486939 0.486941 0.486943 0.486945 0.486948 0.48695 
0.486952 0.486954 0.486956 0.486958 0.48696 0.486962 0.486964 0.486966 0.486968 
0.48697 0.486972 0.486974 0.486976 0.486977 0.486979 0.486981 0.486983 0.486984 
0.486986 0.486988 0.48699 0.486991 0.486993 0.486995 0.486996 0.486998 0.487 
0.487001 0.487003 0.486959 0.486936 0.482689 0.479985 0.479956 0.479927 0.479897 
0.479867 0.479837 0.479806 0.479776 0.479746 0.479716 0.479687 0.479659 0.479632 
0.479606 0.479581 0.479559 0.479538 0.479519 0.479503 0.47949 0.47948 0.479473 
0.479469 0.479468 0.479471 0.479478 0.479489 0.479504 0.479522 0.479544 0.479571 
0.4796 0.479633 0.47967 0.47971 0.479752 0.479797 0.479844 0.479893 0.479943 
0.479994 0.480046 0.480099 0.480151 0.480203 0.480254 0.480304 0.480353 0.480399 
0.480444 0.480487 0.480527 0.480565 0.4806 0.480632 0.480661 0.480687 0.480709 
0.480729 0.480745 0.480758 0.480767 0.480774 0.480777 0.480776 0.480773 0.480766 
0.480756 0.480744 0.480728 0.480709 0.480687 0.480662 0.480634 0.480604 0.480571 
0.480536 0.480498 0.480458 0.480417 0.480373 0.480328 0.480282 0.480236 0.480189 
0.480142 0.480095 0.480049 0.480005 0.479963 0.479924 0.479887 0.479854 0.479824 
0.4798 0.479779 0.479764 0.479754 0.479749 0.47975 0.479755 0.479765 0.47978 
0.479799 0.479821 0.479846 0.479874 0.479903 0.479934 0.479965 0.479996 0.480026 
0.480056 0.480084 0.48011 0.480135 0.480158 0.480179 0.480198 0.480216 0.480232 
0.480246 0.48026 0.480272 0.480283 0.480294 0.480305 0.480315 0.480326 0.480336 
0.480345 0.480355 0.480365 0.480375 0.480384 0.480393 0.480401 0.480409 0.480417 
0.480423 0.480429 0.480434 0.480439 0.480442 0.480445 0.480446 0.480447 0.480448 
0.480447 0.480446 0.480445 0.480443 0.480441 0.480439 0.480436 0.480433 0.48043 
0.480428 0.480425 0.480423 0.480421 0.48042 0.480419 0.480418 0.480418 0.480418 
0.48042 0.480421 0.480424 0.480427 0.480432 0.480437 0.480444 0.480451 0.480461 
0.480472 0.480486 0.480501 0.48052 0.480542 0.480567 0.480597 0.480632 0.480673 
0.48072 0.480774 0.480838 0.48091 0.480994 0.48109 0.481198 0.481322 0.48146 
0.481615 0.481786 0.481972 0.482203 0.482483 0.484581 0.484829 0.485034 0.485223 
0.485394 0.48555 0.485689 0.485815 0.485927 0.486027 0.486116 0.486196 0.486267 
0.486331 0.486387 0.486438 0.486483 0.486524 0.48656 0.486593 0.486623 0.486649 
0.486673 0.486695 0.486715 0.486733 0.486749 0.486764 0.486777 0.486789 0.486801 
0.486811 0.486821 0.486829 0.486837 0.486845 0.486852 0.486858 0.486864 0.48687 
0.486875 0.48688 0.486885 0.486889 0.486893 0.486897 0.486901 0.486905 0.486908 
0.486911 0.486914 0.486918 0.48692 0.486923 0.486926 0.486929 0.486931 0.486934 
0.486936 0.486939 0.486941 0.486943 0.486946 0.486948 0.48695 0.486952 0.486954 
0.486956 0.486958 0.48696 0.486962 0.486964 0.486966 0.486968 0.48697 0.486972 
0.486974 0.486976 0.486977 0.486979 0.486981 0.486983 0.486984 0.486986 0.486988 
0.48699 0.486991 0.486993 0.486995 0.486996 0.486998 0.487 0.487001 0.487003 
0.486959 0.486936 0.482689 0.479984 0.479956 0.479926 0.479896 0.479866 0.479835 
0.479804 0.479774 0.479743 0.479713 0.479683 0.479655 0.479627 0.4796 0.479575 
0.479552 0.479531 0.479512 0.479495 0.479482 0.479471 0.479463 0.479459 0.479458 
0.479461 0.479468 0.479478 0.479493 0.479511 0.479534 0.47956 0.47959 0.479623 
0.47966 0.479701 0.479743 0.479789 0.479837 0.479886 0.479938 0.47999 0.480043 
0.480096 0.48015 0.480202 0.480255 0.480306 0.480355 0.480403 0.480449 0.480492 
0.480533 0.480571 0.480607 0.480639 0.480669 0.480695 0.480718 0.480738 0.480754 
0.480767 0.480777 0.480783 0.480786 0.480786 0.480782 0.480775 0.480765 0.480752 
0.480736 0.480716 0.480694 0.480669 0.480641 0.48061 0.480576 0.48054 0.480502 
0.480461 0.480418 0.480374 0.480328 0.480281 0.480233 0.480185 0.480137 0.480089 
0.480042 0.479997 0.479953 0.479912 0.479875 0.479841 0.479811 0.479785 0.479764 
0.479749 0.479739 0.479734 0.479735 0.479741 0.479752 0.479768 0.479789 0.479812 
0.479839 0.479869 0.4799 0.479932 0.479965 0.479997 0.480029 0.480059 0.480088 
0.480115 0.48014 0.480163 0.480184 0.480203 0.48022 0.480236 0.48025 0.480262 
0.480274 0.480285 0.480296 0.480306 0.480316 0.480326 0.480336 0.480346 0.480356 
0.480366 0.480375 0.480385 0.480394 0.480403 0.480411 0.480419 0.480426 0.480432 
0.480437 0.480441 0.480445 0.480447 0.480449 0.48045 0.48045 0.480449 0.480448 
0.480446 0.480444 0.480442 0.480439 0.480436 0.480433 0.48043 0.480428 0.480425 
0.480422 0.48042 0.480419 0.480417 0.480417 0.480416 0.480417 0.480418 0.480419 
0.480421 0.480425 0.480428 0.480433 0.48044 0.480447 0.480456 0.480466 0.480479 
0.480493 0.48051 0.480531 0.480554 0.480582 0.480615 0.480653 0.480697 0.480748 
0.480808 0.480877 0.480956 0.481047 0.481151 0.48127 0.481404 0.481555 0.481724 
0.481909 0.482134 0.482386 0.484582 0.484837 0.485048 0.48524 0.485414 0.485571 
0.485711 0.485836 0.485948 0.486047 0.486135 0.486213 0.486283 0.486345 0.486401 
0.48645 0.486494 0.486534 0.486569 0.486601 0.48663 0.486656 0.486679 0.486701 
0.48672 0.486737 0.486753 0.486767 0.48678 0.486792 0.486803 0.486813 0.486823 
0.486831 0.486839 0.486846 0.486853 0.48686 0.486865 0.486871 0.486876 0.486881 
0.486886 0.48689 0.486894 0.486898 0.486902 0.486905 0.486908 0.486912 0.486915 
0.486918 0.486921 0.486923 0.486926 0.486929 0.486931 0.486934 0.486936 0.486939 
0.486941 0.486943 0.486946 0.486948 0.48695 0.486952 0.486954 0.486956 0.486958 
0.48696 0.486962 0.486964 0.486966 0.486968 0.48697 0.486972 0.486974 0.486976 
0.486977 0.486979 0.486981 0.486983 0.486984 0.486986 0.486988 0.48699 0.486991 
0.486993 0.486995 0.486996 0.486998 0.487 0.487001 0.487003 0.486959 0.486936 
0.482689 0.479984 0.479955 0.479925 0.479895 0.479864 0.479833 0.479802 0.479771 
0.479739 0.479709 0.479678 0.479649 0.47962 0.479593 0.479568 0.479544 0.479522 
0.479502 0.479485 0.47947 0.479459 0.479451 0.479446 0.479445 0.479447 0.479454 
0.479464 0.479478 0.479497 0.479519 0.479546 0.479576 0.47961 0.479648 0.479689 
0.479732 0.479779 0.479828 0.479878 0.479931 0.479984 0.480039 0.480093 0.480148 
0.480202 0.480255 0.480308 0.480358 0.480407 0.480454 0.480499 0.480541 0.48058 
0.480616 0.480649 0.480679 0.480706 0.480729 0.480749 0.480766 0.480779 0.480789 
0.480795 0.480798 0.480798 0.480794 0.480787 0.480777 0.480763 0.480746 0.480727 
0.480704 0.480678 0.480649 0.480617 0.480583 0.480546 0.480506 0.480465 0.480421 
0.480375 0.480328 0.480279 0.48023 0.48018 0.48013 0.480081 0.480032 0.479985 
0.47994 0.479898 0.479859 0.479823 0.479792 0.479765 0.479744 0.479728 0.479718 
0.479714 0.479716 0.479723 0.479735 0.479753 0.479775 0.479801 0.47983 0.479862 
0.479895 0.47993 0.479964 0.479999 0.480032 0.480064 0.480094 0.480121 0.480147 
0.48017 0.480191 0.48021 0.480226 0.480241 0.480254 0.480266 0.480277 0.480288 
0.480298 0.480307 0.480317 0.480327 0.480337 0.480346 0.480356 0.480366 0.480377 
0.480386 0.480396 0.480405 0.480414 0.480421 0.480429 0.480435 0.48044 0.480444 
0.480448 0.48045 0.480452 0.480453 0.480452 0.480452 0.48045 0.480448 0.480446 
0.480443 0.48044 0.480437 0.480433 0.48043 0.480427 0.480424 0.480421 0.480419 
0.480417 0.480416 0.480415 0.480414 0.480414 0.480415 0.480416 0.480418 0.480421 
0.480424 0.480429 0.480434 0.480441 0.480449 0.480458 0.480469 0.480483 0.480498 
0.480516 0.480538 0.480563 0.480592 0.480627 0.480667 0.480714 0.480769 0.480832 
0.480906 0.480991 0.481088 0.4812 0.481328 0.481474 0.481637 0.481817 0.482034 
0.482274 0.484583 0.484849 0.485067 0.485265 0.485442 0.4856 0.485741 0.485865 
0.485976 0.486073 0.48616 0.486236 0.486304 0.486365 0.486418 0.486466 0.486509 
0.486547 0.486582 0.486612 0.48664 0.486665 0.486687 0.486708 0.486726 0.486743 
0.486758 0.486772 0.486785 0.486796 0.486807 0.486817 0.486825 0.486834 0.486841 
0.486848 0.486855 0.486861 0.486867 0.486872 0.486877 0.486882 0.486887 0.486891 
0.486895 0.486899 0.486902 0.486906 0.486909 0.486912 0.486915 0.486918 0.486921 
0.486924 0.486926 0.486929 0.486932 0.486934 0.486937 0.486939 0.486941 0.486944 
0.486946 0.486948 0.48695 0.486952 0.486954 0.486956 0.486958 0.48696 0.486962 
0.486964 0.486966 0.486968 0.48697 0.486972 0.486974 0.486976 0.486977 0.486979 
0.486981 0.486983 0.486985 0.486986 0.486988 0.48699 0.486991 0.486993 0.486995 
0.486996 0.486998 0.487 0.487001 0.487003 0.486959 0.486936 0.482689 0.479984 
0.479955 0.479924 0.479894 0.479862 0.479831 0.479799 0.479767 0.479735 0.479704 
0.479672 0.479642 0.479613 0.479585 0.479558 0.479533 0.47951 0.47949 0.479472 
0.479457 0.479445 0.479436 0.47943 0.479429 0.479431 0.479437 0.479447 0.479461 
0.479479 0.479502 0.479529 0.47956 0.479594 0.479633 0.479674 0.479719 0.479767 
0.479817 0.479869 0.479923 0.479977 0.480033 0.48009 0.480146 0.480202 0.480257 
0.48031 0.480363 0.480413 0.480461 0.480507 0.48055 0.48059 0.480627 0.480661 
0.480692 0.48072 0.480743 0.480764 0.480781 0.480794 0.480804 0.48081 0.480813 
0.480812 0.480808 0.480801 0.48079 0.480776 0.480759 0.480739 0.480715 0.480689 
0.480659 0.480626 0.480591 0.480553 0.480512 0.480469 0.480423 0.480376 0.480327 
0.480277 0.480226 0.480174 0.480122 0.480071 0.48002 0.479971 0.479924 0.479879 
0.479838 0.479801 0.479769 0.479741 0.479719 0.479703 0.479693 0.479689 0.479691 
0.4797 0.479714 0.479734 0.479758 0.479787 0.479819 0.479854 0.47989 0.479927 
0.479965 0.480001 0.480037 0.48007 0.480101 0.48013 0.480156 0.480179 0.4802 
0.480218 0.480234 0.480248 0.48026 0.480271 0.480281 0.480291 0.4803 0.480309 
0.480318 0.480327 0.480337 0.480347 0.480357 0.480367 0.480378 0.480388 0.480398 
0.480408 0.480417 0.480425 0.480432 0.480439 0.480444 0.480449 0.480452 0.480454 
0.480456 0.480456 0.480456 0.480455 0.480453 0.48045 0.480448 0.480444 0.480441 
0.480437 0.480433 0.48043 0.480426 0.480423 0.48042 0.480417 0.480415 0.480414 
0.480412 0.480412 0.480411 0.480412 0.480413 0.480414 0.480417 0.48042 0.480424 
0.480428 0.480434 0.480441 0.480449 0.480459 0.48047 0.480483 0.480499 0.480518 
0.48054 0.480566 0.480596 0.480631 0.480673 0.480722 0.480779 0.480845 0.480922 
0.481011 0.481114 0.481233 0.48137 0.481525 0.481697 0.481906 0.482152 0.484586 
0.484867 0.485094 0.485298 0.485479 0.485639 0.485779 0.485903 0.486011 0.486107 
0.486191 0.486265 0.486331 0.486389 0.48644 0.486486 0.486527 0.486564 0.486596 
0.486626 0.486652 0.486676 0.486697 0.486717 0.486734 0.48675 0.486765 0.486778 
0.48679 0.486801 0.486811 0.48682 0.486829 0.486837 0.486844 0.486851 0.486857 
0.486863 0.486869 0.486874 0.486879 0.486883 0.486888 0.486892 0.486896 0.486899 
0.486903 0.486906 0.48691 0.486913 0.486916 0.486919 0.486921 0.486924 0.486927 
0.486929 0.486932 0.486934 0.486937 0.486939 0.486941 0.486944 0.486946 0.486948 
0.48695 0.486952 0.486954 0.486956 0.486958 0.48696 0.486962 0.486964 0.486966 
0.486968 0.48697 0.486972 0.486974 0.486976 0.486977 0.486979 0.486981 0.486983 
0.486985 0.486986 0.486988 0.48699 0.486991 0.486993 0.486995 0.486996 0.486998 
0.487 0.487001 0.487003 0.486959 0.486936 0.482689 0.479984 0.479954 0.479923 
0.479892 0.47986 0.479828 0.479795 0.479763 0.47973 0.479698 0.479666 0.479634 
0.479604 0.479575 0.479547 0.479521 0.479498 0.479476 0.479457 0.479441 0.479428 
0.479418 0.479412 0.47941 0.479411 0.479417 0.479427 0.479441 0.479459 0.479482 
0.479509 0.47954 0.479576 0.479615 0.479658 0.479704 0.479753 0.479804 0.479858 
0.479913 0.47997 0.480027 0.480085 0.480144 0.480201 0.480258 0.480314 0.480368 
0.48042 0.480469 0.480517 0.480561 0.480602 0.480641 0.480676 0.480707 0.480735 
0.48076 0.48078 0.480798 0.480811 0.480821 0.480827 0.48083 0.480829 0.480825 
0.480817 0.480806 0.480792 0.480774 0.480753 0.480729 0.480701 0.48067 0.480637 
0.4806 0.48056 0.480518 0.480474 0.480426 0.480377 0.480326 0.480274 0.480221 
0.480167 0.480112 0.480058 0.480005 0.479954 0.479904 0.479857 0.479814 0.479775 
0.479741 0.479712 0.479689 0.479672 0.479662 0.479658 0.479662 0.479672 0.479688 
0.479711 0.479738 0.47977 0.479806 0.479844 0.479884 0.479925 0.479966 0.480005 
0.480043 0.480078 0.480111 0.48014 0.480167 0.48019 0.48021 0.480228 0.480243 
0.480256 0.480267 0.480277 0.480286 0.480294 0.480302 0.48031 0.480319 0.480328 
0.480337 0.480347 0.480358 0.480368 0.480379 0.48039 0.480401 0.480411 0.48042 
0.480429 0.480437 0.480444 0.480449 0.480454 0.480457 0.480459 0.48046 0.48046 
0.48046 0.480458 0.480456 0.480453 0.48045 0.480446 0.480442 0.480438 0.480433 
0.480429 0.480425 0.480422 0.480418 0.480415 0.480413 0.480411 0.48041 0.480409 
0.480408 0.480408 0.480409 0.48041 0.480412 0.480414 0.480418 0.480421 0.480426 
0.480432 0.480439 0.480446 0.480456 0.480467 0.48048 0.480495 0.480514 0.480535 
0.48056 0.48059 0.480626 0.480667 0.480716 0.480774 0.480841 0.480919 0.481011 
0.481119 0.481244 0.481387 0.481551 0.481757 0.482028 0.484592 0.484891 0.48513 
0.485341 0.485526 0.485687 0.485827 0.485948 0.486055 0.486147 0.486228 0.4863 
0.486362 0.486418 0.486466 0.48651 0.486549 0.486583 0.486614 0.486642 0.486666 
0.486689 0.486709 0.486727 0.486744 0.486759 0.486772 0.486785 0.486796 0.486807 
0.486816 0.486825 0.486833 0.486841 0.486848 0.486854 0.48686 0.486866 0.486871 
0.486876 0.486881 0.486885 0.486889 0.486893 0.486897 0.4869 0.486904 0.486907 
0.48691 0.486913 0.486916 0.486919 0.486922 0.486925 0.486927 0.48693 0.486932 
0.486935 0.486937 0.486939 0.486942 0.486944 0.486946 0.486948 0.48695 0.486952 
0.486954 0.486957 0.486959 0.486961 0.486962 0.486964 0.486966 0.486968 0.48697 
0.486972 0.486974 0.486976 0.486977 0.486979 0.486981 0.486983 0.486985 0.486986 
0.486988 0.48699 0.486991 0.486993 0.486995 0.486996 0.486998 0.487 0.487001 
0.487003 0.486959 0.486936 0.482689 0.479984 0.479953 0.479922 0.47989 0.479858 
0.479825 0.479792 0.479758 0.479725 0.479691 0.479658 0.479626 0.479594 0.479564 
0.479535 0.479508 0.479483 0.479461 0.479441 0.479424 0.47941 0.479399 0.479392 
0.479389 0.47939 0.479395 0.479404 0.479418 0.479437 0.47946 0.479487 0.479519 
0.479555 0.479596 0.479639 0.479687 0.479737 0.47979 0.479845 0.479903 0.479961 
0.480021 0.480081 0.480141 0.480201 0.48026 0.480318 0.480373 0.480427 0.480479 
0.480528 0.480573 0.480616 0.480656 0.480692 0.480724 0.480753 0.480778 0.480799 
0.480816 0.48083 0.48084 0.480847 0.480849 0.480848 0.480843 0.480835 0.480824 
0.480809 0.48079 0.480768 0.480743 0.480715 0.480683 0.480648 0.48061 0.480569 
0.480525 0.480479 0.48043 0.480378 0.480325 0.480271 0.480215 0.480158 0.480101 
0.480044 0.479988 0.479934 0.479882 0.479832 0.479786 0.479745 0.479709 0.479678 
0.479654 0.479636 0.479626 0.479624 0.479628 0.47964 0.479659 0.479684 0.479715 
0.479751 0.479791 0.479834 0.479878 0.479923 0.479967 0.48001 0.480051 0.480088 
0.480122 0.480153 0.48018 0.480203 0.480223 0.48024 0.480253 0.480265 0.480274 
0.480283 0.48029 0.480297 0.480304 0.480311 0.480319 0.480328 0.480337 0.480347 
0.480358 0.480369 0.480381 0.480392 0.480403 0.480414 0.480425 0.480434 0.480442 
0.480449 0.480455 0.480459 0.480463 0.480465 0.480466 0.480465 0.480464 0.480462 