# vtk DataFile Version 5.1
vtk output
ASCII
DATASET UNSTRUCTURED_GRID
POINTS 9610 double
0.1016 1.5 0 0.1016 1.45 0 0.1016 1.4 0 
0.1016 1.35 0 0.1016 1.3 0 0.1016 1.25 0 
0.1016 1.2 0 0.1016 1.15 0 0.1016 1.1 0 
0.1016 1.05 0 0.1016 1 0 0.1016 0.95 0 
0.1016 0.9 0 0.1016 0.85 0 0.1016 0.8 0 
0.1016 0.75 0 0.1016 0.7 0 0.1016 0.65 0 
0.1016 0.6 0 0.1016 0.55 0 0.1016 0.5 0 
0.1016 0.45 0 0.1016 0.4 0 0.1016 0.35 0 
0.1016 0.3 0 0.1016 0.25 0 0.1016 0.2 0 
0.1016 0.15 0 0.1016 0.1 0 0.1016 0.05 0 
0.1016 0 0 5.08 1.5 0 5.08 1.45 0 
5.08 1.4 0 5.08 1.35 0 5.08 1.3 0 
5.08 1.25 0 5.08 1.2 0 5.08 1.15 0 
5.08 1.1 0 5.08 1.05 0 5.08 1 0 
5.08 0.95 0 5.08 0.9 0 5.08 0.85 0 
5.08 0.8 0 5.08 0.75 0 5.08 0.7 0 
5.08 0.65 0 5.08 0.6 0 5.08 0.55 0 
5.08 0.5 0 5.08 0.45 0 5.08 0.4 0 
5.08 0.35 0 5.08 0.3 0 5.08 0.25 0 
5.08 0.2 0 5.08 0.15 0 5.08 0.1 0 
5.08 0.05 0 5.08 0 0 0.151384 1.5 0 
0.151384 1.45 0 0.151384 1.4 0 0.151384 1.35 0 
0.151384 1.3 0 0.151384 1.25 0 0.151384 1.2 0 
0.151384 1.15 0 0.151384 1.1 0 0.151384 1.05 0 
0.151384 1 0 0.151384 0.95 0 0.151384 0.9 0 
0.151384 0.85 0 0.151384 0.8 0 0.151384 0.75 0 
0.151384 0.7 0 0.151384 0.65 0 0.151384 0.6 0 
0.151384 0.55 0 0.151384 0.5 0 0.151384 0.45 0 
0.151384 0.4 0 0.151384 0.35 0 0.151384 0.3 0 
0.151384 0.25 0 0.151384 0.2 0 0.151384 0.15 0 
0.151384 0.1 0 0.151384 0.05 0 0.151384 0 0 
0.201168 1.5 0 0.201168 1.45 0 0.201168 1.4 0 
0.201168 1.35 0 0.201168 1.3 0 0.201168 1.25 0 
0.201168 1.2 0 0.201168 1.15 0 0.201168 1.1 0 
0.201168 1.05 0 0.201168 1 0 0.201168 0.95 0 
0.201168 0.9 0 0.201168 0.85 0 0.201168 0.8 0 
0.201168 0.75 0 0.201168 0.7 0 0.201168 0.65 0 
0.201168 0.6 0 0.201168 0.55 0 0.201168 0.5 0 
0.201168 0.45 0 0.201168 0.4 0 0.201168 0.35 0 
0.201168 0.3 0 0.201168 0.25 0 0.201168 0.2 0 
0.201168 0.15 0 0.201168 0.1 0 0.201168 0.05 0 
0.201168 0 0 0.250952 1.5 0 0.250952 1.45 0 
0.250952 1.4 0 0.250952 1.35 0 0.250952 1.3 0 
0.250952 1.25 0 0.250952 1.2 0 0.250952 1.15 0 
0.250952 1.1 0 0.250952 1.05 0 0.250952 1 0 
0.250952 0.95 0 0.250952 0.9 0 0.250952 0.85 0 
0.250952 0.8 0 0.250952 0.75 0 0.250952 0.7 0 
0.250952 0.65 0 0.250952 0.6 0 0.250952 0.55 0 
0.250952 0.5 0 0.250952 0.45 0 0.250952 0.4 0 
0.250952 0.35 0 0.250952 0.3 0 0.250952 0.25 0 
0.250952 0.2 0 0.250952 0.15 0 0.250952 0.1 0 
0.250952 0.05 0 0.250952 0 0 0.300736 1.5 0 
0.300736 1.45 0 0.300736 1.4 0 0.300736 1.35 0 
0.300736 1.3 0 0.300736 1.25 0 0.300736 1.2 0 
0.300736 1.15 0 0.300736 1.1 0 0.300736 1.05 0 
0.300736 1 0 0.300736 0.95 0 0.300736 0.9 0 
0.300736 0.85 0 0.300736 0.8 0 0.300736 0.75 0 
0.300736 0.7 0 0.300736 0.65 0 0.300736 0.6 0 
0.300736 0.55 0 0.300736 0.5 0 0.300736 0.45 0 
0.300736 0.4 0 0.300736 0.35 0 0.300736 0.3 0 
0.300736 0.25 0 0.300736 0.2 0 0.300736 0.15 0 
0.300736 0.1 0 0.300736 0.05 0 0.300736 0 0 
0.35052 1.5 0 0.35052 1.45 0 0.35052 1.4 0 
0.35052 1.35 0 0.35052 1.3 0 0.35052 1.25 0 
0.35052 1.2 0 0.35052 1.15 0 0.35052 1.1 0 
0.35052 1.05 0 0.35052 1 0 0.35052 0.95 0 
0.35052 0.9 0 0.35052 0.85 0 0.35052 0.8 0 
0.35052 0.75 0 0.35052 0.7 0 0.35052 0.65 0 
0.35052 0.6 0 0.35052 0.55 0 0.35052 0.5 0 
0.35052 0.45 0 0.35052 0.4 0 0.35052 0.35 0 
0.35052 0.3 0 0.35052 0.25 0 0.35052 0.2 0 
0.35052 0.15 0 0.35052 0.1 0 0.35052 0.05 0 
0.35052 0 0 0.400304 1.5 0 0.400304 1.45 0 
0.400304 1.4 0 0.400304 1.35 0 0.400304 1.3 0 
0.400304 1.25 0 0.400304 1.2 0 0.400304 1.15 0 
0.400304 1.1 0 0.400304 1.05 0 0.400304 1 0 
0.400304 0.95 0 0.400304 0.9 0 0.400304 0.85 0 
0.400304 0.8 0 0.400304 0.75 0 0.400304 0.7 0 
0.400304 0.65 0 0.400304 0.6 0 0.400304 0.55 0 
0.400304 0.5 0 0.400304 0.45 0 0.400304 0.4 0 
0.400304 0.35 0 0.400304 0.3 0 0.400304 0.25 0 
0.400304 0.2 0 0.400304 0.15 0 0.400304 0.1 0 
0.400304 0.05 0 0.400304 0 0 0.450088 1.5 0 
0.450088 1.45 0 0.450088 1.4 0 0.450088 1.35 0 
0.450088 1.3 0 0.450088 1.25 0 0.450088 1.2 0 
0.450088 1.15 0 0.450088 1.1 0 0.450088 1.05 0 
0.450088 1 0 0.450088 0.95 0 0.450088 0.9 0 
0.450088 0.85 0 0.450088 0.8 0 0.450088 0.75 0 
0.450088 0.7 0 0.450088 0.65 0 0.450088 0.6 0 
0.450088 0.55 0 0.450088 0.5 0 0.450088 0.45 0 
0.450088 0.4 0 0.450088 0.35 0 0.450088 0.3 0 
0.450088 0.25 0 0.450088 0.2 0 0.450088 0.15 0 
0.450088 0.1 0 0.450088 0.05 0 0.450088 0 0 
0.499872 1.5 0 0.499872 1.45 0 0.499872 1.4 0 
0.499872 1.35 0 0.499872 1.3 0 0.499872 1.25 0 
0.499872 1.2 0 0.499872 1.15 0 0.499872 1.1 0 
0.499872 1.05 0 0.499872 1 0 0.499872 0.95 0 
0.499872 0.9 0 0.499872 0.85 0 0.499872 0.8 0 
0.499872 0.75 0 0.499872 0.7 0 0.499872 0.65 0 
0.499872 0.6 0 0.499872 0.55 0 0.499872 0.5 0 
0.499872 0.45 0 0.499872 0.4 0 0.499872 0.35 0 
0.499872 0.3 0 0.499872 0.25 0 0.499872 0.2 0 
0.499872 0.15 0 0.499872 0.1 0 0.499872 0.05 0 
0.499872 0 0 0.549656 1.5 0 0.549656 1.45 0 
0.549656 1.4 0 0.549656 1.35 0 0.549656 1.3 0 
0.549656 1.25 0 0.549656 1.2 0 0.549656 1.15 0 
0.549656 1.1 0 0.549656 1.05 0 0.549656 1 0 
0.549656 0.95 0 0.549656 0.9 0 0.549656 0.85 0 
0.549656 0.8 0 0.549656 0.75 0 0.549656 0.7 0 
0.549656 0.65 0 0.549656 0.6 0 0.549656 0.55 0 
0.549656 0.5 0 0.549656 0.45 0 0.549656 0.4 0 
0.549656 0.35 0 0.549656 0.3 0 0.549656 0.25 0 
0.549656 0.2 0 0.549656 0.15 0 0.549656 0.1 0 
0.549656 0.05 0 0.549656 0 0 0.59944 1.5 0 
0.59944 1.45 0 0.59944 1.4 0 0.59944 1.35 0 
0.59944 1.3 0 0.59944 1.25 0 0.59944 1.2 0 
0.59944 1.15 0 0.59944 1.1 0 0.59944 1.05 0 
0.59944 1 0 0.59944 0.95 0 0.59944 0.9 0 
0.59944 0.85 0 0.59944 0.8 0 0.59944 0.75 0 
0.59944 0.7 0 0.59944 0.65 0 0.59944 0.6 0 
0.59944 0.55 0 0.59944 0.5 0 0.59944 0.45 0 
0.59944 0.4 0 0.59944 0.35 0 0.59944 0.3 0 
0.59944 0.25 0 0.59944 0.2 0 0.59944 0.15 0 
0.59944 0.1 0 0.59944 0.05 0 0.59944 0 0 
0.649224 1.5 0 0.649224 1.45 0 0.649224 1.4 0 
0.649224 1.35 0 0.649224 1.3 0 0.649224 1.25 0 
0.649224 1.2 0 0.649224 1.15 0 0.649224 1.1 0 
0.649224 1.05 0 0.649224 1 0 0.649224 0.95 0 
0.649224 0.9 0 0.649224 0.85 0 0.649224 0.8 0 
0.649224 0.75 0 0.649224 0.7 0 0.649224 0.65 0 
0.649224 0.6 0 0.649224 0.55 0 0.649224 0.5 0 
0.649224 0.45 0 0.649224 0.4 0 0.649224 0.35 0 
0.649224 0.3 0 0.649224 0.25 0 0.649224 0.2 0 
0.649224 0.15 0 0.649224 0.1 0 0.649224 0.05 0 
0.649224 0 0 0.699008 1.5 0 0.699008 1.45 0 
0.699008 1.4 0 0.699008 1.35 0 0.699008 1.3 0 
0.699008 1.25 0 0.699008 1.2 0 0.699008 1.15 0 
0.699008 1.1 0 0.699008 1.05 0 0.699008 1 0 
0.699008 0.95 0 0.699008 0.9 0 0.699008 0.85 0 
0.699008 0.8 0 0.699008 0.75 0 0.699008 0.7 0 
0.699008 0.65 0 0.699008 0.6 0 0.699008 0.55 0 
0.699008 0.5 0 0.699008 0.45 0 0.699008 0.4 0 
0.699008 0.35 0 0.699008 0.3 0 0.699008 0.25 0 
0.699008 0.2 0 0.699008 0.15 0 0.699008 0.1 0 
0.699008 0.05 0 0.699008 0 0 0.748792 1.5 0 
0.748792 1.45 0 0.748792 1.4 0 0.748792 1.35 0 
0.748792 1.3 0 0.748792 1.25 0 0.748792 1.2 0 
0.748792 1.15 0 0.748792 1.1 0 0.748792 1.05 0 
0.748792 1 0 0.748792 0.95 0 0.748792 0.9 0 
0.748792 0.85 0 0.748792 0.8 0 0.748792 0.75 0 
0.748792 0.7 0 0.748792 0.65 0 0.748792 0.6 0 
0.748792 0.55 0 0.748792 0.5 0 0.748792 0.45 0 
0.748792 0.4 0 0.748792 0.35 0 0.748792 0.3 0 
0.748792 0.25 0 0.748792 0.2 0 0.748792 0.15 0 
0.748792 0.1 0 0.748792 0.05 0 0.748792 0 0 
0.798576 1.5 0 0.798576 1.45 0 0.798576 1.4 0 
0.798576 1.35 0 0.798576 1.3 0 0.798576 1.25 0 
0.798576 1.2 0 0.798576 1.15 0 0.798576 1.1 0 
0.798576 1.05 0 0.798576 1 0 0.798576 0.95 0 
0.798576 0.9 0 0.798576 0.85 0 0.798576 0.8 0 
0.798576 0.75 0 0.798576 0.7 0 0.798576 0.65 0 
0.798576 0.6 0 0.798576 0.55 0 0.798576 0.5 0 
0.798576 0.45 0 0.798576 0.4 0 0.798576 0.35 0 
0.798576 0.3 0 0.798576 0.25 0 0.798576 0.2 0 
0.798576 0.15 0 0.798576 0.1 0 0.798576 0.05 0 
0.798576 0 0 0.84836 1.5 0 0.84836 1.45 0 
0.84836 1.4 0 0.84836 1.35 0 0.84836 1.3 0 
0.84836 1.25 0 0.84836 1.2 0 0.84836 1.15 0 
0.84836 1.1 0 0.84836 1.05 0 0.84836 1 0 
0.84836 0.95 0 0.84836 0.9 0 0.84836 0.85 0 
0.84836 0.8 0 0.84836 0.75 0 0.84836 0.7 0 
0.84836 0.65 0 0.84836 0.6 0 0.84836 0.55 0 
0.84836 0.5 0 0.84836 0.45 0 0.84836 0.4 0 
0.84836 0.35 0 0.84836 0.3 0 0.84836 0.25 0 
0.84836 0.2 0 0.84836 0.15 0 0.84836 0.1 0 
0.84836 0.05 0 0.84836 0 0 0.898144 1.5 0 
0.898144 1.45 0 0.898144 1.4 0 0.898144 1.35 0 
0.898144 1.3 0 0.898144 1.25 0 0.898144 1.2 0 
0.898144 1.15 0 0.898144 1.1 0 0.898144 1.05 0 
0.898144 1 0 0.898144 0.95 0 0.898144 0.9 0 
0.898144 0.85 0 0.898144 0.8 0 0.898144 0.75 0 
0.898144 0.7 0 0.898144 0.65 0 0.898144 0.6 0 
0.898144 0.55 0 0.898144 0.5 0 0.898144 0.45 0 
0.898144 0.4 0 0.898144 0.35 0 0.898144 0.3 0 
0.898144 0.25 0 0.898144 0.2 0 0.898144 0.15 0 
0.898144 0.1 0 0.898144 0.05 0 0.898144 0 0 
0.947928 1.5 0 0.947928 1.45 0 0.947928 1.4 0 
0.947928 1.35 0 0.947928 1.3 0 0.947928 1.25 0 
0.947928 1.2 0 0.947928 1.15 0 0.947928 1.1 0 
0.947928 1.05 0 0.947928 1 0 0.947928 0.95 0 
0.947928 0.9 0 0.947928 0.85 0 0.947928 0.8 0 
0.947928 0.75 0 0.947928 0.7 0 0.947928 0.65 0 
0.947928 0.6 0 0.947928 0.55 0 0.947928 0.5 0 
0.947928 0.45 0 0.947928 0.4 0 0.947928 0.35 0 
0.947928 0.3 0 0.947928 0.25 0 0.947928 0.2 0 
0.947928 0.15 0 0.947928 0.1 0 0.947928 0.05 0 
0.947928 0 0 0.997712 1.5 0 0.997712 1.45 0 
0.997712 1.4 0 0.997712 1.35 0 0.997712 1.3 0 
0.997712 1.25 0 0.997712 1.2 0 0.997712 1.15 0 
0.997712 1.1 0 0.997712 1.05 0 0.997712 1 0 
0.997712 0.95 0 0.997712 0.9 0 0.997712 0.85 0 
0.997712 0.8 0 0.997712 0.75 0 0.997712 0.7 0 
0.997712 0.65 0 0.997712 0.6 0 0.997712 0.55 0 
0.997712 0.5 0 0.997712 0.45 0 0.997712 0.4 0 
0.997712 0.35 0 0.997712 0.3 0 0.997712 0.25 0 
0.997712 0.2 0 0.997712 0.15 0 0.997712 0.1 0 
0.997712 0.05 0 0.997712 0 0 1.047496 1.5 0 
1.047496 1.45 0 1.047496 1.4 0 1.047496 1.35 0 
1.047496 1.3 0 1.047496 1.25 0 1.047496 1.2 0 
1.047496 1.15 0 1.047496 1.1 0 1.047496 1.05 0 
1.047496 1 0 1.047496 0.95 0 1.047496 0.9 0 
1.047496 0.85 0 1.047496 0.8 0 1.047496 0.75 0 
1.047496 0.7 0 1.047496 0.65 0 1.047496 0.6 0 
1.047496 0.55 0 1.047496 0.5 0 1.047496 0.45 0 
1.047496 0.4 0 1.047496 0.35 0 1.047496 0.3 0 
1.047496 0.25 0 1.047496 0.2 0 1.047496 0.15 0 
[...]
CELL_DATA 9270
FIELD FieldData 7
B_Stress_n_p_m2 1 9270 float
0.352897 0.389748 0.396578 0.398902 0.401174 0.403988 0.407542 0.411937 0.417322 
0.423873 0.431875 0.440738 0.449572 0.467798 0.485975 0.37464 0.225005 0.154893 
0.114488 0.0883089 0.0703411 0.0575698 0.0483492 0.041716 0.037074 0.0339625 0.0320664 
0.0303757 0.0281639 0.0241477 0.329274 0.365268 0.371525 0.372898 0.373795 0.374726 
0.375774 0.37682 0.377713 0.378153 0.377534 0.374314 0.366877 0.354384 0.320301 
0.24134 0.176666 0.130245 0.097743 0.0745939 0.0577859 0.0453947 0.0361863 0.0293411 
0.0242705 0.0204552 0.017438 0.0140819 0.00994198 0.00281882 0.308883 0.34419 0.350038 
0.350701 0.350561 0.350111 0.349373 0.348143 0.346182 0.343092 0.338247 0.330614 
0.319316 0.302569 0.271708 0.222287 0.175723 0.138827 0.110636 0.0893065 0.0731662 
0.0609174 0.0515925 0.0444532 0.0388801 0.0342579 0.0299114 0.0247279 0.0181569 0.00901406 
0.289413 0.324125 0.329644 0.329715 0.32871 0.327136 0.324981 0.322006 0.317937 
0.312349 0.304638 0.293971 0.279476 0.25963 0.231494 0.196424 0.162833 0.134121 
0.110731 0.0921241 0.0774924 0.0660507 0.0571084 0.0500538 0.0442931 0.0391753 0.0339101 
0.0274378 0.0191025 0.00842096 0.271298 0.305512 0.310802 0.310429 0.308775 0.306381 
0.303231 0.299097 0.293735 0.286784 0.277801 0.266247 0.25157 0.232973 0.209639 
0.183046 0.157084 0.133869 0.114096 0.0977373 0.084439 0.07374 0.0651535 0.0581795 
0.0522672 0.0467643 0.0408315 0.0334586 0.0238592 0.0119554 0.254552 0.288355 0.293506 
0.292821 0.290707 0.287752 0.283952 0.279109 0.273024 0.265418 0.255982 0.244378 
0.230301 0.213459 0.193864 0.17265 0.151808 0.13266 0.115836 0.101489 0.0895033 
0.0796168 0.0714914 0.064723 0.0588123 0.0531226 0.0467872 0.0387861 0.0281403 0.0148068 
0.239189 0.272657 0.277748 0.276866 0.274456 0.271158 0.266987 0.261786 0.255405 
0.247646 0.238315 0.227225 0.214251 0.199359 0.182792 0.165344 0.148148 0.132069 
0.117614 0.10499 0.0941943 0.0850921 0.0774514 0.0709512 0.06515 0.0594436 0.0529565 
0.04463 0.0332499 0.0185862 0.22518 0.258375 0.26347 0.262489 0.259914 0.256444 
0.252116 0.246809 0.240421 0.23282 0.223896 0.213561 0.201799 0.188693 0.174521 
0.15984 0.145353 0.131648 0.119116 0.107963 0.09824 0.0898863 0.0827461 0.0765679 
0.0709678 0.0653806 0.0589279 0.0504859 0.0385609 0.0225646 0.212469 0.245443 0.250591 
0.249585 0.246951 0.243439 0.239108 0.233871 0.227666 0.220409 0.21205 0.202565 
0.191995 0.180463 0.168223 0.155672 0.143279 0.131456 0.120507 0.110612 0.101848 
0.0941959 0.0875557 0.0817337 0.076401 0.0710367 0.0647647 0.056386 0.044102 0.0268415 
0.200984 0.233775 0.239014 0.238041 0.235423 0.231964 0.227736 0.222686 0.216778 
0.209966 0.202239 0.193609 0.184144 0.173974 0.163314 0.152455 0.141726 0.131428 
0.121796 0.112985 0.105075 0.0980767 0.091927 0.0864802 0.0814583 0.0763861 0.070395 
0.0622084 0.0497103 0.0312524 0.190639 0.223279 0.228633 0.227732 0.225187 0.221845 
0.217793 0.213 0.207453 0.201132 0.194048 0.186235 0.17777 0.168775 0.159426 
0.149945 0.140572 0.131533 0.123011 0.115139 0.107994 0.101601 0.0959263 0.0908615 
0.0861746 0.0814366 0.0757918 0.0678911 0.0553019 0.0357285 0.181345 0.213857 0.21934 
0.21854 0.216105 0.212922 0.209088 0.204593 0.199436 0.193615 0.187156 0.180102 
0.17253 0.164549 0.156305 0.147968 0.139721 0.131738 0.124164 0.117112 0.110653 
0.10482 0.0995993 0.0949138 0.0905714 0.0861878 0.0809258 0.0733737 0.0607921 0.0401888 
0.173014 0.205411 0.211031 0.210349 0.208047 0.205048 0.201456 0.197276 0.192515 
0.187184 0.181315 0.174955 0.168177 0.161075 0.153771 0.146399 0.139103 0.132018 
0.125263 0.118931 0.113089 0.107773 0.102983 0.0986676 0.0946677 0.0906428 0.0857789 
0.0786137 0.0661187 0.0445733 0.165558 0.197851 0.203607 0.203051 0.200895 0.198093 
0.194752 0.190889 0.186517 0.181652 0.176331 0.1706 0.164525 0.158191 0.151695 
0.145149 0.138665 0.132353 0.126309 0.120615 0.11533 0.110491 0.106107 0.102147 
0.0984795 0.094806 0.0903398 0.0835809 0.0712337 0.0488336 0.158893 0.191087 0.196975 
0.196548 0.194545 0.191943 0.188852 0.185299 0.181298 0.17687 0.172052 0.166888 
0.161438 0.155775 0.149981 0.144147 0.138365 0.132724 0.127306 0.122179 0.117396 
0.112996 0.108993 0.10537 0.102021 0.0986841 0.0946046 0.0882567 0.0761037 0.0529338 
0.152944 0.18504 0.191052 0.190751 0.188901 0.186495 0.183649 0.180391 0.17674 
0.172717 0.168358 0.163704 0.15881 0.153737 0.148556 0.143342 0.138172 0.13312 
0.128253 0.123632 0.119305 0.115308 0.11166 0.108354 0.105305 0.102286 0.0985745 
0.0926323 0.0807071 0.0568488 0.147637 0.179635 0.18576 0.185581 0.183879 0.181664 
0.17905 0.176072 0.172745 0.169095 0.165153 0.160958 0.156557 0.152006 0.147364 
0.142694 0.138061 0.133527 0.129151 0.124984 0.121069 0.117442 0.114123 0.111113 
0.108345 0.105621 0.102256 0.0967062 0.0850323 0.0605628 0.142908 0.174804 0.18103 
0.180966 0.179406 0.177372 0.174977 0.17226 0.169234 0.165924 0.162359 0.158576 
0.154617 0.150528 0.146361 0.142171 0.138013 0.133938 0.129999 0.126239 0.122698 
0.11941 0.116395 0.113661 0.111153 0.108701 0.105657 0.100483 0.0890755 0.064067 
0.138699 0.170487 0.176801 0.176843 0.175418 0.173554 0.171364 0.168887 0.166137 
0.163137 0.159915 0.156502 0.152936 0.149258 0.145514 0.141749 0.138011 0.134346 
0.130796 0.127404 0.124202 0.121224 0.118489 0.116009 0.113741 0.111538 0.10879 
0.103971 0.092839 0.0673589 0.134954 0.166629 0.173017 0.173156 0.171858 0.170152 
0.168151 0.165897 0.163399 0.160681 0.157767 0.154687 0.151473 0.148162 0.144794 
0.141407 0.138044 0.134744 0.131545 0.128483 0.125589 0.122893 0.120415 0.11817 
0.116122 0.114147 0.11167 0.107183 0.0963296 0.0704405 0.131627 0.163181 0.169629 
0.169857 0.168676 0.167117 0.16529 0.163239 0.160972 0.15851 0.155875 0.153094 
0.150196 0.147213 0.144179 0.141131 0.138102 0.135129 0.132244 0.12948 0.126865 
0.124427 0.122184 0.120155 0.118308 0.116539 0.114309 0.110132 0.0995577 0.0733171 
0.128675 0.1601 0.166595 0.166901 0.165828 0.164404 0.162738 0.160873 0.158815 
0.156585 0.154202 0.15169 0.149075 0.146386 0.143653 0.140906 0.138177 0.135497 
0.132895 0.1304 0.128039 0.125835 0.123807 0.121974 0.120311 0.118729 0.116722 
0.112834 0.102536 0.0759965 0.126059 0.157346 0.163874 0.164251 0.163277 0.161977 
0.160458 0.158763 0.156895 0.154875 0.152719 0.15045 0.148089 0.145664 0.143199 
0.140723 0.138263 0.135846 0.133499 0.131248 0.129115 0.127125 0.125293 0.12364 
0.122144 0.120731 0.118926 0.115304 0.105277 0.0784883 0.123744 0.154885 0.161434 
0.161873 0.16099 0.159802 0.158417 0.156877 0.155182 0.153352 0.151401 0.14935 
0.147218 0.145029 0.142806 0.140573 0.138354 0.136175 0.134058 0.132026 0.130101 
0.128305 0.126652 0.125162 0.123818 0.122556 0.120935 0.117559 0.107797 0.0808028 
0.1217 0.152686 0.159244 0.159736 0.158936 0.157851 0.156589 0.155188 0.15365 
0.151992 0.150227 0.148373 0.146447 0.144471 0.142465 0.14045 0.138449 0.136483 
0.134573 0.13274 0.131003 0.129382 0.127892 0.126551 0.125344 0.12422 0.122763 
0.119614 0.11011 0.0829514 0.119899 0.150722 0.157277 0.157814 0.157089 0.156099 
0.154948 0.153675 0.152279 0.150777 0.149179 0.147502 0.145762 0.143977 0.142166 
0.140348 0.138543 0.136769 0.135046 0.133393 0.131826 0.130365 0.129022 0.127815 
0.126734 0.125732 0.124424 0.121484 0.112231 0.0849452 0.118318 0.148967 0.15551 
0.156085 0.155428 0.154524 0.153474 0.152316 0.151049 0.149687 0.14824 0.146724 
0.145151 0.143539 0.141904 0.140263 0.138634 0.137034 0.135479 0.133988 0.132576 
0.131259 0.13005 0.128966 0.127997 0.127106 0.125932 0.123185 0.114174 0.0867956 
0.116933 0.1474 0.15392 0.154528 0.153932 0.153106 0.152148 0.151095 0.149944 
0.148709 0.147399 0.146027 0.144605 0.143149 0.141672 0.140191 0.138721 0.137277 
0.135875 0.134531 0.133258 0.132072 0.130984 0.130011 0.129144 0.128352 0.127299 
0.124729 0.115954 0.0885135 0.115725 0.146001 0.15249 0.153123 0.152584 0.151827 
0.150953 0.149995 0.14895 0.14783 0.146643 0.145402 0.144116 0.1428 0.141466 
0.140129 0.138802 0.1375 0.136235 0.135024 0.133877 0.132809 0.131831 0.130958 
0.130184 0.129481 0.128537 0.126131 0.117584 0.0901095 0.114677 0.144754 0.151202 
0.151856 0.151367 0.150674 0.149876 0.149004 0.148054 0.147039 0.145963 0.144839 
0.143676 0.142487 0.141282 0.140075 0.138877 0.137702 0.136562 0.13547 0.134438 
0.133477 0.132599 0.131817 0.131126 0.130503 0.129656 0.127401 0.119076 0.0915938 
0.113774 0.143642 0.150042 0.150712 0.150267 0.149633 0.148903 0.148109 0.147245 
0.146324 0.14535 0.144332 0.14328 0.142205 0.141116 0.140026 0.138945 0.137886 
0.136858 0.135874 0.134945 0.134081 0.133293 0.132593 0.131977 0.131426 0.130668 
0.128553 0.120441 0.0929758 0.113 0.142651 0.148996 0.149677 0.149274 0.148691 
0.148024 0.1473 0.146515 0.145679 0.144795 0.143874 0.142922 0.14195 0.140966 
0.139982 0.139007 0.138051 0.137125 0.136239 0.135402 0.134627 0.133919 0.133294 
0.132746 0.13226 0.131581 0.129595 0.121691 0.0942644 0.112344 0.141769 0.148053 
0.148742 0.148374 0.147839 0.147229 0.146569 0.145854 0.145095 0.144294 0.143459 
0.142598 0.141719 0.14083 0.139941 0.139061 0.138199 0.137365 0.136567 0.135815 
0.135118 0.134484 0.133926 0.133439 0.133011 0.132404 0.130539 0.122836 0.0954681 
0.111793 0.140985 0.147202 0.147894 0.147559 0.147067 0.146508 0.145906 0.145255 
0.144565 0.143839 0.143082 0.142303 0.141508 0.140705 0.139902 0.139108 0.138331 
0.137579 0.136861 0.136185 0.135561 0.134993 0.134495 0.134064 0.133688 0.133146 
0.131392 0.123885 0.0965945 0.111339 0.140289 0.146434 0.147126 0.14682 0.146367 
0.145854 0.145304 0.144712 0.144085 0.143425 0.14274 0.142034 0.141315 0.140589 
0.139865 0.139148 0.138448 0.137771 0.137125 0.136518 0.135958 0.13545 0.135006 
0.134625 0.134296 0.133813 0.132163 0.124847 0.0976509 0.110971 0.139671 0.14574 
0.14643 0.146149 0.145732 0.14526 0.144758 0.144218 0.143648 0.143049 0.142428 
0.141788 0.141138 0.140482 0.139828 0.139182 0.13855 0.137941 0.13736 0.136815 
0.136313 0.13586 0.135466 0.135129 0.134843 0.134413 0.132859 0.12573 0.0986438 
0.110682 0.139125 0.145112 0.145797 0.14554 0.145154 0.144721 0.144261 0.143768 
0.143249 0.142706 0.142142 0.141563 0.140975 0.140382 0.139791 0.139208 0.13864 
0.138091 0.137569 0.13708 0.136631 0.136227 0.135877 0.135581 0.135333 0.134951 
0.133488 0.12654 0.0995794 0.110465 0.138641 0.144545 0.145222 0.144985 0.144628 
0.144229 0.143808 0.143358 0.142886 0.142392 0.141881 0.141356 0.140824 0.140288 
0.139755 0.139229 0.138717 0.138223 0.137755 0.137316 0.136915 0.136555 0.136245 
0.135986 0.135771 0.135433 0.134056 0.127285 0.100463 0.110311 0.138215 0.144031 
0.144699 0.14448 0.144148 0.143781 0.143395 0.142984 0.142554 0.142104 0.141641 
0.141166 0.140684 0.140199 0.139718 0.139244 0.138782 0.138339 0.137918 0.137525 
0.137167 0.136847 0.136574 0.136347 0.136163 0.135865 0.134567 0.127971 0.1013 
0.110217 0.13784 0.143565 0.144223 0.144019 0.143711 0.143372 0.143017 0.142642 
0.142249 0.141841 0.14142 0.140989 0.140553 0.140115 0.139681 0.139253 0.138838 
0.138439 0.138062 0.13771 0.137391 0.137107 0.136866 0.13667 0.136513 0.136251 
0.135028 0.128602 0.102095 0.110175 0.137511 0.143143 0.143788 0.143599 0.143312 
0.142998 0.142672 0.142328 0.14197 0.141598 0.141216 0.140825 0.14043 0.140035 
0.139642 0.139257 0.138883 0.138525 0.138187 0.137873 0.137589 0.137337 0.137126 
0.136956 0.136825 0.136596 0.135443 0.129184 0.102853 0.110181 0.137224 0.14276 
0.143391 0.143214 0.142946 0.142656 0.142355 0.14204 0.141713 0.141374 0.141027 
0.140673 0.140315 0.139958 0.139603 0.139256 0.13892 0.138598 0.138296 0.138015 
0.137763 0.13754 0.137356 0.13721 0.137101 0.136902 0.135816 0.129722 0.103577 
0.110228 0.136976 0.142413 0.143028 0.142862 0.142611 0.142342 0.142065 0.141776 
0.141477 0.141168 0.140852 0.14053 0.140207 0.139883 0.139564 0.139251 0.138949 
0.13866 0.138389 0.138139 0.137915 0.137719 0.137559 0.137435 0.137347 0.137174 
0.136151 0.130219 0.10427 0.110312 0.136765 0.142097 0.142696 0.142539 0.142303 
0.142053 0.141797 0.141532 0.141258 0.140976 0.140689 0.140397 0.140104 0.139811 
0.139523 0.139241 0.138969 0.138711 0.138469 0.138246 0.138048 0.137876 0.137738 
0.137633 0.137563 0.137416 0.136453 0.13068 0.104937 0.110428 0.136588 0.14181 
0.142391 0.142243 0.142021 0.141788 0.141551 0.141306 0.141056 0.140798 0.140536 
0.140272 0.140006 0.139741 0.139481 0.139227 0.138984 0.138752 0.138536 0.138338 
0.138163 0.138013 0.137894 0.137807 0.137753 0.137629 0.136723 0.131107 0.105579 
0.110574 0.136442 0.141548 0.142111 0.14197 0.14176 0.141543 0.141323 0.141098 
0.140868 0.140633 0.140394 0.140153 0.139912 0.139673 0.139439 0.13921 0.138991 
0.138784 0.138592 0.138416 0.138262 0.138132 0.13803 0.13796 0.13792 0.137817 
0.136965 0.131505 0.1062 0.110747 0.136321 0.14131 0.141853 0.141718 0.14152 
0.141317 0.141113 0.140905 0.140693 0.140478 0.14026 0.140042 0.139823 0.139607 
0.139395 0.13919 0.138993 0.138808 0.138637 0.138482 0.138347 0.138234 0.138148 
0.138092 0.138066 0.137982 0.137181 0.131874 0.106803 0.110946 0.136224 0.141093 
0.141616 0.141486 0.141298 0.141107 0.140917 0.140725 0.14053 0.140333 0.140135 
0.139936 0.139737 0.139542 0.139351 0.139166 0.13899 0.138824 0.138672 0.138536 
0.138418 0.13832 0.138249 0.138206 0.138192 0.138125 0.137374 0.132219 0.107388 
0.111167 0.136147 0.140896 0.141397 0.141271 0.141092 0.140913 0.140736 0.140557 
0.140378 0.140197 0.140016 0.139835 0.139655 0.139478 0.139305 0.139139 0.138982 
0.138834 0.138699 0.138579 0.138477 0.138394 0.138336 0.138304 0.138301 0.13825 
0.137546 0.132541 0.10796 0.11141 0.136089 0.140715 0.141194 0.141072 0.140901 
0.140732 0.140566 0.140401 0.140235 0.140069 0.139903 0.139738 0.139575 0.139415 
0.139259 0.13911 0.138969 0.138838 0.138719 0.138613 0.138525 0.138455 0.138408 
0.138387 0.138394 0.138358 0.137698 0.132843 0.108518 0.111672 0.136048 0.14055 
0.141005 0.140886 0.140724 0.140564 0.140408 0.140254 0.140101 0.139949 0.139796 
0.139646 0.139497 0.139352 0.139212 0.139078 0.138952 0.138836 0.138731 0.138639 
0.138563 0.138504 0.138469 0.138457 0.138473 0.13845 0.137834 0.133125 0.109065 
0.111953 0.136021 0.140399 0.140831 0.140714 0.140558 0.140406 0.14026 0.140117 
0.139975 0.139834 0.139694 0.139557 0.139422 0.139291 0.139165 0.139044 0.138932 
0.138828 0.138736 0.138656 0.138592 0.138544 0.138518 0.138515 0.138539 0.138528 
0.137953 0.133391 0.109603 0.112251 0.136008 0.14026 0.140668 0.140553 0.140403 
0.140259 0.140121 0.139987 0.139855 0.139725 0.139597 0.139472 0.139349 0.13923 
0.139116 0.139008 0.138908 0.138817 0.138736 0.138667 0.138613 0.138574 0.138557 
0.138561 0.138592 0.138594 0.138058 0.133641 0.110133 0.112564 0.136006 0.140131 
0.140515 0.140402 0.140257 0.14012 0.13999 0.139864 0.139742 0.139622 0.139504 
0.139389 0.139277 0.13917 0.139067 0.13897 0.138881 0.1388 0.13873 0.138671 
0.138626 0.138596 0.138586 0.138598 0.138636 0.138647 0.13815 0.133876 0.110656 
0.112892 0.136014 0.140013 0.140373 0.14026 0.14012 0.139989 0.139866 0.139748 
0.139634 0.139523 0.139414 0.139309 0.139207 0.13911 0.139017 0.138931 0.138851 
0.13878 0.138719 0.138669 0.138633 0.138611 0.138608 0.138626 0.138669 0.138691 
0.13823 0.134098 0.111173 0.113234 0.136031 0.139903 0.140239 0.140127 0.139991 
0.139866 0.139749 0.139638 0.139531 0.139428 0.139328 0.139231 0.139138 0.13905 
0.138967 0.138889 0.138819 0.138757 0.138704 0.138662 0.138633 0.138618 0.138622 
0.138645 0.138694 0.138724 0.138299 0.134309 0.111685 0.113588 0.136057 0.139801 
0.140113 0.140001 0.139869 0.139749 0.139638 0.139533 0.139433 0.139337 0.139244 
0.139155 0.139071 0.13899 0.138915 0.138846 0.138784 0.13873 0.138685 0.13865 
0.138628 0.138619 0.138628 0.138657 0.138711 0.138749 0.138358 0.134508 0.112194 
0.113955 0.136089 0.139705 0.139993 0.139882 0.139754 0.139638 0.139531 0.139432 
0.139338 0.139249 0.139163 0.139081 0.139004 0.138931 0.138864 0.138802 0.138747 
0.1387 0.138662 0.138634 0.138618 0.138615 0.138629 0.138662 0.13872 0.138767 
0.138408 0.134697 0.1127 0.114334 0.136127 0.139616 0.13988 0.139768 0.139644 
0.139532 0.13943 0.139336 0.139247 0.139164 0.139084 0.139009 0.138938 0.138872 
0.138811 0.138757 0.138709 0.138668 0.138636 0.138614 0.138603 0.138605 0.138624 
0.138662 0.138723 0.138777 0.13845 0.134876 0.113204 0.114723 0.136171 0.139531 
0.139773 0.139661 0.139539 0.139431 0.139333 0.139244 0.13916 0.139082 0.139007 
0.138938 0.138873 0.138813 0.138759 0.13871 0.138668 0.138633 0.138607 0.13859 
0.138584 0.138591 0.138614 0.138655 0.138721 0.13878 0.138483 0.135047 0.113707 
0.115123 0.136219 0.139452 0.13967 0.139558 0.139438 0.139334 0.13924 0.139155 
0.139075 0.139002 0.138933 0.138869 0.138809 0.138755 0.138705 0.138662 0.138625 
0.138596 0.138575 0.138562 0.138561 0.138572 0.138599 0.138644 0.138712 0.138778 
0.13851 0.13521 0.114209 0.115533 0.136271 0.139376 0.139572 0.139459 0.139342 
0.139241 0.13915 0.139069 0.138993 0.138924 0.138859 0.1388 0.138745 0.138696 
0.138652 0.138613 0.138581 0.138556 0.13854 0.138532 0.138535 0.13855 0.13858 
0.138628 0.138699 0.138771 0.138531 0.135365 0.114711 0.115953 0.136326 0.139304 
0.139478 0.139365 0.139249 0.139151 0.139063 0.138985 0.138913 0.138848 0.138787 
0.138732 0.138682 0.138637 0.138597 0.138563 0.138536 0.138515 0.138503 0.138499 
0.138506 0.138524 0.138557 0.138608 0.138682 0.138758 0.138545 0.135513 0.115214 
0.116382 0.136383 0.139235 0.139388 0.139273 0.13916 0.139064 0.138979 0.138904 
0.138836 0.138774 0.138717 0.138666 0.138619 0.138578 0.138543 0.138513 0.138489 
0.138472 0.138464 0.138463 0.138474 0.138495 0.138531 0.138584 0.13866 0.138741 
0.138554 0.135655 0.115718 0.11682 0.136443 0.139169 0.139301 0.139185 0.139074 
0.13898 0.138897 0.138825 0.13876 0.138701 0.138648 0.1386 0.138557 0.13852 
0.138488 0.138461 0.138441 0.138428 0.138423 0.138425 0.138439 0.138463 0.138502 
0.138556 0.138635 0.13872 0.138558 0.13579 0.116224 0.117267 0.136504 0.139105 
0.139216 0.1391 0.13899 0.138898 0.138818 0.138748 0.138685 0.13863 0.138579 
0.138534 0.138495 0.138461 0.138432 0.138409 0.138392 0.138382 0.13838 0.138386 
0.138402 0.138428 0.138469 0.138526 0.138606 0.138696 0.138557 0.135919 0.116732 
0.117722 0.136566 0.139042 0.139134 0.139017 0.138909 0.138819 0.13874 0.138673 
0.138612 0.138559 0.138512 0.13847 0.138433 0.138402 0.138376 0.138356 0.138342 
0.138335 0.138335 0.138344 0.138362 0.138391 0.138434 0.138492 0.138575 0.138668 
0.138552 0.136043 0.117242 0.118185 0.136629 0.138982 0.139054 0.138937 0.138829 
0.138741 0.138665 0.138599 0.138541 0.13849 0.138445 0.138406 0.138371 0.138343 
0.13832 0.138302 0.138291 0.138287 0.13829 0.1383 0.138321 0.138351 0.138396 
0.138457 0.13854 0.138637 0.138543 0.136161 0.117755 0.118657 0.136692 0.138923 
0.138977 0.138859 0.138752 0.138665 0.13859 0.138527 0.13847 0.138422 0.138379 
0.138342 0.13831 0.138284 0.138263 0.138248 0.138239 0.138237 0.138242 0.138255 
0.138277 0.13831 0.138357 0.138418 0.138504 0.138603 0.13853 0.136274 0.118272 
0.119137 0.136756 0.138864 0.138901 0.138782 0.138676 0.138591 0.138517 0.138456 
0.138401 0.138354 0.138313 0.138278 0.138249 0.138225 0.138206 0.138193 0.138187 
0.138186 0.138194 0.138208 0.138233 0.138267 0.138315 0.138378 0.138464 0.138566 
0.138514 0.136382 0.118792 0.119624 0.136818 0.138807 0.138826 0.138707 0.138602 
0.138518 0.138446 0.138385 0.138332 0.138287 0.138248 0.138215 0.138187 0.138165 
0.138149 0.138138 0.138133 0.138135 0.138144 0.13816 0.138186 0.138222 0.138271 
0.138335 0.138423 0.138527 0.138494 0.136485 0.119316 0.12012 0.13688 0.13875 
0.138753 0.138633 0.138529 0.138446 0.138375 0.138316 0.138265 0.138221 0.138184 
0.138152 0.138126 0.138106 0.138091 0.138082 0.138079 0.138082 0.138093 0.138111 
0.138138 0.138175 0.138226 0.138291 0.13838 0.138486 0.138471 0.136583 0.119845 
0.120623 0.136941 0.138694 0.138681 0.13856 0.138457 0.138375 0.138306 0.138248 
0.138198 0.138156 0.138119 0.13809 0.138065 0.138047 0.138034 0.138026 0.138025 
0.138029 0.138041 0.13806 0.138089 0.138127 0.138179 0.138245 0.138335 0.138443 