# vtk DataFile Version 5.1
vtk output
ASCII
DATASET UNSTRUCTURED_GRID
POINTS 4929 double
0.1016 1.5 0 0.1016 1.45 5.1584879698e-20 0.1016 1.4 8.2585350466e-20 
0.1016 1.35 0 0.1016 1.3 0 0.1016 1.25 7.633537409e-20 
0.1016 1.2 -1.0472138867e-19 0.1016 1.15 -1.0474616531e-19 0.1016 1.1 0 
0.1016 1.05 0 0.1016 1 7.6430874677e-20 0.1016 0.95 -1.047413444e-19 
0.1016 0.9 7.6430971612e-20 0.1016 0.85 1.9900855048e-18 0.1016 0.8 -1.0474130562e-19 
0.1016 0.75 7.6430325377e-20 0.1016 0.7 2.0948253887e-18 0.1016 0.65 0 
0.1016 0.6 1.9900857116e-18 0.1016 0.55 0 0.1016 0.5 -1.0474154473e-19 
0.1016 0.45 0 0.1016 0.4 -1.0474482114e-19 0.1016 0.35 0 
0.1016 0.3 0 0.1016 0.25 0 0.1016 0.2 7.5297934506e-20 
0.1016 0.15 -9.0429310344e-20 0.1016 0.1 -9.209014038e-20 0.1016 0.05 -7.6045124168e-20 
0.1016 0 0 5.08 1.5 0.28700000048 5.08 1.45 0.28700000048 
5.08 1.4 0.28700000048 5.08 1.35 0.28700000048 5.08 1.3 0.28700000048 
5.08 1.25 0.28700000048 5.08 1.2 0.28700000048 5.08 1.15 0.28700000048 
5.08 1.1 0.28700000048 5.08 1.05 0.28700000048 5.08 1 0.28700000048 
5.08 0.95 0.28700000048 5.08 0.9 0.28700000048 5.08 0.85 0.28700000048 
5.08 0.8 0.28700000048 5.08 0.75 0.28700000048 5.08 0.7 0.28700000048 
5.08 0.65 0.28700000048 5.08 0.6 0.28700000048 5.08 0.55 0.28700000048 
5.08 0.5 0.28700000048 5.08 0.45 0.28700000048 5.08 0.4 0.28700000048 
5.08 0.35 0.28700000048 5.08 0.3 0.28700000048 5.08 0.25 0.28700000048 
5.08 0.2 0.28700000048 5.08 0.15 0.28700000048 5.08 0.1 0.28700000048 
5.08 0.05 0.28700000048 5.08 0 0.28700000048 0.12737462728 1.5 0.0088206361979 
0.12737462728 1.45 0.0084257312119 0.12737462728 1.4 0.0085216797888 0.12737462728 1.35 0.0085016461089 
0.12737462728 1.3 0.0085061937571 0.12737462728 1.25 0.008505162783 0.12737462728 1.2 0.0085054002702 
0.12737462728 1.15 0.0085053443909 0.12737462728 1.1 0.0085053574294 0.12737462728 1.05 0.0085053546354 
0.12737462728 1 0.0085053555667 0.12737462728 0.95 0.0085053546354 0.12737462728 0.9 0.0085053546354 
0.12737462728 0.85 0.0085053546354 0.12737462728 0.8 0.0085053546354 0.12737462728 0.75 0.0085053555667 
0.12737462728 0.7 0.0085053555667 0.12737462728 0.65 0.0085053555667 0.12737462728 0.6 0.0085053555667 
0.12737462728 0.55 0.0085053555667 0.12737462728 0.5 0.0085053555667 0.12737462728 0.45 0.0085053546354 
0.12737462728 0.4 0.0085053574294 0.12737462728 0.35 0.0085053471848 0.12737462728 0.3 0.0085053918883 
0.12737462728 0.25 0.0085051963106 0.12737462728 0.2 0.0085060643032 0.12737462728 0.15 0.0085021760315 
0.12737462728 0.1 0.0085194725543 0.12737462728 0.05 0.0084366155788 0.12737462728 0 0.0088125346228 
0.15441581276 1.5 0.02315544337 0.15441581276 1.45 0.023171309382 0.15441581276 1.4 0.023177724332 
0.15441581276 1.35 0.023176256567 0.15441581276 1.3 0.023176565766 0.15441581276 1.25 0.023176498711 
0.15441581276 1.2 0.023176513612 0.15441581276 1.15 0.023176509887 0.15441581276 1.1 0.02317651175 
0.15441581276 1.05 0.023176509887 0.15441581276 1 0.023176509887 0.15441581276 0.95 0.023176509887 
0.15441581276 0.9 0.023176509887 0.15441581276 0.85 0.023176509887 0.15441581276 0.8 0.023176509887 
0.15441581276 0.75 0.023176509887 0.15441581276 0.7 0.023176509887 0.15441581276 0.65 0.023176509887 
0.15441581276 0.6 0.023176509887 0.15441581276 0.55 0.023176509887 0.15441581276 0.5 0.023176509887 
0.15441581276 0.45 0.023176509887 0.15441581276 0.4 0.02317651175 0.15441581276 0.35 0.023176509887 
0.15441581276 0.3 0.023176513612 0.15441581276 0.25 0.023176500574 0.15441581276 0.2 0.023176558316 
0.15441581276 0.15 0.02317628637 0.15441581276 0.1 0.023177588359 0.15441581276 0.05 0.023171856999 
0.15441581276 0 0.023155016825 0.18278579477 1.5 0.039393652231 0.18278579477 1.45 0.039554331452 
0.18278579477 1.4 0.03961930424 0.18278579477 1.35 0.039604440331 0.18278579477 1.3 0.03960756585 
0.18278579477 1.25 0.039606891572 0.18278579477 1.2 0.039607036859 0.18278579477 1.15 0.039607003331 
0.18278579477 1.1 0.039607010782 0.18278579477 1.05 0.039607007056 0.18278579477 1 0.039607007056 
0.18278579477 0.95 0.039607007056 0.18278579477 0.9 0.039607007056 0.18278579477 0.85 0.039607007056 
0.18278579477 0.8 0.039607007056 0.18278579477 0.75 0.039607007056 0.18278579477 0.7 0.039607007056 
0.18278579477 0.65 0.039607007056 0.18278579477 0.6 0.039607007056 0.18278579477 0.55 0.039607007056 
0.18278579477 0.5 0.039607007056 0.18278579477 0.45 0.039607007056 0.18278579477 0.4 0.039607010782 
0.18278579477 0.35 0.039607007056 0.18278579477 0.3 0.039607033134 0.18278579477 0.25 0.039606906474 
0.18278579477 0.2 0.03960749507 0.18278579477 0.15 0.03960474208 0.18278579477 0.1 0.039617925882 
0.18278579477 0.05 0.039559889585 0.18278579477 0 0.039389334619 0.21254987001 1.5 0.056150559336 
0.21254987001 1.45 0.055902633816 0.21254987001 1.4 0.055933699012 0.21254987001 1.35 0.055928990245 
0.21254987001 1.3 0.055929873139 0.21254987001 1.25 0.055929701775 0.21254987001 1.2 0.055929739028 
0.21254987001 1.15 0.055929727852 0.21254987001 1.1 0.055929731578 0.21254987001 1.05 0.055929731578 
0.21254987001 1 0.055929731578 0.21254987001 0.95 0.055929731578 0.21254987001 0.9 0.055929731578 
0.21254987001 0.85 0.055929731578 0.21254987001 0.8 0.055929731578 0.21254987001 0.75 0.055929731578 
0.21254987001 0.7 0.055929731578 0.21254987001 0.65 0.055929731578 0.21254987001 0.6 0.055929731578 
0.21254987001 0.55 0.055929731578 0.21254987001 0.5 0.055929731578 0.21254987001 0.45 0.055929731578 
0.21254987001 0.4 0.055929731578 0.21254987001 0.35 0.055929731578 0.21254987001 0.3 0.055929739028 
0.21254987001 0.25 0.055929705501 0.21254987001 0.2 0.055929850787 0.21254987001 0.15 0.055929102004 
0.21254987001 0.1 0.055933218449 0.21254987001 0.05 0.055904746056 0.21254987001 0 0.056148931384 
0.24377654385 1.5 0.077544353902 0.24377654385 1.45 0.077273264527 0.24377654385 1.4 0.077307231724 
0.24377654385 1.35 0.077302083373 0.24377654385 1.3 0.077303051949 0.24377654385 1.25 0.077302858233 
0.24377654385 1.2 0.077302902937 0.24377654385 1.15 0.077302888036 0.24377654385 1.1 0.077302895486 
0.24377654385 1.05 0.077302895486 0.24377654385 1 0.077302895486 0.24377654385 0.95 0.077302895486 
0.24377654385 0.9 0.077302895486 0.24377654385 0.85 0.077302895486 0.24377654385 0.8 0.077302895486 
0.24377654385 0.75 0.077302895486 0.24377654385 0.7 0.077302895486 0.24377654385 0.65 0.077302895486 
0.24377654385 0.6 0.077302895486 0.24377654385 0.55 0.077302895486 0.24377654385 0.5 0.077302895486 
0.24377654385 0.45 0.077302895486 0.24377654385 0.4 0.077302895486 0.24377654385 0.35 0.077302895486 
0.24377654385 0.3 0.077302902937 0.24377654385 0.25 0.077302865684 0.24377654385 0.2 0.077303022146 
0.24377654385 0.15 0.077302202582 0.24377654385 0.1 0.077306702733 0.24377654385 0.05 0.077275574207 
0.24377654385 0 0.077542573214 0.27653768798 1.5 0.1177598536 0.27653768798 1.45 0.11818488687 
0.27653768798 1.4 0.11812788248 0.27653768798 1.35 0.11813484877 0.27653768798 1.3 0.1181339249 
0.27653768798 1.25 0.11813402921 0.27653768798 1.2 0.11813402176 0.27653768798 1.15 0.11813402176 
0.27653768798 1.1 0.11813402176 0.27653768798 1.05 0.11813402176 0.27653768798 1 0.11813402176 
0.27653768798 0.95 0.11813402176 0.27653768798 0.9 0.11813402176 0.27653768798 0.85 0.11813402176 
0.27653768798 0.8 0.11813402176 0.27653768798 0.75 0.11813402176 0.27653768798 0.7 0.11813402176 
0.27653768798 0.65 0.11813402176 0.27653768798 0.6 0.11813402176 0.27653768798 0.55 0.11813402176 
0.27653768798 0.5 0.11813402176 0.27653768798 0.45 0.11813402176 0.27653768798 0.4 0.11813402176 
0.27653768798 0.35 0.11813402176 0.27653768798 0.3 0.11813402176 0.27653768798 0.25 0.11813403666 
0.27653768798 0.2 0.1181338802 0.27653768798 0.15 0.11813506484 0.27653768798 0.1 0.11812691391 
0.27653768798 0.05 0.11818906665 0.27653768798 0 0.11775659025 0.31090870586 1.5 0.1529057622 
0.31090870586 1.45 0.15299530327 0.31090870586 1.4 0.15298101306 0.31090870586 1.35 0.15298298001 
0.31090870586 1.3 0.15298268199 0.31090870586 1.25 0.15298272669 0.31090870586 1.2 0.15298272669 
0.31090870586 1.15 0.15298272669 0.31090870586 1.1 0.15298272669 0.31090870586 1.05 0.15298272669 
0.31090870586 1 0.15298272669 0.31090870586 0.95 0.15298272669 0.31090870586 0.9 0.15298272669 
0.31090870586 0.85 0.15298272669 0.31090870586 0.8 0.15298272669 0.31090870586 0.75 0.15298272669 
0.31090870586 0.7 0.15298272669 0.31090870586 0.65 0.15298272669 0.31090870586 0.6 0.15298272669 
0.31090870586 0.55 0.15298272669 0.31090870586 0.5 0.15298272669 0.31090870586 0.45 0.15298272669 
0.31090870586 0.4 0.15298272669 0.31090870586 0.35 0.15298272669 0.31090870586 0.3 0.15298272669 
0.31090870586 0.25 0.15298272669 0.31090870586 0.2 0.15298266709 0.31090870586 0.15 0.15298302472 
0.31090870586 0.1 0.15298080444 0.31090870586 0.05 0.15299625695 0.31090870586 0 0.15290501714 
0.34696870625 1.5 0.15526036918 0.34696870625 1.45 0.15538688004 0.34696870625 1.4 0.15536668897 
0.34696870625 1.35 0.15536946058 0.34696870625 1.3 0.15536904335 0.34696870625 1.25 0.15536910295 
0.34696870625 1.2 0.15536910295 0.34696870625 1.15 0.15536910295 0.34696870625 1.1 0.15536910295 
0.34696870625 1.05 0.15536910295 0.34696870625 1 0.15536910295 0.34696870625 0.95 0.15536910295 
0.34696870625 0.9 0.15536910295 0.34696870625 0.85 0.15536910295 0.34696870625 0.8 0.15536910295 
0.34696870625 0.75 0.15536910295 0.34696870625 0.7 0.15536910295 0.34696870625 0.65 0.15536910295 
0.34696870625 0.6 0.15536910295 0.34696870625 0.55 0.15536910295 0.34696870625 0.5 0.15536910295 
0.34696870625 0.45 0.15536910295 0.34696870625 0.4 0.15536910295 0.34696870625 0.35 0.15536910295 
0.34696870625 0.3 0.15536910295 0.34696870625 0.25 0.15536910295 0.34696870625 0.2 0.15536902845 
0.34696870625 0.15 0.15536953509 0.34696870625 0.1 0.15536637604 0.34696870625 0.05 0.15538823605 
0.34696870625 0 0.1552593112 0.3848006853 1.5 0.17458346486 0.3848006853 1.45 0.17403116822 
0.3848006853 1.4 0.17408725619 0.3848006853 1.35 0.17408081889 0.3848006853 1.3 0.17408159375 
[...]
CELL_DATA 4740
FIELD FieldData 7
B_Stress_n_p_m2 1 4740 float
0.134095 0.135901 0.135735 0.135722 0.135731 0.135756 0.135797 0.135837 0.135873 
0.135904 0.135929 0.135951 0.135973 0.135995 0.136018 0.13604 0.136061 0.13608 
0.136096 0.136108 0.136111 0.136103 0.136082 0.136046 0.136004 0.135973 0.135957 
0.135965 0.136123 0.134323 0.10841 0.111149 0.111185 0.111227 0.111285 0.111361 
0.11145 0.111532 0.111598 0.111649 0.111686 0.111714 0.111736 0.111756 0.111775 
0.111792 0.111807 0.111818 0.111825 0.111823 0.111808 0.111775 0.111719 0.111643 
0.111553 0.111474 0.111412 0.111365 0.111328 0.108531 0.10661 0.110594 0.111037 
0.111199 0.111363 0.111528 0.111694 0.11184 0.111954 0.112038 0.112098 0.112138 
0.112167 0.11219 0.112208 0.112224 0.112236 0.112243 0.112241 0.112224 0.112185 
0.112116 0.112012 0.111872 0.111707 0.111541 0.111373 0.111208 0.110762 0.106789 
0.115163 0.119348 0.120064 0.120378 0.12069 0.120978 0.121246 0.121474 0.121652 
0.121782 0.121874 0.121938 0.121981 0.122012 0.122034 0.122049 0.122057 0.122056 
0.122038 0.121998 0.121926 0.121811 0.121645 0.121424 0.121158 0.120869 0.120555 
0.120236 0.119523 0.115375 0.12859 0.132219 0.133199 0.133741 0.134253 0.13471 
0.135115 0.135452 0.135713 0.135906 0.136044 0.136139 0.136205 0.136249 0.136277 
0.136292 0.136294 0.136278 0.136239 0.136167 0.13605 0.135873 0.135624 0.135295 
0.134894 0.134437 0.133924 0.133378 0.132391 0.128703 0.149713 0.152513 0.153907 
0.154776 0.155548 0.156227 0.156814 0.157294 0.157666 0.157943 0.158142 0.158282 
0.158376 0.158439 0.158476 0.158491 0.158485 0.158452 0.158385 0.15827 0.158092 
0.157832 0.157473 0.157002 0.156421 0.155744 0.154973 0.154103 0.15271 0.149825 
0.169904 0.172286 0.173932 0.175038 0.176049 0.176952 0.177725 0.178355 0.178844 
0.17921 0.179475 0.179662 0.17979 0.179873 0.17992 0.179936 0.17992 0.179867 
0.179767 0.179604 0.17936 0.179013 0.178538 0.177919 0.177152 0.176253 0.175244 
0.174141 0.172496 0.170171 0.180665 0.183524 0.184932 0.186018 0.187174 0.188247 
0.189166 0.189915 0.190498 0.190937 0.19126 0.191489 0.191647 0.191749 0.191805 
0.19182 0.191793 0.191719 0.191588 0.191382 0.19108 0.190658 0.190089 0.189352 
0.18844 0.187372 0.186218 0.185133 0.183731 0.18095 0.196134 0.199421 0.200498 
0.201595 0.202929 0.204199 0.205286 0.20617 0.206863 0.207389 0.207779 0.20806 
0.208254 0.208379 0.208446 0.20846 0.208421 0.208323 0.208153 0.207896 0.207526 
0.207018 0.20634 0.205467 0.204388 0.203123 0.201792 0.200694 0.199602 0.196354 
0.229578 0.231284 0.232447 0.23392 0.235611 0.2372 0.238547 0.23964 0.2405 
0.241159 0.241652 0.242011 0.242261 0.242422 0.242507 0.242521 0.242465 0.242332 
0.242107 0.241772 0.241301 0.24066 0.239816 0.238736 0.237398 0.235816 0.234128 
0.232657 0.231499 0.229641 0.276373 0.274796 0.276398 0.278595 0.280797 0.282792 
0.284465 0.285819 0.28689 0.287719 0.288346 0.288806 0.289129 0.289337 0.289445 
0.28946 0.289382 0.289203 0.288907 0.288472 0.287869 0.28706 0.286007 0.284666 
0.283004 0.281017 0.278821 0.276628 0.27504 0.276673 0.327742 0.323131 0.325387 
0.328402 0.331126 0.33352 0.335517 0.337137 0.338427 0.339433 0.340202 0.340771 
0.341173 0.341433 0.341567 0.341583 0.34148 0.341251 0.340877 0.340335 0.339591 
0.338606 0.337335 0.33573 0.333746 0.331362 0.328643 0.325632 0.323367 0.327986 
0.364388 0.35948 0.362324 0.365821 0.368843 0.37146 0.37365 0.375441 0.376878 
0.378009 0.37888 0.37953 0.379991 0.38029 0.380443 0.380458 0.380337 0.380068 
0.379635 0.379013 0.378166 0.377057 0.375639 0.373865 0.371687 0.36908 0.366066 
0.362573 0.359732 0.364641 0.372617 0.3705 0.373514 0.376932 0.379908 0.382493 
0.384679 0.386482 0.387944 0.389104 0.390002 0.390677 0.391158 0.39147 0.391629 
0.391643 0.391513 0.391229 0.390774 0.390124 0.389248 0.388109 0.386666 0.384878 
0.382705 0.38013 0.377161 0.373748 0.370737 0.372857 0.368398 0.369882 0.372972 
0.37614 0.378963 0.381432 0.383536 0.385289 0.386719 0.387862 0.388752 0.389423 
0.389903 0.390215 0.390373 0.390386 0.390253 0.389966 0.389509 0.38886 0.387991 
0.386867 0.385453 0.383715 0.381622 0.379163 0.376347 0.373184 0.370097 0.368613 
0.366147 0.369743 0.373081 0.376178 0.378934 0.381337 0.383388 0.385102 0.386506 
0.387631 0.388512 0.389177 0.389654 0.389964 0.39012 0.390132 0.389997 0.389709 
0.389254 0.388608 0.387746 0.386638 0.385249 0.383548 0.381508 0.379114 0.376365 
0.373272 0.369936 0.366339 0.36533 0.369614 0.373215 0.376379 0.379145 0.381531 
0.383557 0.385247 0.386632 0.387744 0.388614 0.389272 0.389744 0.390051 0.390206 
0.390216 0.390081 0.389794 0.38934 0.388699 0.387846 0.38675 0.385378 0.3837 
0.381684 0.379306 0.376546 0.373386 0.369787 0.365502 0.36494 0.369399 0.37317 
0.376422 0.379226 0.381621 0.38364 0.385319 0.386691 0.38779 0.388651 0.389301 
0.389768 0.390071 0.390223 0.390232 0.390097 0.389811 0.389361 0.388726 0.387881 
0.386795 0.385435 0.383767 0.381756 0.379369 0.376571 0.373322 0.369553 0.365093 
0.364742 0.369238 0.373096 0.376413 0.379253 0.381663 0.383684 0.385358 0.386721 
0.387811 0.388662 0.389306 0.389766 0.390064 0.390214 0.390222 0.390088 0.389804 
0.389358 0.388729 0.387891 0.386812 0.38546 0.383796 0.381783 0.37938 0.376545 
0.373231 0.369374 0.364877 0.364644 0.369145 0.373043 0.376398 0.379263 0.381685 
0.38371 0.38538 0.386736 0.387818 0.388661 0.389297 0.389751 0.390045 0.390192 
0.390198 0.390065 0.389785 0.389343 0.388719 0.387888 0.386816 0.38547 0.383808 
0.381791 0.379374 0.376513 0.373162 0.369265 0.364763 0.3646 0.3691 0.373015 
0.376388 0.379267 0.381696 0.383722 0.385387 0.386737 0.38781 0.388645 0.389273 
0.389721 0.390009 0.390153 0.390159 0.390027 0.38975 0.389313 0.388696 0.387871 
0.386807 0.385466 0.383807 0.381788 0.379364 0.376489 0.373118 0.369205 0.364703 
0.364591 0.369089 0.37301 0.37639 0.379273 0.381703 0.383724 0.385383 0.386724 
0.387788 0.388614 0.389233 0.389674 0.389958 0.390098 0.390103 0.389973 0.389699 
0.389268 0.388657 0.387841 0.386785 0.385451 0.383798 0.381782 0.379357 0.376478 
0.3731 0.36918 0.364681 0.36461 0.369105 0.373024 0.376404 0.379284 0.381708 
0.383722 0.385371 0.386701 0.387754 0.388568 0.389178 0.389611 0.389889 0.390027 
0.390031 0.389902 0.389633 0.389208 0.388606 0.387799 0.386753 0.385429 0.383786 
0.381777 0.379357 0.376479 0.373102 0.369183 0.364687 0.364649 0.369141 0.373056 
0.37643 0.379302 0.381716 0.383717 0.385353 0.386669 0.387708 0.38851 0.389109 
0.389533 0.389805 0.389939 0.389943 0.389816 0.389551 0.389134 0.388542 0.387747 
0.386713 0.385403 0.383772 0.381774 0.379364 0.376494 0.373122 0.369207 0.364716 
0.364707 0.369193 0.373102 0.376466 0.379326 0.381726 0.383711 0.38533 0.386629 
0.387652 0.388439 0.389026 0.38944 0.389705 0.389835 0.389838 0.389714 0.389456 
0.389047 0.388467 0.387685 0.386667 0.385372 0.383757 0.381775 0.379379 0.376521 
0.373158 0.36925 0.364763 0.364779 0.369261 0.373161 0.376513 0.379357 0.381739 
0.383705 0.385303 0.386583 0.387587 0.388357 0.388929 0.389333 0.38959 0.389716 
0.389718 0.389598 0.389346 0.388948 0.38838 0.387614 0.386614 0.385339 0.383743 
0.38178 0.379401 0.376559 0.373208 0.369309 0.364826 0.364866 0.369343 0.373232 
0.376569 0.379395 0.381755 0.383698 0.385273 0.38653 0.387513 0.388264 0.38882 
0.389211 0.38946 0.389581 0.389583 0.389466 0.389222 0.388835 0.388283 0.387536 
0.386556 0.385303 0.38373 0.38179 0.379432 0.376608 0.373272 0.369383 0.364905 
0.364966 0.369437 0.373315 0.376635 0.379439 0.381775 0.383692 0.38524 0.386471 
0.38743 0.38816 0.388699 0.389076 0.389315 0.389431 0.389433 0.38932 0.389085 
0.388711 0.388176 0.387449 0.386493 0.385265 0.383718 0.381804 0.37947 0.376667 
0.373348 0.36947 0.364999 0.365081 0.369545 0.37341 0.37671 0.37949 0.381798 
0.383685 0.385204 0.386406 0.387338 0.388045 0.388564 0.388927 0.389155 0.389266 
0.389268 0.38916 0.388934 0.388575 0.388058 0.387354 0.386424 0.385224 0.383707 
0.381822 0.379515 0.376736 0.373436 0.369572 0.365107 0.365209 0.369666 0.373516 
0.376795 0.379548 0.381825 0.383679 0.385165 0.386335 0.387238 0.387919 0.388417 
0.388763 0.38898 0.389086 0.389087 0.388984 0.388769 0.388425 0.38793 0.38725 
0.386349 0.385181 0.383697 0.381844 0.379568 0.376816 0.373537 0.369688 0.36523 
0.365352 0.369802 0.373635 0.376889 0.379612 0.381855 0.383673 0.385122 0.386257 
0.387128 0.387782 0.388256 0.388584 0.38879 0.388889 0.38889 0.388793 0.388589 
0.388263 0.38779 0.387138 0.386268 0.385135 0.383687 0.38187 0.379628 0.376906 
0.373652 0.369819 0.365369 0.365512 0.369953 0.373767 0.376994 0.379683 0.381888 
0.383666 0.385075 0.386172 0.387008 0.387631 0.388081 0.38839 0.388583 0.388675 
0.388676 0.388585 0.388394 0.388086 0.387638 0.387016 0.386181 0.385085 0.383677 
0.3819 0.379696 0.377008 0.373781 0.369967 0.365526 0.36569 0.370121 0.373914 
0.377112 0.379763 0.381926 0.383659 0.385024 0.386079 0.386877 0.387468 0.387891 
0.388179 0.388358 0.388443 0.388444 0.38836 0.388182 0.387895 0.387473 0.386883 
0.386086 0.385032 0.383668 0.381935 0.379773 0.377122 0.373925 0.370132 0.365701 
0.365888 0.370308 0.374078 0.377242 0.379851 0.381967 0.383651 0.384968 0.385977 
0.386734 0.387289 0.387683 0.38795 0.388114 0.388193 0.388193 0.388116 0.387952 
0.387686 0.387293 0.386739 0.385982 0.384974 0.383658 0.381974 0.379859 0.37725 
0.374087 0.370317 0.365896 0.36611 0.370518 0.374261 0.377387 0.379949 0.382012 
0.383642 0.384905 0.385864 0.386577 0.387094 0.387458 0.387701 0.38785 0.387921 
0.387921 0.387851 0.387703 0.38746 0.387097 0.386581 0.385869 0.38491 0.383648 
0.382018 0.379955 0.377393 0.374268 0.370524 0.366116 0.366359 0.370752 0.374466 
0.377548 0.380058 0.382062 0.383632 0.384836 0.385741 0.386405 0.386881 0.387212 
0.387431 0.387564 0.387626 0.387627 0.387565 0.387433 0.387214 0.386884 0.386408 
0.385744 0.38484 0.383636 0.382067 0.380062 0.377553 0.374471 0.370757 0.366363 
0.366638 0.371016 0.374695 0.377728 0.380178 0.382117 0.383619 0.384759 0.385604 
0.386216 0.386648 0.386944 0.387138 0.387253 0.387307 0.387308 0.387254 0.387139 
0.386946 0.38665 0.386218 0.385606 0.384761 0.383622 0.38212 0.380181 0.377732 
0.374699 0.371019 0.366642 0.366955 0.371313 0.374953 0.377929 0.380311 0.382176 
0.383603 0.384671 0.385451 0.386007 0.386393 0.386652 0.386819 0.386917 0.386962 
0.386962 0.386917 0.386819 0.386653 0.386394 0.386008 0.385453 0.384673 0.383605 
0.382178 0.380314 0.377932 0.374956 0.371316 0.366957 0.367314 0.371651 0.375244 
0.378155 0.380459 0.382239 0.383582 0.384571 0.38528 0.385775 0.386112 0.386333 
0.386471 0.386551 0.386588 0.386588 0.386552 0.386472 0.386333 0.386113 0.385776 
0.385281 0.384572 0.383584 0.382241 0.380461 0.378157 0.375246 0.371652 0.367316 
0.367725 0.372035 0.375574 0.378408 0.380622 0.382306 0.383554 0.384455 0.385087 
0.385517 0.385802 0.385983 0.386093 0.386155 0.386182 0.386182 0.386155 0.386094 
0.385983 0.385802 0.385518 0.385087 0.384456 0.383555 0.382307 0.380623 0.37841 
0.375575 0.372036 0.367726 0.368198 0.372476 0.375949 0.378693 0.3808 0.382374 
0.383515 0.384319 0.384867 0.385229 0.385459 0.3856 0.385681 0.385725 0.385743 
0.385743 0.385725 0.385681 0.3856 0.385459 0.385229 0.384868 0.384319 0.383516 
0.382375 0.380801 0.378694 0.37595 0.372477 0.368199 0.368746 0.372985 0.376378 
0.379012 0.380995 0.38244 0.383461 0.384157 0.384615 0.384905 0.385079 0.385179 
0.385233 0.385259 0.385269 0.385269 0.385259 0.385233 0.385179 0.38508 0.384905 
0.384616 0.384158 0.383461 0.382441 0.380996 0.379013 0.376379 0.372986 0.368747 
0.369389 0.373578 0.376871 0.379371 0.381204 0.382501 0.383384 0.383963 0.384325 
0.384539 0.384658 0.384718 0.384745 0.384754 0.384757 0.384757 0.384754 0.384745 
0.384718 0.384658 0.38454 0.384325 0.383963 0.383384 0.382501 0.381204 0.379372 
0.376871 0.373578 0.369389 0.370151 0.374274 0.377439 0.379772 0.381423 0.382545 
0.383274 0.383725 0.383987 0.384126 0.38419 0.384213 0.384215 0.38421 0.384206 
0.384206 0.38421 0.384215 0.384213 0.384191 0.384126 0.383987 0.383725 0.383275 
0.382545 0.381424 0.379772 0.377439 0.374274 0.370151 0.371068 0.3751 0.378094 
0.380212 0.381642 0.38256 0.383117 0.383431 0.383591 0.383658 0.383672 0.383662 
0.383643 0.383627 0.383617 0.383617 0.383627 0.383644 0.383662 0.383673 0.383658 
0.383591 0.383431 0.383117 0.38256 0.381642 0.380213 0.378094 0.375101 0.371068 
0.37219 0.376092 0.378847 0.380684 0.381839 0.382521 0.382891 0.383067 0.38313 
0.383131 0.383104 0.383068 0.383034 0.383009 0.382996 0.382996 0.383009 0.383034 
0.383068 0.383104 0.383132 0.38313 0.383067 0.382891 0.382521 0.381839 0.380684 
0.378848 0.376092 0.37219 0.373618 0.377307 0.379707 0.381159 0.381974 0.382388 
0.382565 0.38261 0.382588 0.382538 0.382482 0.38243 0.382388 0.382359 0.382345 
0.382345 0.382359 0.382388 0.38243 0.382482 0.382538 0.382588 0.38261 0.382565 
0.382388 0.381974 0.381159 0.379707 0.377307 0.373618 0.375532 0.378802 0.38062 
0.381536 0.381943 0.382077 0.382079 0.382022 0.381946 0.381872 0.381808 0.381756 
0.381718 0.381694 0.381681 0.381681 0.381694 0.381718 0.381756 0.381808 0.381872 
0.381946 0.382022 0.382079 0.382077 0.381943 0.381536 0.38062 0.378802 0.375532 
0.3779 0.380235 0.381215 0.381565 0.381642 0.381609 0.381541 0.381468 0.381403 
0.38135 0.381309 0.381279 0.381257 0.381244 0.381237 0.381237 0.381244 0.381257 
0.381279 0.381309 0.38135 0.381403 0.381468 0.381541 0.381609 0.381642 0.381565 
0.381215 0.380235 0.3779 0.0975421 0.097928 0.0977862 0.0979308 0.0978752 0.0977587 
0.0977061 0.0976635 0.0977331 0.0978392 0.0978071 0.0977815 0.0977579 0.0978536 0.0979253 
0.0980528 0.098134 0.0981483 0.0981133 0.0981374 0.0982145 0.0982725 0.0982342 0.0982626 
0.0981444 0.0981716 0.0982271 0.0981489 0.0980651 0.0977959 0.115257 0.115619 0.115604 
0.115695 0.115682 0.115626 0.115593 0.115565 0.115599 0.11566 0.115665 0.115663 
0.115662 0.115711 0.115745 0.115802 0.115855 0.115883 0.115881 0.115901 0.115951 
0.115993 0.115986 0.115998 0.115942 0.11594 0.115939 0.115871 0.115793 0.115496 
0.115885 0.116002 0.116019 0.116076 0.11608 0.116056 0.116038 0.116026 0.116045 
0.116078 0.116094 0.116102 0.116112 0.116142 0.116168 0.1162 0.116237 0.116265 
0.116278 0.116296 0.116328 0.116357 0.116361 0.116363 0.116335 0.116322 0.116301 
0.116246 0.116193 0.116103 0.111896 0.111978 0.112003 0.112047 0.112059 0.112053 
0.112046 0.112043 0.112056 0.112077 0.112092 0.112103 0.112117 0.11214 0.112164 
0.11219 0.112219 0.112243 0.11226 0.112278 0.112301 0.11232 0.112325 0.112323 
0.112306 0.112289 0.112263 0.112213 0.112172 0.112097 0.108186 0.108331 0.108367 
0.108412 0.108428 0.10843 0.10843 0.108432 0.108443 0.108458 0.108471 0.108484 
0.108499 0.108518 0.108539 0.108563 0.108586 0.108608 0.108626 0.108643 0.10866 
0.108673 0.108677 0.108675 0.108662 0.108645 0.108617 0.108566 0.108521 0.108374 
0.104291 0.104634 0.104682 0.104729 0.104745 0.104751 0.104754 0.10476 0.104769 
0.104782 0.104794 0.104807 0.104821 0.104838 0.104857 0.104877 0.104898 0.104918 
0.104935 0.10495 0.104964 0.104974 0.104977 0.104974 0.104963 0.104948 0.104923 
0.104869 0.104816 0.104467 0.0958541 0.0965778 0.0966143 0.0966531 0.0966634 0.0966688 
0.0966747 0.0966818 0.0966911 0.0967019 0.0967129 0.0967242 0.0967367 0.0967513 0.0967676 
0.0967853 0.0968036 0.0968209 0.0968365 0.0968504 0.0968618 0.0968691 0.0968706 0.0968663 
0.0968567 0.0968447 0.0968277 0.0967836 0.0967436 0.0960137 0.0818888 0.0828154 0.082777 
0.0827902 0.0827936 0.0827993 0.0828091 0.0828199 0.0828312 0.0828424 0.082853 0.0828635 
0.0828745 0.0828869 0.0829005 0.0829149 0.0829295 0.0829435 0.0829559 0.0829665 0.0829741 
0.0829774 0.0829749 0.0829671 0.0829553 0.0829451 0.0829367 0.0829197 0.0829548 0.0820344 
0.119576 0.120891 0.122257 0.123666 0.125103 0.126552 0.127993 0.129402 0.130757 
0.132032 0.133204 0.134252 0.135156 0.135899 0.136469 0.136857 0.137058 0.137072 
0.136902 0.136558 0.136049 0.13539 0.134596 0.133685 0.132675 0.131582 0.130422 
0.129207 0.127949 0.126652 0.119079 0.120409 0.121806 0.123259 0.124753 0.126269 
0.127784 0.129273 0.130707 0.132061 0.133308 0.134422 0.135383 0.136172 0.136775 
0.137181 0.137387 0.137393 0.137203 0.136826 0.136275 0.135567 0.134721 0.133756 
0.132693 0.13155 0.130348 0.129099 0.127817 0.126509 0.118666 0.120009 0.121432 
0.122925 0.12447 0.126047 0.127629 0.129187 0.130694 0.132117 0.133429 0.134601 
0.135611 0.136438 0.137066 0.137486 0.137693 0.137686 0.137471 0.13706 0.136466 
0.135709 0.134809 0.13379 0.132674 0.131483 0.130238 0.128957 0.127652 0.126332 
0.118169 0.119525 0.12098 0.12252 0.124126 0.125775 0.127438 0.129082 0.130675 
0.132183 0.133573 0.134816 0.135885 0.136758 0.137419 0.137855 0.138062 0.13804 
0.137797 0.137344 0.136699 0.135882 0.134918 0.133833 0.132653 0.131404 0.130109 
0.128787 0.127455 0.126122 0.117638 0.11901 0.120498 0.12209 0.123763 0.125491 
0.127241 0.128978 0.130664 0.132263 0.133739 0.135058 0.13619 0.137113 0.137807 
0.13826 0.138466 0.138427 0.138151 0.137651 0.136947 0.136064 0.135029 0.13387 
0.132619 0.131304 0.129952 0.128586 0.127224 0.125877 0.117063 0.118451 0.119977 
0.121625 0.123372 0.125186 0.127032 0.12887 0.130659 0.132358 0.133926 0.135328 
0.13653 0.137507 0.138237 0.138707 0.138912 0.138853 0.138539 0.137987 0.137218 
0.136261 0.135145 0.133905 0.132574 0.131186 0.129771 0.128356 0.12696 0.125597 
0.116446 0.117852 0.119418 0.121128 0.122954 0.124863 0.126813 0.128761 0.130661 
0.132468 0.134137 0.135628 0.136905 0.13794 0.138708 0.139197 0.139399 0.139317 
0.138962 0.138352 0.137511 0.136471 0.135267 0.133936 0.132517 0.131048 0.129563 
0.128092 0.126659 0.125279 0.115785 0.11721 0.11882 0.120597 0.12251 0.12452 
0.126583 0.12865 0.130671 0.132595 0.134373 0.13596 0.137318 0.138414 0.139224 
0.139732 0.139931 0.139824 0.139422 0.138747 0.137827 0.136696 0.135394 0.133963 
0.132447 0.130888 0.129325 0.127794 0.126319 0.12492 0.115077 0.116523 0.118182 
0.120031 0.122037 0.124157 0.126342 0.128538 0.130689 0.132739 0.134634 0.136326 
0.13777 0.138933 0.139787 0.140315 0.140509 0.140373 0.139921 0.139175 0.138167 
0.136936 0.135526 0.133985 0.132362 0.130704 0.129056 0.127457 0.125937 0.124516 
0.114321 0.11579 0.1175 0.119428 0.121535 0.123774 0.126091 0.128425 0.130716 
0.132902 0.134923 0.136726 0.138265 0.139499 0.1404 0.140948 0.141137 0.14097 
0.140462 0.139638 0.138534 0.137193 0.135665 0.134003 0.132262 0.130495 0.128754 
0.12708 0.12551 0.124066 0.113515 0.115008 0.116775 0.118787 0.121002 0.123369 
0.125828 0.128311 0.130753 0.133084 0.135241 0.137164 0.138803 0.140113 0.141065 
0.141636 0.141818 0.141616 0.141046 0.140138 0.138929 0.137469 0.135811 0.134017 
0.132146 0.13026 0.128415 0.12666 0.125035 0.123565 0.112656 0.114176 0.116003 
0.118106 0.120438 0.122943 0.125553 0.128197 0.130799 0.133287 0.135589 0.137641 
0.139387 0.14078 0.141785 0.14238 0.142555 0.142315 0.141678 0.140677 0.139354 
0.137763 0.135965 0.134026 0.132014 0.129997 0.128039 0.126194 0.124508 0.12301 
0.111744 0.113292 0.115184 0.117384 0.119841 0.122493 0.125266 0.128081 0.130856 
0.133511 0.135969 0.138159 0.14002 0.141501 0.142563 0.143183 0.14335 0.143069 
0.142361 0.141259 0.139812 0.13808 0.136128 0.134031 0.131864 0.129705 0.127623 
0.12568 0.123926 0.122397 0.110776 0.112355 0.114316 0.11662 0.119211 0.12202 
0.124967 0.127964 0.130924 0.133758 0.136382 0.138719 0.140703 0.142278 0.143403 
0.14405 0.144208 0.143883 0.143096 0.141886 0.140305 0.138419 0.1363 0.134031 
0.131697 0.129381 0.127164 0.125113 0.123287 0.121724 0.10975 0.111362 0.113397 
0.115812 0.118546 0.121523 0.124654 0.127847 0.131003 0.134028 0.136829 0.139324 
0.14144 0.143116 0.144306 0.144983 0.145131 0.144758 0.143888 0.142561 0.140836 
0.138783 0.136484 0.134028 0.131511 0.129026 0.12666 0.124492 0.122586 0.120985 
0.108666 0.110313 0.112426 0.11496 0.117845 0.121 0.124329 0.127729 0.131094 
0.134321 0.137312 0.139975 0.142231 0.144015 0.145277 0.145984 0.146124 0.1457 
0.144739 0.143287 0.141406 0.139173 0.136679 0.134022 0.131307 0.128636 0.126109 
0.123813 0.12182 0.120179 0.107522 0.109206 0.111403 0.114062 0.117109 0.120453 