# vtk DataFile Version 5.1
vtk output
ASCII
DATASET UNSTRUCTURED_GRID
POINTS 9610 double
0.1016 1.5 0 0.1016 1.45 0 0.1016 1.4 0 
0.1016 1.35 0 0.1016 1.3 0 0.1016 1.25 0 
0.1016 1.2 0 0.1016 1.15 0 0.1016 1.1 0 
0.1016 1.05 0 0.1016 1 0 0.1016 0.95 0 
0.1016 0.9 0 0.1016 0.85 0 0.1016 0.8 0 
0.1016 0.75 0 0.1016 0.7 0 0.1016 0.65 0 
0.1016 0.6 0 0.1016 0.55 0 0.1016 0.5 0 
0.1016 0.45 0 0.1016 0.4 0 0.1016 0.35 0 
0.1016 0.3 0 0.1016 0.25 0 0.1016 0.2 0 
0.1016 0.15 0 0.1016 0.1 0 0.1016 0.05 0 
0.1016 0 0 5.08 1.5 0 5.08 1.45 0 
5.08 1.4 0 5.08 1.35 0 5.08 1.3 0 
5.08 1.25 0 5.08 1.2 0 5.08 1.15 0 
5.08 1.1 0 5.08 1.05 0 5.08 1 0 
5.08 0.95 0 5.08 0.9 0 5.08 0.85 0 
5.08 0.8 0 5.08 0.75 0 5.08 0.7 0 
5.08 0.65 0 5.08 0.6 0 5.08 0.55 0 
5.08 0.5 0 5.08 0.45 0 5.08 0.4 0 
5.08 0.35 0 5.08 0.3 0 5.08 0.25 0 
5.08 0.2 0 5.08 0.15 0 5.08 0.1 0 
5.08 0.05 0 5.08 0 0 0.151384 1.5 0 
0.151384 1.45 0 0.151384 1.4 0 0.151384 1.35 0 
0.151384 1.3 0 0.151384 1.25 0 0.151384 1.2 0 
0.151384 1.15 0 0.151384 1.1 0 0.151384 1.05 0 
0.151384 1 0 0.151384 0.95 0 0.151384 0.9 0 
0.151384 0.85 0 0.151384 0.8 0 0.151384 0.75 0 
0.151384 0.7 0 0.151384 0.65 0 0.151384 0.6 0 
0.151384 0.55 0 0.151384 0.5 0 0.151384 0.45 0 
0.151384 0.4 0 0.151384 0.35 0 0.151384 0.3 0 
0.151384 0.25 0 0.151384 0.2 0 0.151384 0.15 0 
0.151384 0.1 0 0.151384 0.05 0 0.151384 0 0 
0.201168 1.5 0 0.201168 1.45 0 0.201168 1.4 0 
0.201168 1.35 0 0.201168 1.3 0 0.201168 1.25 0 
0.201168 1.2 0 0.201168 1.15 0 0.201168 1.1 0 
0.201168 1.05 0 0.201168 1 0 0.201168 0.95 0 
0.201168 0.9 0 0.201168 0.85 0 0.201168 0.8 0 
0.201168 0.75 0 0.201168 0.7 0 0.201168 0.65 0 
0.201168 0.6 0 0.201168 0.55 0 0.201168 0.5 0 
0.201168 0.45 0 0.201168 0.4 0 0.201168 0.35 0 
0.201168 0.3 0 0.201168 0.25 0 0.201168 0.2 0 
0.201168 0.15 0 0.201168 0.1 0 0.201168 0.05 0 
0.201168 0 0 0.250952 1.5 0 0.250952 1.45 0 
0.250952 1.4 0 0.250952 1.35 0 0.250952 1.3 0 
0.250952 1.25 0 0.250952 1.2 0 0.250952 1.15 0 
0.250952 1.1 0 0.250952 1.05 0 0.250952 1 0 
0.250952 0.95 0 0.250952 0.9 0 0.250952 0.85 0 
0.250952 0.8 0 0.250952 0.75 0 0.250952 0.7 0 
0.250952 0.65 0 0.250952 0.6 0 0.250952 0.55 0 
0.250952 0.5 0 0.250952 0.45 0 0.250952 0.4 0 
0.250952 0.35 0 0.250952 0.3 0 0.250952 0.25 0 
0.250952 0.2 0 0.250952 0.15 0 0.250952 0.1 0 
0.250952 0.05 0 0.250952 0 0 0.300736 1.5 0 
0.300736 1.45 0 0.300736 1.4 0 0.300736 1.35 0 
0.300736 1.3 0 0.300736 1.25 0 0.300736 1.2 0 
0.300736 1.15 0 0.300736 1.1 0 0.300736 1.05 0 
0.300736 1 0 0.300736 0.95 0 0.300736 0.9 0 
0.300736 0.85 0 0.300736 0.8 0 0.300736 0.75 0 
0.300736 0.7 0 0.300736 0.65 0 0.300736 0.6 0 
0.300736 0.55 0 0.300736 0.5 0 0.300736 0.45 0 
0.300736 0.4 0 0.300736 0.35 0 0.300736 0.3 0 
0.300736 0.25 0 0.300736 0.2 0 0.300736 0.15 0 
0.300736 0.1 0 0.300736 0.05 0 0.300736 0 0 
0.35052 1.5 0 0.35052 1.45 0 0.35052 1.4 0 
0.35052 1.35 0 0.35052 1.3 0 0.35052 1.25 0 
0.35052 1.2 0 0.35052 1.15 0 0.35052 1.1 0 
0.35052 1.05 0 0.35052 1 0 0.35052 0.95 0 
0.35052 0.9 0 0.35052 0.85 0 0.35052 0.8 0 
0.35052 0.75 0 0.35052 0.7 0 0.35052 0.65 0 
0.35052 0.6 0 0.35052 0.55 0 0.35052 0.5 0 
0.35052 0.45 0 0.35052 0.4 0 0.35052 0.35 0 
0.35052 0.3 0 0.35052 0.25 0 0.35052 0.2 0 
0.35052 0.15 0 0.35052 0.1 0 0.35052 0.05 0 
0.35052 0 0 0.400304 1.5 0 0.400304 1.45 0 
0.400304 1.4 0 0.400304 1.35 0 0.400304 1.3 0 
0.400304 1.25 0 0.400304 1.2 0 0.400304 1.15 0 
0.400304 1.1 0 0.400304 1.05 0 0.400304 1 0 
0.400304 0.95 0 0.400304 0.9 0 0.400304 0.85 0 
0.400304 0.8 0 0.400304 0.75 0 0.400304 0.7 0 
0.400304 0.65 0 0.400304 0.6 0 0.400304 0.55 0 
0.400304 0.5 0 0.400304 0.45 0 0.400304 0.4 0 
0.400304 0.35 0 0.400304 0.3 0 0.400304 0.25 0 
0.400304 0.2 0 0.400304 0.15 0 0.400304 0.1 0 
0.400304 0.05 0 0.400304 0 0 0.450088 1.5 0 
0.450088 1.45 0 0.450088 1.4 0 0.450088 1.35 0 
0.450088 1.3 0 0.450088 1.25 0 0.450088 1.2 0 
0.450088 1.15 0 0.450088 1.1 0 0.450088 1.05 0 
0.450088 1 0 0.450088 0.95 0 0.450088 0.9 0 
0.450088 0.85 0 0.450088 0.8 0 0.450088 0.75 0 
0.450088 0.7 0 0.450088 0.65 0 0.450088 0.6 0 
0.450088 0.55 0 0.450088 0.5 0 0.450088 0.45 0 
0.450088 0.4 0 0.450088 0.35 0 0.450088 0.3 0 
0.450088 0.25 0 0.450088 0.2 0 0.450088 0.15 0 
0.450088 0.1 0 0.450088 0.05 0 0.450088 0 0 
0.499872 1.5 0 0.499872 1.45 0 0.499872 1.4 0 
0.499872 1.35 0 0.499872 1.3 0 0.499872 1.25 0 
0.499872 1.2 0 0.499872 1.15 0 0.499872 1.1 0 
0.499872 1.05 0 0.499872 1 0 0.499872 0.95 0 
0.499872 0.9 0 0.499872 0.85 0 0.499872 0.8 0 
0.499872 0.75 0 0.499872 0.7 0 0.499872 0.65 0 
0.499872 0.6 0 0.499872 0.55 0 0.499872 0.5 0 
0.499872 0.45 0 0.499872 0.4 0 0.499872 0.35 0 
0.499872 0.3 0 0.499872 0.25 0 0.499872 0.2 0 
0.499872 0.15 0 0.499872 0.1 0 0.499872 0.05 0 
0.499872 0 0 0.549656 1.5 0 0.549656 1.45 0 
0.549656 1.4 0 0.549656 1.35 0 0.549656 1.3 0 
0.549656 1.25 0 0.549656 1.2 0 0.549656 1.15 0 
0.549656 1.1 0 0.549656 1.05 0 0.549656 1 0 
0.549656 0.95 0 0.549656 0.9 0 0.549656 0.85 0 
0.549656 0.8 0 0.549656 0.75 0 0.549656 0.7 0 
0.549656 0.65 0 0.549656 0.6 0 0.549656 0.55 0 
0.549656 0.5 0 0.549656 0.45 0 0.549656 0.4 0 
0.549656 0.35 0 0.549656 0.3 0 0.549656 0.25 0 
0.549656 0.2 0 0.549656 0.15 0 0.549656 0.1 0 
0.549656 0.05 0 0.549656 0 0 0.59944 1.5 0 
0.59944 1.45 0 0.59944 1.4 0 0.59944 1.35 0 
0.59944 1.3 0 0.59944 1.25 0 0.59944 1.2 0 
0.59944 1.15 0 0.59944 1.1 0 0.59944 1.05 0 
0.59944 1 0 0.59944 0.95 0 0.59944 0.9 0 
0.59944 0.85 0 0.59944 0.8 0 0.59944 0.75 0 
0.59944 0.7 0 0.59944 0.65 0 0.59944 0.6 0 
0.59944 0.55 0 0.59944 0.5 0 0.59944 0.45 0 
0.59944 0.4 0 0.59944 0.35 0 0.59944 0.3 0 
0.59944 0.25 0 0.59944 0.2 0 0.59944 0.15 0 
0.59944 0.1 0 0.59944 0.05 0 0.59944 0 0 
0.649224 1.5 0 0.649224 1.45 0 0.649224 1.4 0 
0.649224 1.35 0 0.649224 1.3 0 0.649224 1.25 0 
0.649224 1.2 0 0.649224 1.15 0 0.649224 1.1 0 
0.649224 1.05 0 0.649224 1 0 0.649224 0.95 0 
0.649224 0.9 0 0.649224 0.85 0 0.649224 0.8 0 
0.649224 0.75 0 0.649224 0.7 0 0.649224 0.65 0 
0.649224 0.6 0 0.649224 0.55 0 0.649224 0.5 0 
0.649224 0.45 0 0.649224 0.4 0 0.649224 0.35 0 
0.649224 0.3 0 0.649224 0.25 0 0.649224 0.2 0 
0.649224 0.15 0 0.649224 0.1 0 0.649224 0.05 0 
0.649224 0 0 0.699008 1.5 0 0.699008 1.45 0 
0.699008 1.4 0 0.699008 1.35 0 0.699008 1.3 0 
0.699008 1.25 0 0.699008 1.2 0 0.699008 1.15 0 
0.699008 1.1 0 0.699008 1.05 0 0.699008 1 0 
0.699008 0.95 0 0.699008 0.9 0 0.699008 0.85 0 
0.699008 0.8 0 0.699008 0.75 0 0.699008 0.7 0 
0.699008 0.65 0 0.699008 0.6 0 0.699008 0.55 0 
0.699008 0.5 0 0.699008 0.45 0 0.699008 0.4 0 
0.699008 0.35 0 0.699008 0.3 0 0.699008 0.25 0 
0.699008 0.2 0 0.699008 0.15 0 0.699008 0.1 0 
0.699008 0.05 0 0.699008 0 0 0.748792 1.5 0 
0.748792 1.45 0 0.748792 1.4 0 0.748792 1.35 0 
0.748792 1.3 0 0.748792 1.25 0 0.748792 1.2 0 
0.748792 1.15 0 0.748792 1.1 0 0.748792 1.05 0 
0.748792 1 0 0.748792 0.95 0 0.748792 0.9 0 
0.748792 0.85 0 0.748792 0.8 0 0.748792 0.75 0 
0.748792 0.7 0 0.748792 0.65 0 0.748792 0.6 0 
0.748792 0.55 0 0.748792 0.5 0 0.748792 0.45 0 
0.748792 0.4 0 0.748792 0.35 0 0.748792 0.3 0 
0.748792 0.25 0 0.748792 0.2 0 0.748792 0.15 0 
0.748792 0.1 0 0.748792 0.05 0 0.748792 0 0 
0.798576 1.5 0 0.798576 1.45 0 0.798576 1.4 0 
0.798576 1.35 0 0.798576 1.3 0 0.798576 1.25 0 
0.798576 1.2 0 0.798576 1.15 0 0.798576 1.1 0 
0.798576 1.05 0 0.798576 1 0 0.798576 0.95 0 
0.798576 0.9 0 0.798576 0.85 0 0.798576 0.8 0 
0.798576 0.75 0 0.798576 0.7 0 0.798576 0.65 0 
0.798576 0.6 0 0.798576 0.55 0 0.798576 0.5 0 
0.798576 0.45 0 0.798576 0.4 0 0.798576 0.35 0 
0.798576 0.3 0 0.798576 0.25 0 0.798576 0.2 0 
0.798576 0.15 0 0.798576 0.1 0 0.798576 0.05 0 
0.798576 0 0 0.84836 1.5 0 0.84836 1.45 0 
0.84836 1.4 0 0.84836 1.35 0 0.84836 1.3 0 
0.84836 1.25 0 0.84836 1.2 0 0.84836 1.15 0 
0.84836 1.1 0 0.84836 1.05 0 0.84836 1 0 
0.84836 0.95 0 0.84836 0.9 0 0.84836 0.85 0 
0.84836 0.8 0 0.84836 0.75 0 0.84836 0.7 0 
0.84836 0.65 0 0.84836 0.6 0 0.84836 0.55 0 
0.84836 0.5 0 0.84836 0.45 0 0.84836 0.4 0 
0.84836 0.35 0 0.84836 0.3 0 0.84836 0.25 0 
0.84836 0.2 0 0.84836 0.15 0 0.84836 0.1 0 
0.84836 0.05 0 0.84836 0 0 0.898144 1.5 0 
0.898144 1.45 0 0.898144 1.4 0 0.898144 1.35 0 
0.898144 1.3 0 0.898144 1.25 0 0.898144 1.2 0 
0.898144 1.15 0 0.898144 1.1 0 0.898144 1.05 0 
0.898144 1 0 0.898144 0.95 0 0.898144 0.9 0 
0.898144 0.85 0 0.898144 0.8 0 0.898144 0.75 0 
0.898144 0.7 0 0.898144 0.65 0 0.898144 0.6 0 
0.898144 0.55 0 0.898144 0.5 0 0.898144 0.45 0 
0.898144 0.4 0 0.898144 0.35 0 0.898144 0.3 0 
0.898144 0.25 0 0.898144 0.2 0 0.898144 0.15 0 
0.898144 0.1 0 0.898144 0.05 0 0.898144 0 0 
0.947928 1.5 0 0.947928 1.45 0 0.947928 1.4 0 
0.947928 1.35 0 0.947928 1.3 0 0.947928 1.25 0 
0.947928 1.2 0 0.947928 1.15 0 0.947928 1.1 0 
0.947928 1.05 0 0.947928 1 0 0.947928 0.95 0 
0.947928 0.9 0 0.947928 0.85 0 0.947928 0.8 0 
0.947928 0.75 0 0.947928 0.7 0 0.947928 0.65 0 
0.947928 0.6 0 0.947928 0.55 0 0.947928 0.5 0 
0.947928 0.45 0 0.947928 0.4 0 0.947928 0.35 0 
0.947928 0.3 0 0.947928 0.25 0 0.947928 0.2 0 
0.947928 0.15 0 0.947928 0.1 0 0.947928 0.05 0 
0.947928 0 0 0.997712 1.5 0 0.997712 1.45 0 
0.997712 1.4 0 0.997712 1.35 0 0.997712 1.3 0 
0.997712 1.25 0 0.997712 1.2 0 0.997712 1.15 0 
0.997712 1.1 0 0.997712 1.05 0 0.997712 1 0 
0.997712 0.95 0 0.997712 0.9 0 0.997712 0.85 0 
0.997712 0.8 0 0.997712 0.75 0 0.997712 0.7 0 
0.997712 0.65 0 0.997712 0.6 0 0.997712 0.55 0 
0.997712 0.5 0 0.997712 0.45 0 0.997712 0.4 0 
0.997712 0.35 0 0.997712 0.3 0 0.997712 0.25 0 
0.997712 0.2 0 0.997712 0.15 0 0.997712 0.1 0 
0.997712 0.05 0 0.997712 0 0 1.047496 1.5 0 
1.047496 1.45 0 1.047496 1.4 0 1.047496 1.35 0 
1.047496 1.3 0 1.047496 1.25 0 1.047496 1.2 0 
1.047496 1.15 0 1.047496 1.1 0 1.047496 1.05 0 
1.047496 1 0 1.047496 0.95 0 1.047496 0.9 0 
1.047496 0.85 0 1.047496 0.8 0 1.047496 0.75 0 
1.047496 0.7 0 1.047496 0.65 0 1.047496 0.6 0 
1.047496 0.55 0 1.047496 0.5 0 1.047496 0.45 0 
1.047496 0.4 0 1.047496 0.35 0 1.047496 0.3 0 
1.047496 0.25 0 1.047496 0.2 0 1.047496 0.15 0 
[...]
CELL_DATA 9270
FIELD FieldData 7
B_Stress_n_p_m2 1 9270 float
0.358874 0.395727 0.402634 0.405171 0.407783 0.41107 0.415272 0.420542 0.427089 
0.435094 0.444547 0.45393 0.460392 0.466033 0.447108 0.290807 0.170072 0.113624 
0.0832342 0.063917 0.0511967 0.0424254 0.0362456 0.0318743 0.028827 0.0267716 0.0253637 
0.0241314 0.0222253 0.0213464 0.334948 0.370914 0.377223 0.378778 0.379966 0.381296 
0.382877 0.384629 0.386462 0.388147 0.38915 0.388051 0.383341 0.373156 0.339296 
0.257489 0.184557 0.134775 0.100747 0.076608 0.0590988 0.0461814 0.0365696 0.0294136 
0.0241047 0.02016 0.0169535 0.014124 0.00891126 0.00552482 0.314226 0.349476 0.355349 
0.356158 0.356253 0.356115 0.355779 0.35505 0.353693 0.351293 0.347151 0.340098 
0.328923 0.311027 0.27739 0.224769 0.176506 0.138811 0.110016 0.088178 0.0716213 
0.0590284 0.0494241 0.0420675 0.0363482 0.0316952 0.0274122 0.0227284 0.0167122 0.0082412 
0.294392 0.329018 0.334534 0.334713 0.333885 0.33254 0.330668 0.328029 0.324342 
0.319158 0.311829 0.301449 0.286996 0.266635 0.23724 0.200382 0.165213 0.135427 
0.111248 0.0920395 0.0769351 0.0651152 0.0558703 0.0485816 0.0426617 0.0374901 0.032289 
0.0261754 0.0182413 0.00833931 0.275896 0.309998 0.31526 0.314958 0.313427 0.311188 
0.308221 0.304288 0.299128 0.292352 0.283468 0.271867 0.256889 0.23761 0.213225 
0.185451 0.158471 0.134478 0.114093 0.0972477 0.0835589 0.0725442 0.0637046 0.0565357 
0.050493 0.0449455 0.039076 0.0319527 0.0227414 0.0112774 0.258767 0.292434 0.297534 
0.296888 0.294853 0.291992 0.288296 0.283555 0.277554 0.26999 0.26052 0.248762 
0.234356 0.216961 0.19661 0.174563 0.152957 0.133172 0.115823 0.10105 0.0887154 
0.0785455 0.0701917 0.0632457 0.0572116 0.0514666 0.0451657 0.0373362 0.0270101 0.0141377 
0.243028 0.27634 0.281361 0.280492 0.278124 0.274873 0.270748 0.265578 0.259202 
0.251401 0.241957 0.230657 0.217347 0.201981 0.184828 0.166755 0.148972 0.132378 
0.117486 0.104495 0.0933976 0.0840469 0.0762044 0.0695446 0.0636263 0.057853 0.051367 
0.0431455 0.0320196 0.0177839 0.228659 0.261681 0.26669 0.265702 0.263142 0.259684 
0.255359 0.250037 0.243604 0.235914 0.226842 0.216284 0.204212 0.190708 0.176073 
0.160905 0.145951 0.131823 0.118922 0.107454 0.0974667 0.0888932 0.0815726 0.0752485 
0.069535 0.0638705 0.0573911 0.0490072 0.0372895 0.0217185 0.215608 0.248395 0.253446 
0.252418 0.249777 0.246253 0.241896 0.236614 0.230334 0.222964 0.214444 0.204741 
0.193892 0.182024 0.169406 0.156464 0.14369 0.131517 0.120254 0.110088 0.101091 
0.0932444 0.0864419 0.0804857 0.0750432 0.0695941 0.0632743 0.0549181 0.0428028 0.0259578 
0.203806 0.236399 0.241533 0.240526 0.237888 0.234399 0.230128 0.225014 0.219016 
0.212081 0.204192 0.195358 0.185645 0.175189 0.164215 0.153034 0.14199 0.131397 
0.121497 0.11245 0.104336 0.0971639 0.0908674 0.0852965 0.0801691 0.0750082 0.0689553 
0.0607664 0.0484078 0.0303563 0.193168 0.225601 0.230845 0.229903 0.227328 0.223946 
0.219839 0.214973 0.209329 0.202883 0.195644 0.187644 0.17896 0.169719 0.160106 
0.150355 0.140717 0.131427 0.122675 0.114597 0.107271 0.100723 0.0949142 0.0897346 
0.0849472 0.08012 0.074405 0.0664851 0.0540122 0.0348345 0.183607 0.215903 0.221273 
0.220428 0.217956 0.214727 0.210834 0.206261 0.201006 0.195065 0.18846 0.181236 
0.173471 0.165278 0.156808 0.148242 0.13977 0.131571 0.123798 0.116564 0.109945 
0.103972 0.0986296 0.093838 0.0894006 0.0849298 0.0795941 0.0720119 0.0595287 0.0393099 
0.175032 0.207208 0.212713 0.211982 0.209641 0.206593 0.20294 0.198681 0.193826 
0.18838 0.182377 0.175864 0.168915 0.161629 0.154131 0.146563 0.139072 0.1318 
0.12487 0.118379 0.112394 0.106952 0.102052 0.097638 0.0935492 0.0894408 0.084503 
0.0773013 0.064891 0.0437187 0.167354 0.199421 0.205062 0.204457 0.202261 0.199409 
0.196007 0.192068 0.187606 0.182634 0.177191 0.171322 0.165097 0.158601 0.151937 
0.14522 0.138567 0.132093 0.125896 0.120061 0.114647 0.109694 0.10521 0.101159 
0.0974095 0.0936574 0.0891196 0.082321 0.070048 0.0480097 0.160489 0.192453 0.198226 
0.19775 0.195707 0.193056 0.189907 0.186281 0.182196 0.17767 0.17274 0.167453 
0.16187 0.156065 0.150124 0.144141 0.138211 0.132428 0.126875 0.121622 0.116725 
0.112222 0.108127 0.104421 0.100996 0.097586 0.0934384 0.0870503 0.0749637 0.0521447 
0.154358 0.186221 0.19212 0.191771 0.189882 0.18743 0.184527 0.181202 0.177472 
0.173359 0.1689 0.164136 0.159123 0.153925 0.148615 0.14327 0.137971 0.132793 
0.127807 0.123074 0.118644 0.114554 0.110822 0.10744 0.104322 0.101235 0.0974602 
0.0914788 0.0796144 0.0560966 0.148887 0.180648 0.186663 0.186438 0.184699 0.18244 
0.179773 0.176732 0.173334 0.169601 0.165568 0.161274 0.156768 0.152107 0.14735 
0.142566 0.137818 0.133174 0.128691 0.124424 0.120417 0.116706 0.11331 0.110232 
0.1074 0.104614 0.10119 0.0956036 0.0839866 0.0598478 0.144009 0.175667 0.181784 
0.181676 0.180082 0.178007 0.175562 0.172787 0.169695 0.166311 0.162665 0.158793 
0.154739 0.150552 0.146285 0.141993 0.137734 0.133561 0.129527 0.125678 0.122054 
0.11869 0.115605 0.112808 0.110242 0.107734 0.104637 0.0994285 0.0880753 0.0633887 
0.139664 0.171213 0.177421 0.177421 0.175964 0.174062 0.171826 0.169297 0.166487 
0.16342 0.160123 0.156631 0.152981 0.149216 0.145382 0.141527 0.1377 0.133947 
0.130313 0.126841 0.123565 0.120517 0.117719 0.115183 0.112862 0.110609 0.107812 
0.102962 0.091882 0.0667156 0.135798 0.167231 0.173516 0.173616 0.172287 0.170547 
0.168504 0.166201 0.163649 0.160871 0.15789 0.154739 0.15145 0.148062 0.144613 
0.141147 0.137704 0.134325 0.131051 0.127917 0.124956 0.122198 0.119663 0.117366 
0.115271 0.11325 0.110729 0.106214 0.0954128 0.0698298 0.132359 0.163671 0.170019 
0.170209 0.169 0.167409 0.165545 0.16345 0.161133 0.158616 0.155922 0.153077 
0.150112 0.147059 0.143955 0.140835 0.137735 0.134692 0.13174 0.128912 0.126237 
0.123742 0.121448 0.119371 0.117481 0.115672 0.113402 0.109201 0.0986775 0.0727363 
0.129305 0.160488 0.166885 0.167156 0.166057 0.164604 0.162904 0.160999 0.158896 
0.156617 0.15418 0.151611 0.148936 0.146185 0.143388 0.140578 0.137785 0.135043 
0.132381 0.129828 0.127412 0.125158 0.123084 0.121208 0.119506 0.117888 0.115845 
0.111935 0.101688 0.0754427 0.126596 0.157641 0.164074 0.164417 0.16342 0.162093 
0.160543 0.158812 0.156903 0.154839 0.152635 0.150314 0.1479 0.145419 0.142898 
0.140365 0.137848 0.135375 0.132974 0.130671 0.12849 0.126454 0.12458 0.122888 
0.121358 0.119911 0.118075 0.114435 0.104459 0.0779581 0.124196 0.155094 0.161551 
0.161958 0.161053 0.159842 0.158429 0.156856 0.155124 0.153254 0.15126 0.149163 
0.146984 0.144745 0.142471 0.140187 0.137918 0.135688 0.133522 0.131444 0.129476 
0.127638 0.125947 0.124422 0.123047 0.121756 0.120106 0.116714 0.107004 0.0802933 
0.122074 0.152817 0.159285 0.159747 0.158927 0.157821 0.156533 0.155103 0.153532 
0.151838 0.150034 0.148139 0.14617 0.14415 0.142098 0.140038 0.137991 0.13598 
0.134026 0.132152 0.130375 0.128718 0.127193 0.12582 0.124586 0.123434 0.121953 
0.118791 0.109339 0.0824592 0.120201 0.15078 0.157248 0.157757 0.157014 0.156005 
0.154831 0.153531 0.152105 0.150571 0.148938 0.147224 0.145446 0.143621 0.141769 
0.13991 0.138064 0.13625 0.134488 0.132797 0.131195 0.129701 0.128327 0.127092 
0.125985 0.12496 0.123629 0.120679 0.111478 0.0844674 0.118553 0.148959 0.155415 
0.155965 0.155292 0.15437 0.1533 0.152118 0.150824 0.149433 0.147955 0.146405 
0.144798 0.14315 0.141479 0.139801 0.138135 0.136499 0.13491 0.133385 0.13194 
0.130594 0.129357 0.128247 0.127256 0.126343 0.12515 0.122394 0.113437 0.0863292 
0.117106 0.14733 0.153766 0.154349 0.15374 0.152897 0.15192 0.150846 0.149671 
0.148411 0.147072 0.14567 0.144217 0.142729 0.14122 0.139705 0.138202 0.136726 
0.135293 0.133918 0.132617 0.131404 0.130291 0.129295 0.128408 0.127596 0.126526 
0.123949 0.115228 0.0880558 0.115841 0.145874 0.15228 0.152891 0.152338 0.151568 
0.150677 0.149699 0.148632 0.14749 0.146277 0.145009 0.143695 0.14235 0.140987 
0.139621 0.138264 0.136933 0.13564 0.134401 0.133229 0.132137 0.131136 0.130243 
0.12945 0.12873 0.12777 0.125359 0.116867 0.0896578 0.114739 0.144573 0.150941 
0.151574 0.151072 0.150367 0.149553 0.148664 0.147695 0.146658 0.14556 0.144412 
0.143224 0.142009 0.140778 0.139544 0.13832 0.137119 0.135954 0.134837 0.133781 
0.132799 0.1319 0.1311 0.130392 0.129754 0.128894 0.126635 0.118364 0.0911456 
0.113785 0.14341 0.149732 0.150382 0.149927 0.149281 0.148538 0.147728 0.146847 
0.145907 0.144912 0.143873 0.142798 0.1417 0.140588 0.139474 0.138369 0.137286 
0.136236 0.13523 0.134279 0.133396 0.132589 0.131873 0.131242 0.130677 0.129907 
0.12779 0.119733 0.0925288 0.112963 0.142372 0.148641 0.149303 0.148889 0.148297 
0.147618 0.14688 0.146079 0.145226 0.144324 0.143383 0.142411 0.141418 0.140414 
0.139408 0.138411 0.137434 0.136488 0.135582 0.134727 0.133934 0.133209 0.132569 
0.132007 0.131509 0.130819 0.128833 0.120984 0.0938166 0.112262 0.141446 0.147655 
0.148326 0.147949 0.147405 0.146784 0.146111 0.145383 0.144608 0.14379 0.142938 
0.142059 0.141161 0.140254 0.139345 0.138446 0.137566 0.136712 0.135897 0.135128 
0.134416 0.133767 0.133195 0.132696 0.132257 0.13164 0.129775 0.122128 0.0950174 
0.111669 0.14062 0.146763 0.147439 0.147095 0.146595 0.146026 0.145413 0.14475 
0.144046 0.143305 0.142533 0.141737 0.140925 0.140105 0.139285 0.138474 0.13768 
0.136912 0.136178 0.135487 0.134847 0.134267 0.133756 0.133314 0.132928 0.132378 
0.130625 0.123174 0.0961392 0.111174 0.139884 0.145957 0.146633 0.14632 0.145859 
0.145338 0.144778 0.144174 0.143535 0.142862 0.142163 0.141442 0.140708 0.139967 
0.139227 0.138495 0.137779 0.137087 0.136427 0.135806 0.135233 0.134714 0.134259 
0.133868 0.13353 0.133039 0.131391 0.124131 0.0971893 0.110768 0.139228 0.145226 
0.145901 0.145614 0.145189 0.14471 0.144199 0.143649 0.143068 0.142457 0.141823 
0.141171 0.140507 0.139837 0.139169 0.138509 0.137864 0.137241 0.136648 0.13609 
0.135577 0.135112 0.134708 0.134363 0.134068 0.133632 0.132081 0.125006 0.0981744 
0.110442 0.138645 0.144563 0.145234 0.14497 0.144578 0.144138 0.143671 0.143169 
0.14264 0.142086 0.141511 0.140921 0.14032 0.139715 0.139112 0.138516 0.137935 
0.137375 0.136841 0.136341 0.135882 0.135467 0.135109 0.134805 0.134549 0.134161 
0.132701 0.125809 0.0991007 0.110188 0.138127 0.143962 0.144626 0.144383 0.144021 
0.143616 0.143188 0.14273 0.142249 0.141745 0.141224 0.140689 0.140146 0.139599 
0.139054 0.138517 0.137994 0.13749 0.137011 0.136562 0.136151 0.135782 0.135465 
0.135198 0.134977 0.134634 0.133259 0.126544 0.099974 0.110001 0.137667 0.143416 
0.144071 0.143847 0.143511 0.143138 0.142745 0.142327 0.141889 0.141431 0.140959 
0.140474 0.139982 0.139488 0.138997 0.138512 0.138041 0.137588 0.137158 0.136756 
0.136389 0.136061 0.135781 0.135548 0.135358 0.135055 0.13376 0.127218 0.100799 
0.109873 0.13726 0.142919 0.143564 0.143356 0.143044 0.1427 0.14234 0.141958 
0.141558 0.141142 0.140713 0.140274 0.139829 0.139382 0.138938 0.138502 0.138078 
0.13767 0.137284 0.136925 0.136598 0.136306 0.136059 0.135857 0.135695 0.135429 
0.134209 0.127838 0.101582 0.109799 0.1369 0.142467 0.1431 0.142906 0.142616 
0.142298 0.141967 0.141617 0.141253 0.140874 0.140484 0.140086 0.139684 0.13928 
0.138879 0.138486 0.138104 0.137738 0.137393 0.137071 0.13678 0.136522 0.136305 
0.136129 0.135993 0.13576 0.134611 0.128407 0.102326 0.109774 0.136582 0.142055 
0.142674 0.142494 0.142222 0.141928 0.141624 0.141303 0.140971 0.140626 0.140272 
0.139911 0.139546 0.139181 0.13882 0.138465 0.138122 0.137793 0.137484 0.137197 
0.136938 0.13671 0.13652 0.136369 0.136256 0.136053 0.134971 0.128931 0.103035 
0.109792 0.136305 0.141679 0.142283 0.142114 0.14186 0.141588 0.141307 0.141013 
0.140709 0.140395 0.140073 0.139745 0.139415 0.139085 0.138759 0.13844 0.138131 
0.137836 0.137559 0.137303 0.137074 0.136873 0.136707 0.136579 0.136486 0.136311 
0.135292 0.129413 0.103713 0.109846 0.136065 0.141335 0.141923 0.141764 0.141526 
0.141273 0.141014 0.140744 0.140466 0.140179 0.139886 0.139589 0.13929 0.138992 
0.138698 0.13841 0.138133 0.137868 0.137621 0.137393 0.137189 0.137013 0.13687 
0.136761 0.136687 0.136537 0.135578 0.129858 0.104363 0.109935 0.135859 0.141021 
0.141592 0.141441 0.141218 0.140982 0.140742 0.140494 0.140239 0.139978 0.139711 
0.139441 0.13917 0.138901 0.138635 0.138376 0.138127 0.13789 0.137669 0.137467 
0.137287 0.137133 0.13701 0.136919 0.136862 0.136734 0.135833 0.13027 0.104989 
0.110053 0.135683 0.140733 0.141286 0.141143 0.140932 0.140712 0.14049 0.140261 
0.140028 0.139789 0.139546 0.139301 0.139055 0.138812 0.138572 0.138339 0.138115 
0.137903 0.137706 0.137527 0.137368 0.137234 0.137129 0.137054 0.137012 0.136906 
0.136058 0.13065 0.105592 0.110199 0.135535 0.140468 0.141003 0.140866 0.140667 
0.140461 0.140255 0.140044 0.13983 0.139611 0.13939 0.139167 0.138944 0.138724 
0.138508 0.138298 0.138097 0.137908 0.137733 0.137573 0.137435 0.137318 0.137229 
0.13717 0.137141 0.137054 0.136258 0.131002 0.106176 0.110371 0.135411 0.140226 
0.14074 0.140609 0.14042 0.140227 0.140036 0.139841 0.139643 0.139443 0.139241 
0.139039 0.138837 0.138637 0.138442 0.138254 0.138074 0.137905 0.137749 0.137609 
0.137487 0.137387 0.137313 0.137266 0.13725 0.137181 0.136434 0.131329 0.106743 
0.110566 0.135308 0.140003 0.140496 0.14037 0.14019 0.140009 0.13983 0.13965 
0.139468 0.139285 0.1391 0.138916 0.138733 0.138552 0.138376 0.138207 0.138046 
0.137895 0.137757 0.137633 0.137528 0.137442 0.137381 0.137346 0.137341 0.137288 
0.136588 0.131633 0.107295 0.110782 0.135224 0.139798 0.140269 0.140146 0.139975 
0.139805 0.139638 0.13947 0.139303 0.139134 0.138965 0.138797 0.138631 0.138468 
0.138309 0.138157 0.138013 0.137879 0.137757 0.137648 0.137557 0.137484 0.137435 
0.137411 0.137416 0.137378 0.136723 0.131915 0.107834 0.111019 0.135157 0.139609 
0.140057 0.139937 0.139774 0.139613 0.139456 0.139301 0.139146 0.138991 0.138836 
0.138683 0.138532 0.138385 0.138242 0.138105 0.137976 0.137857 0.137749 0.137654 
0.137576 0.137515 0.137477 0.137463 0.137476 0.137452 0.13684 0.132179 0.108361 
0.111274 0.135105 0.139433 0.139858 0.139741 0.139585 0.139432 0.139285 0.13914 
0.138997 0.138854 0.138713 0.138573 0.138436 0.138302 0.138173 0.13805 0.137936 
0.137829 0.137735 0.137652 0.137585 0.137535 0.137507 0.137502 0.137523 0.137511 
0.13694 0.132425 0.108878 0.111546 0.135066 0.13927 0.139672 0.139557 0.139406 
0.139262 0.139123 0.138988 0.138855 0.138723 0.138593 0.138466 0.138341 0.13822 
0.138104 0.137994 0.137891 0.137798 0.137714 0.137643 0.137587 0.137546 0.137527 
0.137529 0.137558 0.137558 0.137026 0.132654 0.109387 0.111833 0.13504 0.139118 
0.139497 0.139383 0.139238 0.1391 0.13897 0.138843 0.138719 0.138598 0.138478 
0.138362 0.138248 0.138139 0.138034 0.137935 0.137844 0.137761 0.137689 0.137628 
0.137581 0.137549 0.137537 0.137547 0.137582 0.137592 0.137099 0.13287 0.109888 
0.112136 0.135023 0.138977 0.139331 0.139218 0.139079 0.138947 0.138824 0.138705 
0.138589 0.138477 0.138367 0.13826 0.138157 0.138058 0.137963 0.137875 0.137794 
0.137721 0.137658 0.137606 0.137568 0.137544 0.137539 0.137555 0.137597 0.137617 
0.13716 0.133072 0.110384 0.112452 0.135017 0.138843 0.139174 0.139062 0.138927 
0.138802 0.138684 0.138573 0.138465 0.13836 0.138259 0.138161 0.138067 0.137977 
0.137892 0.137813 0.137741 0.137677 0.137623 0.137579 0.137548 0.137531 0.137533 
0.137555 0.137602 0.137631 0.137209 0.133261 0.110874 0.112781 0.135018 0.138718 
0.139026 0.138914 0.138783 0.138662 0.138551 0.138445 0.138344 0.138248 0.138154 
0.138064 0.137978 0.137896 0.13782 0.137749 0.137686 0.13763 0.137583 0.137547 
0.137523 0.137513 0.13752 0.137547 0.137599 0.137636 0.137248 0.13344 0.111361 
0.113123 0.135026 0.1386 0.138884 0.138772 0.138645 0.138529 0.138423 0.138323 
0.138228 0.138138 0.138051 0.137969 0.13789 0.137816 0.137747 0.137684 0.137628 
0.13758 0.13754 0.13751 0.137493 0.137488 0.137501 0.137533 0.137589 0.137634 
0.137278 0.133608 0.111844 0.113476 0.13504 0.138488 0.138749 0.138637 0.138513 
0.138401 0.138299 0.138205 0.138116 0.138032 0.137951 0.137875 0.137803 0.137736 
0.137674 0.137618 0.137569 0.137527 0.137494 0.13747 0.137458 0.137459 0.137476 
0.137512 0.137572 0.137624 0.1373 0.133766 0.112325 0.11384 0.13506 0.138381 
0.138619 0.138507 0.138386 0.138278 0.138181 0.138091 0.138007 0.137928 0.137853 
0.137783 0.137717 0.137656 0.137601 0.137551 0.137508 0.137471 0.137444 0.137426 
0.137419 0.137424 0.137446 0.137486 0.13755 0.137608 0.137314 0.133916 0.112805 
0.114215 0.135085 0.138279 0.138495 0.138383 0.138264 0.13816 0.138066 0.13798 
0.137901 0.137827 0.137757 0.137692 0.137632 0.137577 0.137527 0.137482 0.137444 
0.137414 0.137391 0.137378 0.137376 0.137385 0.137411 0.137454 0.137521 0.137586 
0.13732 0.134057 0.113283 0.114599 0.135113 0.138181 0.138375 0.138262 0.138146 
0.138045 0.137954 0.137873 0.137797 0.137728 0.137663 0.137603 0.137547 0.137497 
0.137452 0.137413 0.13738 0.137354 0.137336 0.137327 0.137329 0.137343 0.137372 
0.137418 0.137488 0.137558 0.13732 0.134191 0.113762 0.114993 0.135145 0.138087 
0.138259 0.138146 0.138032 0.137933 0.137846 0.137768 0.137696 0.13763 0.13757 
0.137514 0.137463 0.137417 0.137377 0.137342 0.137314 0.137292 0.137279 0.137274 
0.13728 0.137296 0.137329 0.137378 0.13745 0.137525 0.137314 0.134317 0.114241 
0.115397 0.135179 0.137996 0.138147 0.138033 0.137921 0.137825 0.137741 0.137666 
0.137597 0.137535 0.137478 0.137426 0.137379 0.137338 0.137301 0.137271 0.137246 
0.137229 0.137219 0.137218 0.137227 0.137247 0.137282 0.137333 0.137409 0.137488 
0.137303 0.134437 0.114721 0.115809 0.135215 0.137908 0.138038 0.137924 0.137813 
0.13772 0.137637 0.137565 0.1375 0.137441 0.137387 0.137339 0.137296 0.137258 
0.137225 0.137198 0.137178 0.137164 0.137158 0.137159 0.137172 0.137194 0.137232 
0.137286 0.137363 0.137447 0.137286 0.13455 0.115202 0.11623 0.135253 0.137822 
0.137932 0.137817 0.137708 0.137617 0.137537 0.137467 0.137404 0.137349 0.137298 
0.137253 0.137213 0.137178 0.137149 0.137125 0.137108 0.137097 0.137094 0.137099 
0.137114 0.137139 0.137179 0.137235 0.137314 0.137402 0.137265 0.134657 0.115685 
0.116659 0.135292 0.137738 0.137829 0.137713 0.137605 0.137516 0.137438 0.137371 
0.13731 0.137257 0.137209 0.137167 0.13713 0.137099 0.137072 0.137052 0.137037 
0.137029 0.137029 0.137036 0.137054 0.137082 0.137124 0.137181 0.137262 0.137353 
0.137239 0.134759 0.11617 0.117096 0.135332 0.137656 0.137727 0.137611 0.137505 
0.137417 0.137341 0.137276 0.137218 0.137167 0.137121 0.137082 0.137048 0.137019 
0.136995 0.136977 0.136966 0.13696 0.136963 0.136972 0.136992 0.137022 0.137066 
0.137125 0.137207 0.137302 0.137209 0.134855 0.116659 0.117542 0.135372 0.137575 
0.137628 0.137511 0.137406 0.13732 0.137246 0.137182 0.137126 0.137078 0.137034 
0.136997 0.136965 0.136939 0.136918 0.136902 0.136893 0.13689 0.136895 0.136906 
0.136928 0.13696 0.137005 0.137066 0.13715 0.137247 0.137176 0.134946 0.11715 
0.117995 0.135413 0.137495 0.137531 0.137414 0.137309 0.137224 0.137152 0.13709 
0.137036 0.136989 0.136948 0.136913 0.136883 0.136859 0.13684 0.136827 0.13682 
0.136819 0.136825 0.136839 0.136863 0.136896 0.136943 0.137005 0.13709 0.13719 
0.137138 0.135032 0.117644 0.118456 0.135453 0.137417 0.137435 0.137317 0.137214 
0.13713 0.137059 0.136999 0.136946 0.136901 0.136862 0.136829 0.136801 0.136779 
0.136762 0.136751 0.136746 0.136747 0.136755 0.13677 0.136796 0.13683 0.136879 
0.136942 0.137028 0.137131 0.137098 0.135113 0.118143 0.118925 0.135492 0.137339 
0.137341 0.137222 0.13712 0.137037 0.136967 0.136909 0.136857 0.136814 0.136776 
0.136745 0.136719 0.136699 0.136684 0.136674 0.136671 0.136673 0.136683 0.136701 
0.136727 0.136763 0.136813 0.136877 0.136964 0.137069 0.137054 0.135189 0.118645 
0.119402 0.13553 0.137261 0.137248 0.137129 0.137027 0.136946 0.136876 0.136819 
0.136769 0.136727 0.136691 0.136662 0.136637 0.136618 0.136605 0.136597 0.136595 
0.1366 0.136611 0.13663 0.136658 0.136695 0.136746 0.13681 0.136899 0.137006 
0.137008 0.13526 0.119152 0.119886 0.135567 0.137184 0.137156 0.137036 0.136935 