# vtk DataFile Version 5.1
vtk output
ASCII
DATASET UNSTRUCTURED_GRID
POINTS 4929 double
0.1016 1.5 0 0.1016 1.45 0 0.1016 1.4 0 
0.1016 1.35 0 0.1016 1.3 0 0.1016 1.25 0 
0.1016 1.2 0 0.1016 1.15 0 0.1016 1.1 0 
0.1016 1.05 0 0.1016 1 0 0.1016 0.95 0 
0.1016 0.9 0 0.1016 0.85 0 0.1016 0.8 0 
0.1016 0.75 0 0.1016 0.7 0 0.1016 0.65 0 
0.1016 0.6 0 0.1016 0.55 0 0.1016 0.5 0 
0.1016 0.45 0 0.1016 0.4 0 0.1016 0.35 0 
0.1016 0.3 0 0.1016 0.25 0 0.1016 0.2 0 
0.1016 0.15 0 0.1016 0.1 0 0.1016 0.05 0 
0.1016 0 0 5.08 1.5 0 5.08 1.45 0 
5.08 1.4 0 5.08 1.35 0 5.08 1.3 0 
5.08 1.25 0 5.08 1.2 0 5.08 1.15 0 
5.08 1.1 0 5.08 1.05 0 5.08 1 0 
5.08 0.95 0 5.08 0.9 0 5.08 0.85 0 
5.08 0.8 0 5.08 0.75 0 5.08 0.7 0 
5.08 0.65 0 5.08 0.6 0 5.08 0.55 0 
5.08 0.5 0 5.08 0.45 0 5.08 0.4 0 
5.08 0.35 0 5.08 0.3 0 5.08 0.25 0 
5.08 0.2 0 5.08 0.15 0 5.08 0.1 0 
5.08 0.05 0 5.08 0 0 0.12737462728 1.5 0 
0.12737462728 1.45 0 0.12737462728 1.4 0 0.12737462728 1.35 0 
0.12737462728 1.3 0 0.12737462728 1.25 0 0.12737462728 1.2 0 
0.12737462728 1.15 0 0.12737462728 1.1 0 0.12737462728 1.05 0 
0.12737462728 1 0 0.12737462728 0.95 0 0.12737462728 0.9 0 
0.12737462728 0.85 0 0.12737462728 0.8 0 0.12737462728 0.75 0 
0.12737462728 0.7 0 0.12737462728 0.65 0 0.12737462728 0.6 0 
0.12737462728 0.55 0 0.12737462728 0.5 0 0.12737462728 0.45 0 
0.12737462728 0.4 0 0.12737462728 0.35 0 0.12737462728 0.3 0 
0.12737462728 0.25 0 0.12737462728 0.2 0 0.12737462728 0.15 0 
0.12737462728 0.1 0 0.12737462728 0.05 0 0.12737462728 0 0 
0.15441581276 1.5 0 0.15441581276 1.45 0 0.15441581276 1.4 0 
0.15441581276 1.35 0 0.15441581276 1.3 0 0.15441581276 1.25 0 
0.15441581276 1.2 0 0.15441581276 1.15 0 0.15441581276 1.1 0 
0.15441581276 1.05 0 0.15441581276 1 0 0.15441581276 0.95 0 
0.15441581276 0.9 0 0.15441581276 0.85 0 0.15441581276 0.8 0 
0.15441581276 0.75 0 0.15441581276 0.7 0 0.15441581276 0.65 0 
0.15441581276 0.6 0 0.15441581276 0.55 0 0.15441581276 0.5 0 
0.15441581276 0.45 0 0.15441581276 0.4 0 0.15441581276 0.35 0 
0.15441581276 0.3 0 0.15441581276 0.25 0 0.15441581276 0.2 0 
0.15441581276 0.15 0 0.15441581276 0.1 0 0.15441581276 0.05 0 
0.15441581276 0 0 0.18278579477 1.5 0 0.18278579477 1.45 0 
0.18278579477 1.4 0 0.18278579477 1.35 0 0.18278579477 1.3 0 
0.18278579477 1.25 0 0.18278579477 1.2 0 0.18278579477 1.15 0 
0.18278579477 1.1 0 0.18278579477 1.05 0 0.18278579477 1 0 
0.18278579477 0.95 0 0.18278579477 0.9 0 0.18278579477 0.85 0 
0.18278579477 0.8 0 0.18278579477 0.75 0 0.18278579477 0.7 0 
0.18278579477 0.65 0 0.18278579477 0.6 0 0.18278579477 0.55 0 
0.18278579477 0.5 0 0.18278579477 0.45 0 0.18278579477 0.4 0 
0.18278579477 0.35 0 0.18278579477 0.3 0 0.18278579477 0.25 0 
0.18278579477 0.2 0 0.18278579477 0.15 0 0.18278579477 0.1 0 
0.18278579477 0.05 0 0.18278579477 0 0 0.21254987001 1.5 0 
0.21254987001 1.45 0 0.21254987001 1.4 0 0.21254987001 1.35 0 
0.21254987001 1.3 0 0.21254987001 1.25 0 0.21254987001 1.2 0 
0.21254987001 1.15 0 0.21254987001 1.1 0 0.21254987001 1.05 0 
0.21254987001 1 0 0.21254987001 0.95 0 0.21254987001 0.9 0 
0.21254987001 0.85 0 0.21254987001 0.8 0 0.21254987001 0.75 0 
0.21254987001 0.7 0 0.21254987001 0.65 0 0.21254987001 0.6 0 
0.21254987001 0.55 0 0.21254987001 0.5 0 0.21254987001 0.45 0 
0.21254987001 0.4 0 0.21254987001 0.35 0 0.21254987001 0.3 0 
0.21254987001 0.25 0 0.21254987001 0.2 0 0.21254987001 0.15 0 
0.21254987001 0.1 0 0.21254987001 0.05 0 0.21254987001 0 0 
0.24377654385 1.5 0 0.24377654385 1.45 0 0.24377654385 1.4 0 
0.24377654385 1.35 0 0.24377654385 1.3 0 0.24377654385 1.25 0 
0.24377654385 1.2 0 0.24377654385 1.15 0 0.24377654385 1.1 0 
0.24377654385 1.05 0 0.24377654385 1 0 0.24377654385 0.95 0 
0.24377654385 0.9 0 0.24377654385 0.85 0 0.24377654385 0.8 0 
0.24377654385 0.75 0 0.24377654385 0.7 0 0.24377654385 0.65 0 
0.24377654385 0.6 0 0.24377654385 0.55 0 0.24377654385 0.5 0 
0.24377654385 0.45 0 0.24377654385 0.4 0 0.24377654385 0.35 0 
0.24377654385 0.3 0 0.24377654385 0.25 0 0.24377654385 0.2 0 
0.24377654385 0.15 0 0.24377654385 0.1 0 0.24377654385 0.05 0 
0.24377654385 0 0 0.27653768798 1.5 0 0.27653768798 1.45 0 
0.27653768798 1.4 0 0.27653768798 1.35 0 0.27653768798 1.3 0 
0.27653768798 1.25 0 0.27653768798 1.2 0 0.27653768798 1.15 0 
0.27653768798 1.1 0 0.27653768798 1.05 0 0.27653768798 1 0 
0.27653768798 0.95 0 0.27653768798 0.9 0 0.27653768798 0.85 0 
0.27653768798 0.8 0 0.27653768798 0.75 0 0.27653768798 0.7 0 
0.27653768798 0.65 0 0.27653768798 0.6 0 0.27653768798 0.55 0 
0.27653768798 0.5 0 0.27653768798 0.45 0 0.27653768798 0.4 0 
0.27653768798 0.35 0 0.27653768798 0.3 0 0.27653768798 0.25 0 
0.27653768798 0.2 0 0.27653768798 0.15 0 0.27653768798 0.1 0 
0.27653768798 0.05 0 0.27653768798 0 0 0.31090870586 1.5 0 
0.31090870586 1.45 0 0.31090870586 1.4 0 0.31090870586 1.35 0 
0.31090870586 1.3 0 0.31090870586 1.25 0 0.31090870586 1.2 0 
0.31090870586 1.15 0 0.31090870586 1.1 0 0.31090870586 1.05 0 
0.31090870586 1 0 0.31090870586 0.95 0 0.31090870586 0.9 0 
0.31090870586 0.85 0 0.31090870586 0.8 0 0.31090870586 0.75 0 
0.31090870586 0.7 0 0.31090870586 0.65 0 0.31090870586 0.6 0 
0.31090870586 0.55 0 0.31090870586 0.5 0 0.31090870586 0.45 0 
0.31090870586 0.4 0 0.31090870586 0.35 0 0.31090870586 0.3 0 
0.31090870586 0.25 0 0.31090870586 0.2 0 0.31090870586 0.15 0 
0.31090870586 0.1 0 0.31090870586 0.05 0 0.31090870586 0 0 
0.34696870625 1.5 0 0.34696870625 1.45 0 0.34696870625 1.4 0 
0.34696870625 1.35 0 0.34696870625 1.3 0 0.34696870625 1.25 0 
0.34696870625 1.2 0 0.34696870625 1.15 0 0.34696870625 1.1 0 
0.34696870625 1.05 0 0.34696870625 1 0 0.34696870625 0.95 0 
0.34696870625 0.9 0 0.34696870625 0.85 0 0.34696870625 0.8 0 
0.34696870625 0.75 0 0.34696870625 0.7 0 0.34696870625 0.65 0 
0.34696870625 0.6 0 0.34696870625 0.55 0 0.34696870625 0.5 0 
0.34696870625 0.45 0 0.34696870625 0.4 0 0.34696870625 0.35 0 
0.34696870625 0.3 0 0.34696870625 0.25 0 0.34696870625 0.2 0 
0.34696870625 0.15 0 0.34696870625 0.1 0 0.34696870625 0.05 0 
0.34696870625 0 0 0.3848006853 1.5 0 0.3848006853 1.45 0 
0.3848006853 1.4 0 0.3848006853 1.35 0 0.3848006853 1.3 0 
0.3848006853 1.25 0 0.3848006853 1.2 0 0.3848006853 1.15 0 
0.3848006853 1.1 0 0.3848006853 1.05 0 0.3848006853 1 0 
0.3848006853 0.95 0 0.3848006853 0.9 0 0.3848006853 0.85 0 
0.3848006853 0.8 0 0.3848006853 0.75 0 0.3848006853 0.7 0 
0.3848006853 0.65 0 0.3848006853 0.6 0 0.3848006853 0.55 0 
0.3848006853 0.5 0 0.3848006853 0.45 0 0.3848006853 0.4 0 
0.3848006853 0.35 0 0.3848006853 0.3 0 0.3848006853 0.25 0 
0.3848006853 0.2 0 0.3848006853 0.15 0 0.3848006853 0.1 0 
0.3848006853 0.05 0 0.3848006853 0 0 0.42449171754 1.5 0 
0.42449171754 1.45 0 0.42449171754 1.4 0 0.42449171754 1.35 0 
0.42449171754 1.3 0 0.42449171754 1.25 0 0.42449171754 1.2 0 
0.42449171754 1.15 0 0.42449171754 1.1 0 0.42449171754 1.05 0 
0.42449171754 1 0 0.42449171754 0.95 0 0.42449171754 0.9 0 
0.42449171754 0.85 0 0.42449171754 0.8 0 0.42449171754 0.75 0 
0.42449171754 0.7 0 0.42449171754 0.65 0 0.42449171754 0.6 0 
0.42449171754 0.55 0 0.42449171754 0.5 0 0.42449171754 0.45 0 
0.42449171754 0.4 0 0.42449171754 0.35 0 0.42449171754 0.3 0 
0.42449171754 0.25 0 0.42449171754 0.2 0 0.42449171754 0.15 0 
0.42449171754 0.1 0 0.42449171754 0.05 0 0.42449171754 0 0 
0.46613315636 1.5 0 0.46613315636 1.45 0 0.46613315636 1.4 0 
0.46613315636 1.35 0 0.46613315636 1.3 0 0.46613315636 1.25 0 
0.46613315636 1.2 0 0.46613315636 1.15 0 0.46613315636 1.1 0 
0.46613315636 1.05 0 0.46613315636 1 0 0.46613315636 0.95 0 
0.46613315636 0.9 0 0.46613315636 0.85 0 0.46613315636 0.8 0 
0.46613315636 0.75 0 0.46613315636 0.7 0 0.46613315636 0.65 0 
0.46613315636 0.6 0 0.46613315636 0.55 0 0.46613315636 0.5 0 
0.46613315636 0.45 0 0.46613315636 0.4 0 0.46613315636 0.35 0 
0.46613315636 0.3 0 0.46613315636 0.25 0 0.46613315636 0.2 0 
0.46613315636 0.15 0 0.46613315636 0.1 0 0.46613315636 0.05 0 
0.46613315636 0 0 0.5098208442 1.5 0 0.5098208442 1.45 0 
0.5098208442 1.4 0 0.5098208442 1.35 0 0.5098208442 1.3 0 
0.5098208442 1.25 0 0.5098208442 1.2 0 0.5098208442 1.15 0 
0.5098208442 1.1 0 0.5098208442 1.05 0 0.5098208442 1 0 
0.5098208442 0.95 0 0.5098208442 0.9 0 0.5098208442 0.85 0 
0.5098208442 0.8 0 0.5098208442 0.75 0 0.5098208442 0.7 0 
0.5098208442 0.65 0 0.5098208442 0.6 0 0.5098208442 0.55 0 
0.5098208442 0.5 0 0.5098208442 0.45 0 0.5098208442 0.4 0 
0.5098208442 0.35 0 0.5098208442 0.3 0 0.5098208442 0.25 0 
0.5098208442 0.2 0 0.5098208442 0.15 0 0.5098208442 0.1 0 
0.5098208442 0.05 0 0.5098208442 0 0 0.55565533319 1.5 0 
0.55565533319 1.45 0 0.55565533319 1.4 0 0.55565533319 1.35 0 
0.55565533319 1.3 0 0.55565533319 1.25 0 0.55565533319 1.2 0 
0.55565533319 1.15 0 0.55565533319 1.1 0 0.55565533319 1.05 0 
0.55565533319 1 0 0.55565533319 0.95 0 0.55565533319 0.9 0 
0.55565533319 0.85 0 0.55565533319 0.8 0 0.55565533319 0.75 0 
0.55565533319 0.7 0 0.55565533319 0.65 0 0.55565533319 0.6 0 
0.55565533319 0.55 0 0.55565533319 0.5 0 0.55565533319 0.45 0 
0.55565533319 0.4 0 0.55565533319 0.35 0 0.55565533319 0.3 0 
0.55565533319 0.25 0 0.55565533319 0.2 0 0.55565533319 0.15 0 
0.55565533319 0.1 0 0.55565533319 0.05 0 0.55565533319 0 0 
0.60374211656 1.5 0 0.60374211656 1.45 0 0.60374211656 1.4 0 
0.60374211656 1.35 0 0.60374211656 1.3 0 0.60374211656 1.25 0 
0.60374211656 1.2 0 0.60374211656 1.15 0 0.60374211656 1.1 0 
0.60374211656 1.05 0 0.60374211656 1 0 0.60374211656 0.95 0 
0.60374211656 0.9 0 0.60374211656 0.85 0 0.60374211656 0.8 0 
0.60374211656 0.75 0 0.60374211656 0.7 0 0.60374211656 0.65 0 
0.60374211656 0.6 0 0.60374211656 0.55 0 0.60374211656 0.5 0 
0.60374211656 0.45 0 0.60374211656 0.4 0 0.60374211656 0.35 0 
0.60374211656 0.3 0 0.60374211656 0.25 0 0.60374211656 0.2 0 
0.60374211656 0.15 0 0.60374211656 0.1 0 0.60374211656 0.05 0 
0.60374211656 0 0 0.65419187143 1.5 0 0.65419187143 1.45 0 
0.65419187143 1.4 0 0.65419187143 1.35 0 0.65419187143 1.3 0 
0.65419187143 1.25 0 0.65419187143 1.2 0 0.65419187143 1.15 0 
[...]
CELL_DATA 4740
FIELD FieldData 7
B_Stress_n_p_m2 1 4740 float
0.427025 0.432091 0.437573 0.443631 0.450311 0.457689 0.465615 0.473616 0.480654 
0.484892 0.483328 0.469719 0.439998 0.399653 0.210512 0.0496938 0.0211947 0.0188358 
0.0151296 0.0134944 0.0126402 0.0121508 0.011874 0.0116859 0.011505 0.0112762 0.0109287 
0.0101569 0.0102248 0.00965467 0.413182 0.418091 0.423114 0.428526 0.434341 0.440671 
0.447426 0.45427 0.460437 0.464576 0.464452 0.455744 0.436471 0.409435 0.312954 
0.19518 0.119288 0.0727136 0.0532282 0.0415715 0.0335998 0.0279813 0.0238415 0.020689 
0.0181808 0.0160088 0.0141632 0.0115774 0.005399 0.0268982 0.398898 0.403626 0.408177 
0.412893 0.417772 0.422927 0.428292 0.433604 0.438265 0.441221 0.440709 0.433578 
0.418047 0.39249 0.322455 0.217212 0.142154 0.0979652 0.0718289 0.055231 0.0438221 
0.0355739 0.0294302 0.0247348 0.0210458 0.0180306 0.0154841 0.0127121 0.00898023 0.0146226 
0.384256 0.388783 0.392858 0.396853 0.40076 0.404671 0.408515 0.412055 0.414772 
0.415773 0.413559 0.405663 0.39008 0.362974 0.305056 0.22346 0.160073 0.116794 
0.087339 0.0675378 0.0535627 0.0433042 0.0355846 0.0296438 0.0249666 0.0211789 0.0180113 
0.0150411 0.0123038 0.0138429 0.369344 0.373658 0.377262 0.380535 0.383473 0.386133 
0.388427 0.390111 0.390704 0.389401 0.384893 0.375203 0.358365 0.330658 0.28229 
0.219874 0.166726 0.126192 0.0967674 0.0758752 0.0606516 0.0492796 0.0406196 0.0339044 
0.0286027 0.0243349 0.0208455 0.0178959 0.0156467 0.0161297 0.35426 0.358353 0.3615 
0.36408 0.366088 0.367553 0.368362 0.368263 0.366796 0.363232 0.356449 0.344883 
0.326856 0.299628 0.258777 0.209569 0.16524 0.129224 0.101701 0.0811654 0.0657068 
0.0539175 0.0448098 0.0376825 0.0320366 0.027518 0.0239038 0.0210539 0.019027 0.018665 
0.33911 0.342979 0.345697 0.34763 0.348785 0.349161 0.348632 0.346943 0.343669 
0.338166 0.329514 0.316528 0.297946 0.272075 0.237319 0.197613 0.160684 0.129391 
0.104384 0.084914 0.0697961 0.0580068 0.0487504 0.0414279 0.0355978 0.0309449 0.0272746 
0.0244786 0.0224987 0.0216694 0.324008 0.327654 0.329977 0.331332 0.331734 0.331167 
0.329502 0.326498 0.321777 0.314801 0.304857 0.291098 0.272687 0.248755 0.219067 
0.18646 0.155528 0.128468 0.106025 0.0879155 0.0734451 0.0619062 0.0526911 0.0453129 
0.0393981 0.0346738 0.0309688 0.0281781 0.0261767 0.0251789 0.309069 0.312497 0.314468 
0.315323 0.315092 0.313752 0.311182 0.30717 0.301399 0.293447 0.282792 0.268875 
0.251212 0.229479 0.204009 0.176805 0.150671 0.127239 0.107205 0.0905448 0.0768819 
0.0657516 0.0567104 0.049379 0.0434525 0.0387008 0.0349748 0.0321686 0.0301354 0.0290937 
0.294405 0.297623 0.299291 0.299734 0.298996 0.297059 0.29382 0.289105 0.282666 
0.27419 0.263325 0.249734 0.23319 0.213684 0.191724 0.168718 0.146438 0.126075 
0.108226 0.0930001 0.0802207 0.0696005 0.0608306 0.0536268 0.0477487 0.0430077 0.0392772 
0.0364553 0.0343996 0.0333486 0.280126 0.283145 0.28456 0.284679 0.283562 0.2812 
0.277516 0.272377 0.265602 0.256979 0.246287 0.233355 0.218125 0.200744 0.181723 
0.162055 0.142904 0.125134 0.109239 0.0953835 0.0835151 0.0734705 0.0650457 0.0580363 
0.0522597 0.0475663 0.0438524 0.0410252 0.0389598 0.0379043 0.266331 0.269165 0.270376 
0.270256 0.26888 0.266253 0.262323 0.256999 0.250162 0.24168 0.231436 0.219368 
0.205519 0.190099 0.173557 0.156604 0.14003 0.124465 0.11031 0.0977438 0.0867862 
0.0773585 0.0693351 0.0625766 0.0569495 0.0523402 0.048667 0.0458501 0.0437869 0.0427245 
0.25311 0.255771 0.256826 0.256546 0.255021 0.252268 0.248262 0.242948 0.23626 
0.228128 0.218509 0.207412 0.194933 0.181292 0.166863 0.152162 0.137743 0.12407 
0.111465 0.100103 0.0900389 0.0812515 0.0736718 0.067211 0.0617767 0.0572863 0.0536795 
0.0508905 0.0488402 0.047768 0.240536 0.24304 0.243982 0.243613 0.242032 0.239271 
0.235325 0.230174 0.223789 0.21615 0.207261 0.197174 0.186007 0.173966 0.161354 
0.148554 0.135964 0.123931 0.112712 0.102467 0.0932694 0.0851319 0.0780258 0.0719003 
0.066696 0.062357 0.0588417 0.0560986 0.0540712 0.0529873 0.22867 0.231032 0.231898 
0.231499 0.229941 0.227265 0.223487 0.21861 0.212636 0.205577 0.19747 0.188386 
0.178449 0.167842 0.156809 0.145636 0.134619 0.12402 0.114045 0.104834 0.0964684 
0.0889793 0.0823655 0.0766038 0.0716605 0.0675014 0.0641008 0.0614208 0.0594254 0.0583284 
0.217555 0.21979 0.220612 0.220233 0.218759 0.216241 0.212708 0.208182 0.202686 
0.196255 0.188941 0.180826 0.172028 0.162706 0.153053 0.143291 0.133641 0.124306 
0.115451 0.107197 0.0996231 0.0927719 0.0866589 0.0812805 0.0766222 0.0726664 0.0694008 
0.0667995 0.0648442 0.0637326 0.207221 0.209343 0.210147 0.209824 0.208481 0.206172 
0.202937 0.198811 0.193831 0.188042 0.181508 0.174311 0.166559 0.158387 0.149951 
0.141422 0.132972 0.124758 0.116914 0.109542 0.102718 0.0964865 0.0908742 0.0858902 
0.0815333 0.077799 0.0746849 0.0721753 0.0702666 0.0691391 0.197681 0.199703 0.200509 
0.20027 0.19909 0.197024 0.19412 0.190418 0.185965 0.180814 0.175029 0.168689 
0.161891 0.154749 0.14739 0.139948 0.132558 0.125344 0.118413 0.111855 0.105735 
0.1001 0.0949803 0.0903938 0.086348 0.0828475 0.079897 0.0774891 0.0756319 0.0744873 
0.188936 0.19087 0.191693 0.191556 0.190558 0.188755 0.186195 0.182926 0.178995 
0.174459 0.16938 0.163833 0.157902 0.151683 0.14528 0.138801 0.132352 0.126032 
0.119929 0.114117 0.108655 0.103588 0.0989477 0.0947546 0.0910228 0.0877625 0.0849833 
0.0826842 0.0808815 0.0797185 0.180974 0.182831 0.183681 0.183658 0.182851 0.181317 
0.179103 0.176258 0.172832 0.168878 0.164457 0.159636 0.15449 0.149098 0.143547 
0.137923 0.132312 0.126793 0.121439 0.116311 0.111462 0.10693 0.102749 0.098939 
0.0955179 0.092499 0.0898945 0.0877078 0.0859609 0.0847787 0.173774 0.175565 0.176449 
0.176542 0.175928 0.17466 0.172783 0.170346 0.167396 0.163986 0.160171 0.156011 
0.151571 0.14692 0.142127 0.137265 0.132401 0.1276 0.122923 0.11842 0.114135 
0.110105 0.106359 0.102917 0.0997984 0.097017 0.0945866 0.092513 0.0908216 0.0896197 
0.167307 0.16904 0.169961 0.170171 0.169745 0.168731 0.167175 0.165121 0.162615 
0.159705 0.156443 0.152881 0.149076 0.145085 0.140968 0.136782 0.132585 0.128428 
0.124361 0.120426 0.11666 0.113095 0.109756 0.106664 0.103834 0.101283 0.0990222 
0.09706 0.0954225 0.0942005 0.161538 0.16322 0.164179 0.164501 0.164253 0.163479 
0.162221 0.160522 0.158423 0.155969 0.153206 0.150181 0.146942 0.14354 0.140023 
0.13644 0.132836 0.129255 0.125736 0.122315 0.119022 0.115885 0.112924 0.110158 
0.107602 0.105269 0.103171 0.101317 0.0997303 0.0984883 0.156426 0.158064 0.15906 
0.159487 0.159404 0.158851 0.157867 0.15649 0.15476 0.152717 0.150401 0.147855 
0.145121 0.142241 0.139256 0.136206 0.133129 0.13006 0.127032 0.124074 0.12121 
0.118463 0.11585 0.113386 0.111085 0.108957 0.107012 0.105259 0.10372 0.102459 
0.151927 0.153528 0.154559 0.155082 0.155149 0.154797 0.15406 0.152973 0.151573 
0.149896 0.147978 0.145857 0.143568 0.141149 0.138633 0.136054 0.133443 0.130829 
0.128238 0.125694 0.123215 0.120821 0.118524 0.116337 0.11427 0.112332 0.11053 
0.108871 0.107377 0.106097 0.147998 0.149567 0.15063 0.151239 0.15144 0.151267 
0.150749 0.14992 0.148813 0.147459 0.145891 0.144143 0.142246 0.14023 0.138126 
0.135961 0.133761 0.131548 0.129345 0.127168 0.125034 0.122956 0.120945 0.119008 
0.117154 0.115389 0.113718 0.112147 0.110693 0.109395 0.144593 0.146134 0.147225 
0.14791 0.14823 0.148213 0.147888 0.147285 0.146433 0.145362 0.1441 0.142678 
0.141122 0.139459 0.137714 0.13591 0.134069 0.132209 0.130345 0.128494 0.126665 
0.124869 0.123112 0.1214 0.119739 0.11813 0.116578 0.115085 0.113667 0.112353 
0.141665 0.143182 0.144297 0.145048 0.145471 0.14559 0.145432 0.145025 0.144394 
0.143567 0.14257 0.141429 0.140168 0.13881 0.137376 0.135886 0.134357 0.132803 
0.131238 0.129671 0.12811 0.126563 0.125032 0.12352 0.122029 0.120561 0.119115 
0.117694 0.116308 0.11498 0.139169 0.140666 0.141802 0.142609 0.143119 0.143354 
0.143339 0.143098 0.142657 0.142039 0.141268 0.140368 0.13936 0.138264 0.137098 
0.135878 0.134617 0.133329 0.132021 0.130702 0.129376 0.128046 0.126713 0.125378 
0.124038 0.122694 0.121344 0.119986 0.118628 0.117287 0.137063 0.138542 0.139695 
0.140549 0.141132 0.141464 0.141569 0.141469 0.141187 0.140745 0.140166 0.13947 
0.138676 0.137803 0.136864 0.135875 0.134845 0.133784 0.132699 0.131593 0.13047 
0.129329 0.128169 0.126988 0.125781 0.124547 0.12328 0.121978 0.120646 0.119294 
0.135304 0.136768 0.137934 0.138826 0.139469 0.139881 0.140085 0.140101 0.139952 
0.139657 0.139238 0.138712 0.138099 0.137412 0.136666 0.135871 0.135037 0.13417 
0.133274 0.132351 0.131402 0.130424 0.129414 0.128367 0.127277 0.126138 0.124945 
0.123693 0.122383 0.121022 0.133853 0.135303 0.136479 0.137401 0.138092 0.138569 
0.138852 0.138963 0.138921 0.138747 0.138459 0.138075 0.13761 0.137079 0.136494 
0.135862 0.135192 0.134488 0.133753 0.132986 0.132186 0.131348 0.130467 0.129536 
0.128547 0.127492 0.126363 0.125154 0.123864 0.122496 0.132672 0.13411 0.135293 
0.136238 0.136965 0.137492 0.137838 0.138024 0.138069 0.137991 0.137809 0.13754 
0.137197 0.136794 0.13634 0.135844 0.135311 0.134744 0.134143 0.133508 0.132834 
0.132116 0.131345 0.130514 0.129612 0.12863 0.127558 0.126388 0.125116 0.123742 
0.131726 0.133154 0.134341 0.135302 0.136055 0.13662 0.137014 0.137257 0.137368 
0.137366 0.137268 0.13709 0.136845 0.136546 0.1362 0.135814 0.135394 0.13494 
0.134453 0.133928 0.133361 0.132744 0.132069 0.131324 0.130498 0.129579 0.128557 
0.127421 0.126166 0.124788 0.130985 0.132403 0.133591 0.134561 0.135333 0.135923 
0.136351 0.136636 0.136797 0.136852 0.136819 0.136712 0.136544 0.136327 0.136067 
0.135772 0.135444 0.135083 0.134689 0.134257 0.13378 0.13325 0.132655 0.131985 
0.131226 0.130364 0.129386 0.128281 0.127041 0.125661 0.130418 0.131829 0.133014 
0.133989 0.13477 0.135376 0.135825 0.136138 0.136334 0.13643 0.136445 0.136392 
0.136283 0.13613 0.135939 0.135715 0.135462 0.135178 0.134861 0.134506 0.134105 
0.133648 0.133124 0.132519 0.131818 0.131007 0.130069 0.128993 0.127768 0.126387 
0.130002 0.131404 0.132585 0.133558 0.134341 0.134953 0.135414 0.135742 0.13596 
0.136084 0.136132 0.136118 0.136054 0.135949 0.135811 0.135645 0.135451 0.135228 
0.134975 0.134684 0.134348 0.133955 0.133493 0.132945 0.132297 0.131531 0.130631 
0.129582 0.128371 0.126992 0.129712 0.131107 0.13228 0.133247 0.134026 0.134635 
0.135096 0.135431 0.135658 0.135798 0.135867 0.13588 0.135847 0.135779 0.135681 
0.135559 0.135412 0.13524 0.135039 0.134803 0.134522 0.134184 0.133776 0.133281 
0.132681 0.131958 0.131094 0.130071 0.128876 0.127499 0.129532 0.130918 0.132081 
0.133037 0.133804 0.134402 0.134856 0.135186 0.135414 0.135559 0.135639 0.135668 
0.135656 0.135614 0.135546 0.135458 0.135348 0.135217 0.13506 0.134869 0.134636 
0.134347 0.133988 0.133542 0.132988 0.132307 0.131478 0.130482 0.129303 0.12793 
0.129445 0.130822 0.131972 0.13291 0.133659 0.134239 0.134676 0.134994 0.135213 
0.135355 0.135437 0.135473 0.135475 0.135449 0.135404 0.135341 0.135261 0.135163 
0.135041 0.13489 0.134699 0.134455 0.134142 0.133742 0.133233 0.132594 0.131802 
0.130834 0.129673 0.128306 0.12944 0.130806 0.131939 0.132855 0.133577 0.134132 
0.134544 0.134841 0.135044 0.135176 0.135253 0.135289 0.135297 0.135282 0.135252 
0.135208 0.135151 0.135079 0.134988 0.134871 0.134718 0.134515 0.134247 0.133892 
0.13343 0.132835 0.132081 0.131145 0.130005 0.128645 0.129507 0.130862 0.131972 
0.132859 0.133548 0.134067 0.134447 0.134715 0.134896 0.135011 0.135077 0.135109 
0.135117 0.135108 0.135088 0.135058 0.135019 0.134969 0.134904 0.134817 0.134699 
0.134535 0.13431 0.134003 0.133589 0.133041 0.132331 0.131431 0.130315 0.128965 
0.129644 0.130983 0.132065 0.132914 0.13356 0.134036 0.134375 0.134607 0.134759 
0.134852 0.134903 0.134927 0.134932 0.134925 0.13491 0.13489 0.134865 0.134833 
0.13479 0.134731 0.134644 0.134519 0.134338 0.134079 0.133718 0.133223 0.132563 
0.131706 0.13062 0.129284 0.12985 0.13117 0.132215 0.133014 0.133605 0.134026 
0.134315 0.134505 0.134623 0.134691 0.134724 0.134737 0.134737 0.134729 0.134718 
0.134705 0.134691 0.134673 0.13465 0.134614 0.134558 0.134469 0.134333 0.134126 
0.133822 0.133389 0.132789 0.131984 0.130937 0.129618 0.13013 0.131424 0.132419 
0.133153 0.133674 0.134029 0.134259 0.1344 0.13448 0.13452 0.134535 0.134536 
0.134529 0.13452 0.134511 0.134503 0.134497 0.134491 0.134482 0.134467 0.134439 
0.134386 0.134294 0.134142 0.133903 0.133542 0.133015 0.132277 0.131281 0.129988 
0.130497 0.131754 0.132678 0.133325 0.133756 0.13403 0.134192 0.13428 0.134322 
0.134335 0.134332 0.134322 0.13431 0.134299 0.134291 0.134286 0.134286 0.134288 
0.134291 0.134293 0.134288 0.134268 0.13422 0.134125 0.133958 0.13368 0.133246 
0.132597 0.131672 0.130416 0.130982 0.132177 0.132994 0.133517 0.133834 0.134011 
0.134099 0.134134 0.134139 0.134129 0.134112 0.134095 0.134079 0.134068 0.134061 
0.134058 0.134061 0.134068 0.134079 0.134093 0.134105 0.134112 0.134104 0.134065 
0.133974 0.133795 0.133477 0.132952 0.132136 0.130941 0.131651 0.132724 0.133355 
0.133699 0.133868 0.133937 0.133953 0.133942 0.13392 0.133896 0.133873 0.133854 
0.13384 0.13383 0.133824 0.133823 0.133827 0.133835 0.133848 0.133866 0.133887 
0.13391 0.13393 0.13394 0.133923 0.133853 0.133683 0.13334 0.132708 0.131636 
0.132487 0.133267 0.133618 0.133758 0.133798 0.133795 0.133775 0.13375 0.133727 
0.133708 0.133692 0.13368 0.133672 0.133667 0.133664 0.133664 0.133666 0.133671 
0.133679 0.13369 0.133706 0.133725 0.133748 0.133772 0.133792 0.133795 0.133754 
0.133615 0.133263 0.132483 0.53316 0.538738 0.546212 0.554553 0.563328 0.571281 
0.576388 0.575437 0.563768 0.535124 0.48195 0.397258 0.275371 0.122304 0.020371 
262.535 202.558 164.142 148.708 145.987 148.905 153.625 158.302 161.976 
163.951 163.484 159.215 149.123 133.263 80.1239 0.520485 0.526097 0.533558 
0.542003 0.551132 0.559922 0.566641 0.568417 0.560904 0.53796 0.491736 0.413891 
0.293938 0.134852 0.0187164 280.806 208.148 166.879 150.91 148.281 151.547 
156.683 161.762 165.794 168.088 167.837 163.518 153.335 134.545 76.7952 
0.507521 0.513133 0.520505 0.528926 0.53822 0.547591 0.55561 0.559788 0.556193 
0.538988 0.500351 0.430833 0.315833 0.158844 0.011357 287.388 209.987 170.526 
155.169 152.742 156.135 161.371 166.549 170.679 173.062 172.81 168.127 
156.644 134.567 80.1068 0.49433 0.499909 0.507118 0.515389 0.524656 0.534335 
0.543295 0.549455 0.549372 0.537704 0.507061 0.447486 0.341353 0.191535 0.0438062 
313.032 215.277 178.06 162.825 159.782 162.395 166.907 171.518 175.227 
177.292 176.736 171.566 158.869 134.322 83.3071 0.480976 0.486492 0.493468 
0.501471 0.510524 0.520233 0.529744 0.537383 0.540238 0.533613 0.510882 0.461881 
0.365637 0.221827 0.05739 387.145 235.6 192.732 175.192 170.15 170.925 
173.876 177.275 180.071 181.462 180.436 175.001 162.258 137.689 85.2096 
0.467528 0.472954 0.479634 0.487265 0.49593 0.505397 0.515057 0.523619 0.528705 
0.526349 0.510798 0.471683 0.388434 0.273589 0.0161528 437.051 257.491 215.559 
193.595 184.586 182.166 182.608 184.108 185.475 185.814 184.114 178.586 
166.85 144.506 86.2225 0.454048 0.459367 0.465691 0.472864 0.480987 0.489964 
0.499385 0.508296 0.51483 0.515775 0.506248 0.476322 0.412358 0.34787 0.0690347 
472.867 287.916 248.886 217.549 202.103 195.108 192.199 191.226 190.729 
189.661 186.991 181.187 170.271 150.453 88.2855 0.44057 0.445769 0.45169 
0.458334 0.465788 0.474057 0.482885 0.491592 0.498769 0.501934 0.497137 0.476016 
0.431526 0.388203 0.180863 659.907 345.839 282.6 236.757 214.868 203.928 
198.324 195.45 193.552 191.423 188.013 181.962 170.642 153.596 99.0859 
0.208932 0.21051 0.211137 0.210829 0.209614 0.207519 0.204576 0.200821 0.1963 
0.191058 0.18515 0.178635 0.171574 0.164036 0.156092 0.147819 0.139298 0.130615 
0.12186 0.11313 0.104528 0.0961619 0.0881492 0.0806126 0.0736824 0.0674931 0.0621804 
0.057875 0.0546996 0.0527524 0.213317 0.214863 0.215429 0.215028 0.213682 0.211419 
0.208273 0.204282 0.199493 0.193957 0.187729 0.180872 0.173452 0.165539 0.157209 
0.148543 0.139623 0.13054 0.121387 0.112264 0.103275 0.094534 0.0861596 0.0782796 
0.0710292 0.0645503 0.0589877 0.0544829 0.0511661 0.0491421 0.216256 0.2178 0.218335 
0.217876 0.216445 0.214071 0.210789 0.206639 0.20167 0.195935 0.189492 0.182405 
0.174743 0.166578 0.15799 0.14906 0.139874 0.130523 0.121104 0.111717 0.102469 
0.093474 0.0848538 0.0767387 0.0692676 0.0625875 0.0568504 0.0522067 0.0487958 0.0467325 
0.219892 0.221437 0.221937 0.221408 0.219872 0.21736 0.213909 0.209561 0.204368 
0.198383 0.19167 0.184295 0.17633 0.167851 0.15894 0.149681 0.140165 0.130484 
0.120737 0.111028 0.101466 0.0921656 0.0832524 0.0748593 0.0671293 0.0602151 0.0542762 
0.0494729 0.0459566 0.0438539 0.223585 0.225131 0.225595 0.224992 0.223348 0.220694 
0.217068 0.212517 0.207092 0.200853 0.193864 0.186195 0.177922 0.169125 0.159888 
0.150299 0.140452 0.130442 0.120372 0.110345 0.100474 0.0908765 0.081679 0.073017 
0.065037 0.0578963 0.0517617 0.0468029 0.0431828 0.0410409 0.227494 0.229041 0.229466 
0.228786 0.227025 0.224219 0.220407 0.215638 0.209967 0.203456 0.196174 0.188193 
0.179593 0.170459 0.160878 0.150942 0.140747 0.130395 0.119987 0.109632 0.0994446 
0.0895437 0.0800576 0.0711239 0.0628919 0.0555233 0.0491913 0.0440749 0.0403493 0.0381674 
0.231566 0.233114 0.233498 0.232735 0.230853 0.227886 0.223878 0.21888 0.212951 
0.206155 0.198564 0.190258 0.181317 0.171832 0.161894 0.151599 0.141048 0.130343 
0.119592 0.108905 0.0983987 0.0881943 0.0784212 0.0692187 0.0607382 0.0531449 0.0466176 
0.0413444 0.0375127 0.0352903 0.235815 0.237363 0.237704 0.236854 0.234843 0.231707 
0.227493 0.222254 0.216052 0.208957 0.201045 0.192396 0.1831 0.173249 0.16294 
0.152274 0.141353 0.130287 0.119185 0.108161 0.0973335 0.0868249 0.0767664 0.0672983 
0.0585732 0.050759 0.0440393 0.0386105 0.0346724 0.0324088 0.240242 0.241791 0.242085 
0.241143 0.238996 0.235683 0.231251 0.22576 0.219273 0.211864 0.203614 0.194609 
0.184942 0.17471 0.164016 0.152964 0.141664 0.130228 0.118768 0.107402 0.0962503 
0.0854383 0.0750973 0.0653683 0.0564045 0.0483752 0.0414678 0.0358861 0.0318423 0.0295371 
0.244856 0.246404 0.24665 0.245611 0.243321 0.239821 0.235161 0.229404 0.222617 
0.21488 0.206276 0.196898 0.186844 0.176216 0.165122 0.153672 0.14198 0.130163 
0.118337 0.106625 0.0951478 0.0840333 0.0734136 0.0634296 0.0542345 0.0459979 0.0389094 
0.0331792 0.0290312 0.0266841 0.249667 0.251215 0.251409 0.250268 0.247827 0.24413 
0.239231 0.233194 0.226093 0.218011 0.209037 0.199269 0.18881 0.177769 0.166259 
0.154397 0.1423 0.130091 0.117893 0.105828 0.094024 0.0826083 0.0717145 0.061483 
0.0520658 0.0436317 0.0363712 0.0304987 0.0262493 0.0238608 0.254689 0.256237 0.256376 
0.255127 0.252527 0.248623 0.243471 0.23714 0.229709 0.221265 0.211903 0.201727 
0.190845 0.179373 0.16743 0.155139 0.142624 0.130013 0.117432 0.10501 0.092876 
0.0811609 0.0699981 0.0595277 0.0498996 0.0412804 0.0338593 0.0278536 0.0235073 0.0210782 
0.259937 0.261485 0.261566 0.260204 0.257436 0.253312 0.247894 0.241255 0.233476 
0.224651 0.214882 0.204278 0.192954 0.181032 0.168638 0.155901 0.142952 0.129925 
0.116952 0.104167 0.0917008 0.0796876 0.0682618 0.0575621 0.0477363 0.0389469 0.0313803 
0.0252531 0.0208168 0.0183488 0.265431 0.266978 0.266998 0.265515 0.26257 0.258216 
0.252517 0.245551 0.237407 0.228182 0.217985 0.206931 0.195143 0.18275 0.169885 
0.156684 0.143285 0.129829 0.116453 0.103296 0.0904946 0.0781849 0.066502 0.0555841 
0.0455754 0.0366339 0.02894 0.0227072 0.0181907 0.0156867 0.271193 0.272738 0.272693 
0.271082 0.26795 0.263351 0.257356 0.250047 0.241517 0.23187 0.221223 0.209696 
0.197422 0.184535 0.171177 0.157491 0.143625 0.129723 0.115932 0.102395 0.0892543 
0.0766486 0.0647149 0.0535903 0.0434157 0.0343429 0.0265445 0.0202265 0.0156434 0.0131082 
0.277245 0.278789 0.278675 0.276929 0.273598 0.268741 0.262433 0.254761 0.245823 
0.235733 0.22461 0.212587 0.199801 0.186395 0.172521 0.158329 0.143974 0.12961 