# vtk DataFile Version 5.1
vtk output
ASCII
DATASET UNSTRUCTURED_GRID
POINTS 9610 double
0.1016 1.5 0.22900000215 0.1016 1.45 0.20299999416 0.1016 1.4 0.19099999964 
0.1016 1.35 0.17299999297 0.1016 1.3 0.14800000191 0.1016 1.25 0.11999999732 
0.1016 1.2 0.10400000215 0.1016 1.15 0.093999996781 0.1016 1.1 0.078000001609 
0.1016 1.05 0.065999999642 0.1016 1 0.030999999493 0.1016 0.95 3.6517617466e-19 
0.1016 0.9 -1.9439354441e-19 0.1016 0.85 2.7747045729e-18 0.1016 0.8 -6.2414168658e-19 
0.1016 0.75 -4.8768079102e-18 0.1016 0.7 0.026555787772 0.1016 0.65 0.052741039544 
0.1016 0.6 0.076094537973 0.1016 0.55 0.097360961139 0.1016 0.5 0.12115270644 
0.1016 0.45 0.13974973559 0.1016 0.4 0.16143712401 0.1016 0.35 0.18807560205 
0.1016 0.3 0.21729597449 0.1016 0.25 0.24471183121 0.1016 0.2 0.26786640286 
0.1016 0.15 0.28401228786 0.1016 0.1 0.28726634383 0.1016 0.05 0.28563213348 
0.1016 0 0.28404605389 5.08 1.5 0.28700000048 5.08 1.45 0.28700000048 
5.08 1.4 0.28700000048 5.08 1.35 0.28700000048 5.08 1.3 0.28700000048 
5.08 1.25 0.28700000048 5.08 1.2 0.28700000048 5.08 1.15 0.28700000048 
5.08 1.1 0.28700000048 5.08 1.05 0.28700000048 5.08 1 0.28700000048 
5.08 0.95 0.28700000048 5.08 0.9 0.28700000048 5.08 0.85 0.28700000048 
5.08 0.8 0.28700000048 5.08 0.75 0.28700000048 5.08 0.7 0.28700000048 
5.08 0.65 0.28700000048 5.08 0.6 0.28700000048 5.08 0.55 0.28700000048 
5.08 0.5 0.28700000048 5.08 0.45 0.28700000048 5.08 0.4 0.28700000048 
5.08 0.35 0.28700000048 5.08 0.3 0.28700000048 5.08 0.25 0.28700000048 
5.08 0.2 0.28700000048 5.08 0.15 0.28700000048 5.08 0.1 0.28700000048 
5.08 0.05 0.28700000048 5.08 0 0.28700000048 0.151384 1.5 0.25548246503 
0.151384 1.45 0.21771757305 0.151384 1.4 0.19393458962 0.151384 1.35 0.18182149529 
0.151384 1.3 0.16171447933 0.151384 1.25 0.13174422085 0.151384 1.2 0.11475972086 
0.151384 1.15 0.098858818412 0.151384 1.1 0.083897151053 0.151384 1.05 0.077785395086 
0.151384 1 0.059434112161 0.151384 0.95 0.037184357643 0.151384 0.9 0.011686439626 
0.151384 0.85 0.0097771659493 0.151384 0.8 0.0088634565473 0.151384 0.75 0.0138260331 
0.151384 0.7 0.030878979713 0.151384 0.65 0.033309236169 0.151384 0.6 0.059231061488 
0.151384 0.55 0.075378589332 0.151384 0.5 0.10721009225 0.151384 0.45 0.12130898237 
0.151384 0.4 0.14622949064 0.151384 0.35 0.17520408332 0.151384 0.3 0.20815727115 
0.151384 0.25 0.23910684884 0.151384 0.2 0.26604658365 0.151384 0.15 0.28988912702 
0.151384 0.1 0.28997051716 0.151384 0.05 0.28894609213 0.151384 0 0.28793302178 
0.201168 1.5 0.26660960913 0.201168 1.45 0.23144552112 0.201168 1.4 0.2035741508 
0.201168 1.35 0.19158862531 0.201168 1.3 0.17352417111 0.201168 1.25 0.15311914682 
0.201168 1.2 0.12461434305 0.201168 1.15 0.11048840731 0.201168 1.1 0.087852068245 
0.201168 1.05 0.085689172149 0.201168 1 0.073578000069 0.201168 0.95 0.059250213206 
0.201168 0.9 0.039833985269 0.201168 0.85 0.022337237373 0.201168 0.8 0.015556176193 
0.201168 0.75 0.018686257303 0.201168 0.7 0.025092573836 0.201168 0.65 0.039587557316 
0.201168 0.6 0.056876797229 0.201168 0.55 0.077723070979 0.201168 0.5 0.098194487393 
0.201168 0.45 0.12278538942 0.201168 0.4 0.1468308121 0.201168 0.35 0.17586292326 
0.201168 0.3 0.20409785211 0.201168 0.25 0.23508478701 0.201168 0.2 0.26598536968 
0.201168 0.15 0.28808555007 0.201168 0.1 0.28909277916 0.201168 0.05 0.28997689486 
0.201168 0 0.28991395235 0.250952 1.5 0.27831569314 0.250952 1.45 0.24978412688 
0.250952 1.4 0.21701996028 0.250952 1.35 0.19942364097 0.250952 1.3 0.18717110157 
0.250952 1.25 0.16708423197 0.250952 1.2 0.13992658257 0.250952 1.15 0.11927233636 
0.250952 1.1 0.1019846797 0.250952 1.05 0.090635582805 0.250952 1 0.084387294948 
0.250952 0.95 0.072282664478 0.250952 0.9 0.062650695443 0.250952 0.85 0.053884357214 
0.250952 0.8 0.050497978926 0.250952 0.75 0.046913091093 0.250952 0.7 0.051909390837 
0.250952 0.65 0.052943453193 0.250952 0.6 0.072782717645 0.250952 0.55 0.090047903359 
0.250952 0.5 0.10995861143 0.250952 0.45 0.13314002752 0.250952 0.4 0.15626978874 
0.250952 0.35 0.18332391977 0.250952 0.3 0.20754930377 0.250952 0.25 0.24422630668 
0.250952 0.2 0.2696903944 0.250952 0.15 0.28699183464 0.250952 0.1 0.28711795807 
0.250952 0.05 0.28812769055 0.250952 0 0.29474538565 0.300736 1.5 0.27919092774 
0.300736 1.45 0.26860359311 0.300736 1.4 0.24732969701 0.300736 1.35 0.2181879878 
0.300736 1.3 0.19804283977 0.300736 1.25 0.19012194872 0.300736 1.2 0.16588921845 
0.300736 1.15 0.14377075434 0.300736 1.1 0.124908939 0.300736 1.05 0.10366753489 
0.300736 1 0.090384081006 0.300736 0.95 0.084990285337 0.300736 0.9 0.081678874791 
0.300736 0.85 0.081227116287 0.300736 0.8 0.084587179124 0.300736 0.75 0.077773310244 
0.300736 0.7 0.082569949329 0.300736 0.65 0.085176624358 0.300736 0.6 0.096743732691 
0.300736 0.55 0.11284460872 0.300736 0.5 0.13747346401 0.300736 0.45 0.15589466691 
0.300736 0.4 0.17617492378 0.300736 0.35 0.20225429535 0.300736 0.3 0.2309551388 
0.300736 0.25 0.25510028005 0.300736 0.2 0.27830174565 0.300736 0.15 0.2860994339 
0.300736 0.1 0.28703212738 0.300736 0.05 0.28804808855 0.300736 0 0.29046931863 
0.35052 1.5 0.2763197422 0.35052 1.45 0.27390018106 0.35052 1.4 0.27108204365 
0.35052 1.35 0.2434733361 0.35052 1.3 0.22044543922 0.35052 1.25 0.19734691083 
0.35052 1.2 0.1816008538 0.35052 1.15 0.16859471798 0.35052 1.1 0.15036398172 
0.35052 1.05 0.13000786304 0.35052 1 0.10883059353 0.35052 0.95 0.096701800823 
0.35052 0.9 0.089349672198 0.35052 0.85 0.089532904327 0.35052 0.8 0.097222469747 
0.35052 0.75 0.099302947521 0.35052 0.7 0.10326877236 0.35052 0.65 0.11618859321 
0.35052 0.6 0.12797355652 0.35052 0.55 0.14669695497 0.35052 0.5 0.16368094087 
0.35052 0.45 0.18243604898 0.35052 0.4 0.19875848293 0.35052 0.35 0.22291512787 
0.35052 0.3 0.24387013912 0.35052 0.25 0.26860925555 0.35052 0.2 0.28174042702 
0.35052 0.15 0.28333061934 0.35052 0.1 0.28431043029 0.35052 0.05 0.28440338373 
0.35052 0 0.28813710809 0.400304 1.5 0.27596959472 0.400304 1.45 0.2749607265 
0.400304 1.4 0.27150002122 0.400304 1.35 0.2665489614 0.400304 1.3 0.24491091073 
0.400304 1.25 0.22137719393 0.400304 1.2 0.20471307635 0.400304 1.15 0.18948663771 
0.400304 1.1 0.17684435844 0.400304 1.05 0.15931999683 0.400304 1 0.13011240959 
0.400304 0.95 0.11687117815 0.400304 0.9 0.10534438491 0.400304 0.85 0.10362927616 
0.400304 0.8 0.10557885468 0.400304 0.75 0.10791314393 0.400304 0.7 0.11992906779 
0.400304 0.65 0.13156862557 0.400304 0.6 0.14801946282 0.400304 0.55 0.16424524784 
0.400304 0.5 0.17667755485 0.400304 0.45 0.20172268152 0.400304 0.4 0.2204643786 
0.400304 0.35 0.24340386689 0.400304 0.3 0.26349073648 0.400304 0.25 0.28070318699 
0.400304 0.2 0.28298985958 0.400304 0.15 0.28296864033 0.400304 0.1 0.28301590681 
0.400304 0.05 0.28392329812 0.400304 0 0.28706213832 0.450088 1.5 0.27517530322 
0.450088 1.45 0.27409830689 0.450088 1.4 0.27360868454 0.450088 1.35 0.27368620038 
0.450088 1.3 0.26995643973 0.450088 1.25 0.24934217334 0.450088 1.2 0.23122142255 
0.450088 1.15 0.21010631323 0.450088 1.1 0.19908170402 0.450088 1.05 0.18560349941 
0.450088 1 0.16742931306 0.450088 0.95 0.14978966117 0.450088 0.9 0.13700576127 
0.450088 0.85 0.1306078434 0.450088 0.8 0.12951956689 0.450088 0.75 0.13245040178 
0.450088 0.7 0.14371705055 0.450088 0.65 0.1470849067 0.450088 0.6 0.16847275198 
0.450088 0.55 0.18621490896 0.450088 0.5 0.20081664622 0.450088 0.45 0.22420862317 
0.450088 0.4 0.24175772071 0.450088 0.35 0.26336741447 0.450088 0.3 0.27764496207 
0.450088 0.25 0.28054988384 0.450088 0.2 0.28134584427 0.450088 0.15 0.28216964006 
0.450088 0.1 0.28389003873 0.450088 0.05 0.28408393264 0.450088 0 0.28709822893 
0.499872 1.5 0.27486619353 0.499872 1.45 0.27473065257 0.499872 1.4 0.27397924662 
0.499872 1.35 0.27411240339 0.499872 1.3 0.27344253659 0.499872 1.25 0.27120310068 
0.499872 1.2 0.25526311994 0.499872 1.15 0.23453326523 0.499872 1.1 0.22007915378 
0.499872 1.05 0.20163099468 0.499872 1 0.1936019659 0.499872 0.95 0.18637785316 
0.499872 0.9 0.16830679774 0.499872 0.85 0.1596314162 0.499872 0.8 0.16633570194 
0.499872 0.75 0.16700448096 0.499872 0.7 0.17588378489 0.499872 0.65 0.18450556695 
0.499872 0.6 0.19712363183 0.499872 0.55 0.21280293167 0.499872 0.5 0.23144762218 
0.499872 0.45 0.25034290552 0.499872 0.4 0.27068120241 0.499872 0.35 0.27403429151 
0.499872 0.3 0.27752876282 0.499872 0.25 0.27915772796 0.499872 0.2 0.28095164895 
0.499872 0.15 0.28117904067 0.499872 0.1 0.2823472023 0.499872 0.05 0.283133775 
0.499872 0 0.28267818689 0.549656 1.5 0.27905589342 0.549656 1.45 0.27739539742 
0.549656 1.4 0.27716335654 0.549656 1.35 0.2754650712 0.549656 1.3 0.27541878819 
0.549656 1.25 0.27598252892 0.549656 1.2 0.27277562022 0.549656 1.15 0.26825064421 
0.549656 1.1 0.25015541911 0.549656 1.05 0.2287967205 0.549656 1 0.21471834183 
0.549656 0.95 0.21412505209 0.549656 0.9 0.19447152317 0.549656 0.85 0.186214149 
0.549656 0.8 0.18128237128 0.549656 0.75 0.18233565986 0.549656 0.7 0.19556975365 
0.549656 0.65 0.20678167045 0.549656 0.6 0.2201141715 0.549656 0.55 0.23337820172 
0.549656 0.5 0.24639096856 0.549656 0.45 0.26026913524 0.549656 0.4 0.27635207772 
0.549656 0.35 0.27614206076 0.549656 0.3 0.27691322565 0.549656 0.25 0.27816385031 
0.549656 0.2 0.27936944366 0.549656 0.15 0.28016901016 0.549656 0.1 0.28113365173 
0.549656 0.05 0.28298175335 0.549656 0 0.28607988358 0.59944 1.5 0.28169769049 
0.59944 1.45 0.28049808741 0.59944 1.4 0.28048720956 0.59944 1.35 0.27926135063 
0.59944 1.3 0.27763170004 0.59944 1.25 0.27757111192 0.59944 1.2 0.27699941397 
0.59944 1.15 0.27649977803 0.59944 1.1 0.27305525541 0.59944 1.05 0.26361721754 
0.59944 1 0.24797138572 0.59944 0.95 0.23858621716 0.59944 0.9 0.22442731261 
0.59944 0.85 0.21371160448 0.59944 0.8 0.2038282603 0.59944 0.75 0.20253993571 
0.59944 0.7 0.20797452331 0.59944 0.65 0.21527686715 0.59944 0.6 0.22611013055 
0.59944 0.55 0.23811396956 0.59944 0.5 0.25648590922 0.59944 0.45 0.27210789919 
[...]
CELL_DATA 9270
FIELD FieldData 7
B_Stress_n_p_m2 1 9270 float
0.218188 0.276005 0.287689 0.286847 0.279761 0.273906 0.271655 0.270357 0.274073 
0.278295 0.277336 0.274467 0.27651 0.280905 0.282831 0.226536 0.161696 0.126496 
0.103546 0.0874385 0.0751337 0.0659154 0.0594482 0.0546624 0.051221 0.0489425 0.0477099 
0.0447619 0.0391692 0.0276868 0.222793 0.278448 0.283973 0.283499 0.277569 0.268341 
0.262434 0.258227 0.257498 0.258823 0.257275 0.252406 0.241921 0.232212 0.213096 
0.172802 0.138777 0.11296 0.0950194 0.0808872 0.0706208 0.0621309 0.0562552 0.0513907 
0.0478785 0.0447095 0.0412106 0.035381 0.0260773 0.00948629 0.234438 0.289778 0.287736 
0.283556 0.278384 0.26956 0.258464 0.252372 0.24679 0.245014 0.242 0.2369 
0.228957 0.216877 0.198293 0.171215 0.144764 0.124757 0.108507 0.0966173 0.0867587 
0.0799844 0.0748773 0.0713485 0.0683538 0.0655729 0.0603253 0.0510418 0.0369819 0.017207 
0.249124 0.31201 0.304597 0.289826 0.281745 0.273569 0.262893 0.252429 0.243966 
0.235923 0.230762 0.224468 0.217521 0.207314 0.191205 0.169932 0.150271 0.132792 
0.120059 0.109502 0.101183 0.0948971 0.09084 0.0881069 0.0857962 0.0824042 0.0742175 
0.0615455 0.0435462 0.0202143 0.254224 0.326575 0.330265 0.308047 0.288725 0.27915 
0.269694 0.259506 0.248363 0.235001 0.224602 0.2164 0.208689 0.199447 0.187274 
0.172138 0.158103 0.145741 0.134997 0.12595 0.119535 0.114035 0.111073 0.109516 
0.107811 0.101341 0.0906947 0.0747397 0.0538116 0.027471 0.255234 0.328363 0.34505 
0.332356 0.310188 0.290874 0.278135 0.268804 0.257254 0.242689 0.228075 0.216768 
0.206803 0.196641 0.186094 0.175658 0.164713 0.156936 0.148847 0.1421 0.136949 
0.134142 0.133226 0.132685 0.128172 0.11981 0.10616 0.0883449 0.0650492 0.0353589 
0.255371 0.328512 0.345413 0.348806 0.335929 0.314502 0.294854 0.279748 0.267591 
0.255903 0.241038 0.227916 0.216771 0.207297 0.196951 0.18751 0.179327 0.172309 
0.167027 0.162413 0.158937 0.158904 0.157537 0.154678 0.14724 0.135768 0.120562 
0.102411 0.0775564 0.0445072 0.256155 0.328322 0.344962 0.349837 0.351476 0.339751 
0.32121 0.299302 0.281362 0.268452 0.258521 0.244184 0.232519 0.223016 0.214658 
0.20767 0.201721 0.19508 0.190959 0.187494 0.185697 0.185119 0.180151 0.172283 
0.161593 0.148091 0.133655 0.115788 0.0904774 0.0543063 0.259628 0.331304 0.346443 
0.349762 0.351949 0.353407 0.346661 0.330677 0.309835 0.289658 0.276859 0.263443 
0.248539 0.236062 0.22844 0.222439 0.21835 0.215038 0.21086 0.208276 0.207126 
0.202982 0.196481 0.184101 0.171714 0.159436 0.146231 0.129043 0.10338 0.0648403 
0.262796 0.333615 0.348686 0.350278 0.351184 0.352718 0.352885 0.351141 0.340567 
0.323409 0.305306 0.28968 0.27197 0.256701 0.243814 0.235467 0.230476 0.227155 
0.22588 0.224907 0.22212 0.214893 0.205086 0.193092 0.18159 0.170516 0.158269 
0.14205 0.116238 0.0749733 0.262271 0.332478 0.34694 0.348743 0.34865 0.349361 
0.34954 0.349228 0.349137 0.344416 0.333745 0.319419 0.304735 0.28968 0.275231 
0.26394 0.254738 0.248662 0.245681 0.242054 0.235887 0.226093 0.212987 0.201747 
0.191166 0.181188 0.169955 0.154695 0.128975 0.0852807 0.262116 0.331852 0.345776 
0.347942 0.347902 0.34826 0.348916 0.348454 0.347991 0.347647 0.344552 0.339926 
0.33214 0.323643 0.313629 0.302697 0.291771 0.281435 0.271389 0.26228 0.250092 
0.235965 0.223168 0.212182 0.202331 0.19296 0.182498 0.168098 0.14247 0.0964332 
0.264536 0.334264 0.348806 0.351141 0.351531 0.351701 0.351975 0.352113 0.351616 
0.350939 0.348914 0.347093 0.344422 0.340214 0.334514 0.326596 0.316489 0.305029 
0.291863 0.27697 0.261998 0.248127 0.235947 0.225432 0.215961 0.206804 0.196893 
0.182945 0.157557 0.108879 0.265174 0.334849 0.349391 0.351886 0.352416 0.352426 
0.352233 0.351997 0.351444 0.350435 0.349007 0.346467 0.34376 0.339524 0.334035 
0.326868 0.317954 0.307561 0.295583 0.28213 0.26889 0.256755 0.24573 0.235838 
0.226879 0.218453 0.209218 0.196188 0.171191 0.120406 0.262743 0.331762 0.345891 
0.348118 0.348334 0.348102 0.347649 0.346979 0.345976 0.344608 0.342911 0.340183 
0.336816 0.3323 0.326669 0.319789 0.311734 0.302541 0.292336 0.281492 0.270551 
0.26009 0.250443 0.241646 0.233656 0.226202 0.218 0.206149 0.182026 0.12978 
0.259695 0.328081 0.341865 0.3438 0.34372 0.343251 0.342548 0.341603 0.340327 
0.338658 0.336536 0.33369 0.330179 0.325772 0.320445 0.314139 0.306896 0.298794 
0.289979 0.280725 0.271428 0.262462 0.25407 0.246366 0.239345 0.232796 0.225592 
0.214852 0.19167 0.138194 0.256648 0.324505 0.338013 0.339739 0.339446 0.338784 
0.337882 0.33673 0.335252 0.333391 0.331078 0.328173 0.324651 0.320404 0.315404 
0.309634 0.303136 0.295993 0.288343 0.280399 0.272428 0.264694 0.257394 0.250659 
0.244506 0.238782 0.232467 0.222739 0.200446 0.14591 0.253648 0.321021 0.334304 
0.335872 0.335423 0.334614 0.333565 0.332269 0.33066 0.32869 0.326296 0.323401 
0.319967 0.315935 0.31129 0.306035 0.300212 0.293902 0.287223 0.280341 0.273452 
0.266751 0.260398 0.254518 0.24914 0.244152 0.238629 0.229816 0.208369 0.152942 
0.250761 0.317674 0.330768 0.332218 0.331658 0.330745 0.329595 0.328208 0.326526 
0.324511 0.322113 0.319283 0.315989 0.312201 0.307914 0.30314 0.297924 0.292336 
0.286479 0.280482 0.274495 0.268668 0.263131 0.258 0.253306 0.248969 0.244142 
0.236149 0.215507 0.159343 0.248022 0.314489 0.327418 0.328779 0.328144 0.327162 
0.325951 0.324517 0.322808 0.320797 0.318444 0.315718 0.312597 0.309065 0.305126 
0.300798 0.296124 0.291166 0.28601 0.28076 0.275534 0.270451 0.26562 0.261141 
0.257047 0.25328 0.249065 0.241805 0.221922 0.165159 0.245457 0.31148 0.324261 
0.325557 0.324875 0.323855 0.322615 0.321167 0.319467 0.317495 0.31522 0.312624 
0.309691 0.306418 0.302811 0.298892 0.294702 0.290294 0.285741 0.28113 0.276552 
0.272108 0.267885 0.263974 0.260404 0.257135 0.253455 0.246847 0.22768 0.17044 
0.243077 0.308658 0.321301 0.322549 0.321842 0.320806 0.319563 0.318128 0.316463 
0.314555 0.312381 0.30993 0.307192 0.304171 0.300876 0.297332 0.293572 0.289648 
0.285618 0.281556 0.277536 0.273641 0.269945 0.266527 0.263414 0.260578 0.257364 
0.251337 0.232842 0.175234 0.240891 0.306026 0.318537 0.319749 0.319033 0.318001 
0.316774 0.315372 0.313761 0.311935 0.309874 0.307575 0.305032 0.302253 0.29925 
0.296045 0.292672 0.289172 0.285599 0.282011 0.278473 0.275053 0.271814 0.268826 
0.266111 0.26365 0.260842 0.255332 0.237468 0.179588 0.238898 0.303581 0.315965 
0.31715 0.316438 0.315424 0.314227 0.312872 0.311328 0.309594 0.307654 0.305509 
0.303157 0.300608 0.297874 0.294978 0.291949 0.288825 0.285651 0.282477 0.279357 
0.276349 0.273507 0.270892 0.268523 0.266389 0.263934 0.258884 0.241613 0.183547 
0.237097 0.30132 0.313576 0.314741 0.314044 0.313056 0.311901 0.310603 0.309135 
0.307498 0.305682 0.303689 0.301521 0.299187 0.296701 0.294085 0.291364 0.288573 
0.285749 0.282937 0.280182 0.277533 0.275036 0.272746 0.270679 0.268828 0.266682 
0.262041 0.245327 0.18715 0.235483 0.299235 0.311364 0.312513 0.311836 0.310884 
0.309776 0.308541 0.307154 0.305618 0.303925 0.30208 0.300086 0.297953 0.295695 
0.293332 0.290888 0.288392 0.285877 0.283382 0.280945 0.27861 0.276414 0.274407 
0.272603 0.270998 0.26912 0.264846 0.248656 0.190437 0.234048 0.29732 0.309319 
0.310455 0.309803 0.30889 0.307835 0.306666 0.305362 0.303927 0.302355 0.300651 
0.298821 0.296875 0.294825 0.292691 0.290494 0.288261 0.286019 0.283803 0.281645 
0.279584 0.277652 0.275893 0.274318 0.272927 0.271283 0.267337 0.251642 0.19344 
0.232784 0.295564 0.30743 0.308555 0.307931 0.30706 0.30606 0.30496 0.303738 
0.302402 0.300946 0.299377 0.2977 0.295926 0.294067 0.292141 0.290166 0.288166 
0.286166 0.284196 0.282283 0.280463 0.278761 0.277218 0.275843 0.274639 0.2732 
0.269548 0.254321 0.19619 0.231683 0.293958 0.305688 0.306802 0.306207 0.30538 
0.304436 0.303403 0.302263 0.301023 0.299678 0.298236 0.296702 0.295086 0.293401 
0.291662 0.289886 0.288094 0.286309 0.284556 0.28286 0.281251 0.279751 0.278397 
0.277198 0.276156 0.274897 0.27151 0.256727 0.198716 0.230735 0.292492 0.304083 
0.305185 0.304621 0.303837 0.302949 0.301983 0.300922 0.299772 0.298533 0.297209 
0.295808 0.294338 0.29281 0.29124 0.289643 0.288038 0.286443 0.284883 0.283378 
0.281954 0.280632 0.279445 0.278399 0.277498 0.276396 0.273249 0.25889 0.201041 
0.22993 0.291157 0.302603 0.303694 0.303159 0.302419 0.301586 0.300684 0.299698 
0.298636 0.297494 0.296282 0.295002 0.293666 0.292282 0.290865 0.289429 0.287989 
0.286565 0.285175 0.283838 0.282578 0.281413 0.280372 0.27946 0.278683 0.27772 
0.274791 0.260835 0.203189 0.229259 0.289941 0.30124 0.302318 0.301813 0.301115 
0.300334 0.299493 0.298579 0.297599 0.29655 0.29544 0.294273 0.293058 0.291805 
0.290527 0.289234 0.287944 0.28667 0.285432 0.284245 0.28313 0.282103 0.281189 
0.280396 0.279728 0.278887 0.276156 0.262587 0.205179 0.228712 0.288837 0.299985 
0.301049 0.300571 0.299914 0.299183 0.298401 0.297555 0.296651 0.295688 0.294672 
0.293608 0.292505 0.291371 0.290217 0.289055 0.287897 0.286759 0.285655 0.2846 
0.283614 0.282708 0.281908 0.281219 0.280646 0.279913 0.277363 0.264166 0.207028 
0.228281 0.287835 0.298828 0.299876 0.299425 0.298806 0.298123 0.297396 0.296614 
0.295781 0.294898 0.293969 0.293 0.291998 0.290972 0.289931 0.288885 0.287847 
0.286829 0.285845 0.284908 0.284035 0.283237 0.282537 0.281939 0.28145 0.280813 
0.27843 0.26559 0.208753 0.227957 0.286927 0.297761 0.298793 0.298367 0.297784 
0.297146 0.29647 0.295747 0.294981 0.294171 0.293323 0.29244 0.291531 0.290602 
0.289663 0.288722 0.287791 0.286881 0.286004 0.285171 0.284399 0.283696 0.283084 
0.282568 0.282153 0.2816 0.27937 0.266876 0.210367 0.227731 0.286105 0.296776 
0.29779 0.297387 0.296839 0.296243 0.295616 0.294947 0.294242 0.2935 0.292725 
0.291922 0.291097 0.290257 0.289409 0.288563 0.287728 0.286914 0.286132 0.285393 
0.28471 0.284092 0.283558 0.283113 0.282763 0.282286 0.280197 0.268039 0.211882 
0.227595 0.285361 0.295867 0.296861 0.29648 0.295964 0.295407 0.294824 0.294207 
0.293559 0.292879 0.292171 0.29144 0.290692 0.289931 0.289167 0.288406 0.287657 
0.286929 0.286232 0.285576 0.284972 0.28443 0.283965 0.283583 0.283291 0.282882 
0.280924 0.269092 0.213311 0.227541 0.284691 0.295028 0.296 0.295639 0.295152 
0.294631 0.29409 0.29352 0.292924 0.292301 0.291655 0.29099 0.29031 0.289623 
0.288933 0.288248 0.287577 0.286926 0.286306 0.285723 0.285191 0.284715 0.284312 
0.283986 0.283744 0.283396 0.28156 0.270045 0.214662 0.227556 0.284094 0.29425 
0.2952 0.294857 0.294397 0.29391 0.293408 0.292881 0.292332 0.291761 0.291172 
0.290566 0.28995 0.289328 0.288706 0.28809 0.287488 0.286907 0.286354 0.285838 
0.285369 0.284952 0.284604 0.284328 0.284131 0.283836 0.282114 0.27091 0.215946 
0.227635 0.283562 0.29353 0.294455 0.294129 0.293694 0.293238 0.292771 0.292284 
0.291779 0.291256 0.290718 0.290167 0.289608 0.289045 0.288484 0.28793 0.287391 
0.286871 0.28638 0.285923 0.285509 0.285146 0.284846 0.284614 0.284458 0.284212 
0.282596 0.271695 0.217168 0.227773 0.283091 0.292862 0.293761 0.29345 0.293038 
0.292611 0.292176 0.291726 0.291261 0.290781 0.29029 0.289788 0.289281 0.288772 
0.288266 0.287768 0.287285 0.286821 0.286384 0.28598 0.285617 0.285301 0.285044 
0.284852 0.284731 0.284528 0.283013 0.272408 0.218338 0.227965 0.282674 0.29224 
0.293113 0.292815 0.292425 0.292024 0.291619 0.291202 0.290773 0.290333 0.289884 
0.289428 0.288967 0.288507 0.288051 0.287603 0.28717 0.286756 0.286369 0.286011 
0.285693 0.285419 0.285202 0.285044 0.284955 0.284791 0.283371 0.273057 0.21946 
0.228207 0.282305 0.291662 0.292506 0.29222 0.29185 0.291473 0.291095 0.290708 
0.290313 0.289909 0.289499 0.289083 0.288665 0.288248 0.287837 0.287435 0.287048 
0.286679 0.286335 0.28602 0.285742 0.285506 0.285322 0.285196 0.285135 0.285007 
0.283676 0.273649 0.22054 0.228494 0.281979 0.291124 0.291937 0.291662 0.291309 
0.290954 0.290601 0.290242 0.289877 0.289507 0.289131 0.288752 0.288373 0.287996 
0.287625 0.287264 0.286917 0.286589 0.286284 0.286007 0.285765 0.285563 0.28541 
0.285311 0.285276 0.28518 0.283933 0.274188 0.221585 0.228824 0.281692 0.290621 
0.291403 0.291136 0.2908 0.290465 0.290134 0.289801 0.289464 0.289123 0.288779 
0.288434 0.288089 0.287748 0.287414 0.28709 0.28678 0.286487 0.286218 0.285975 
0.285765 0.285593 0.285468 0.285394 0.285381 0.285314 0.284147 0.27468 0.222597 
0.229193 0.28144 0.290151 0.290899 0.29064 0.290319 0.290002 0.289692 0.289382 
0.28907 0.288756 0.288441 0.288126 0.287813 0.287504 0.287203 0.286912 0.286635 
0.286375 0.286138 0.285925 0.285745 0.285599 0.285498 0.285447 0.285454 0.285414 
0.284323 0.27513 0.223582 0.229598 0.281219 0.28971 0.290423 0.290171 0.289863 
0.289564 0.289272 0.288983 0.288693 0.288405 0.288115 0.287828 0.287543 0.287264 
0.286992 0.286731 0.286484 0.286254 0.286045 0.28586 0.285705 0.285583 0.285505 
0.285473 0.285498 0.285482 0.284464 0.275541 0.224542 0.230037 0.281026 0.289295 
0.289972 0.289727 0.289431 0.289146 0.288871 0.288601 0.288333 0.288066 0.287801 
0.287538 0.287279 0.287026 0.286782 0.286548 0.286327 0.286123 0.28594 0.285779 
0.285648 0.285548 0.285489 0.285475 0.285516 0.285522 0.284573 0.275917 0.225482 
0.230507 0.280858 0.288903 0.289544 0.289304 0.289019 0.288748 0.288489 0.288236 
0.287986 0.28774 0.287496 0.287256 0.28702 0.286791 0.286571 0.286361 0.286165 
0.285984 0.285824 0.285685 0.285575 0.285494 0.285453 0.285455 0.28551 0.285536 
0.284654 0.276262 0.226404 0.231006 0.280712 0.288533 0.289137 0.2889 0.288626 
0.288368 0.288122 0.287885 0.287653 0.287425 0.2872 0.28698 0.286765 0.286558 
0.286359 0.286172 0.285997 0.285838 0.285698 0.28558 0.285488 0.285425 0.285399 
0.285416 0.285484 0.285528 0.284709 0.276578 0.22731 0.231533 0.280586 0.288181 
0.288749 0.288515 0.28825 0.288003 0.28777 0.287547 0.28733 0.287119 0.286912 
0.28671 0.286515 0.286327 0.286148 0.285979 0.285825 0.285685 0.285564 0.285463 
0.285388 0.28534 0.285329 0.285358 0.285438 0.285499 0.28474 0.276868 0.228204 
0.232084 0.280478 0.287846 0.288377 0.288146 0.287889 0.287652 0.287431 0.287221 
0.287018 0.286821 0.28663 0.286445 0.286267 0.286096 0.285935 0.285785 0.285648 
0.285525 0.285421 0.285336 0.285276 0.285243 0.285244 0.285285 0.285375 0.285451 
0.284751 0.277135 0.229087 0.23266 0.280385 0.287526 0.28802 0.287791 0.287541 
0.287314 0.287104 0.286905 0.286715 0.286532 0.286355 0.286185 0.286022 0.285868 
0.285722 0.285588 0.285467 0.28536 0.285271 0.2852 0.285154 0.285133 0.285146 
0.285197 0.285296 0.285387 0.284742 0.27738 0.229961 0.233258 0.280306 0.28722 
0.287676 0.287449 0.287206 0.286988 0.286786 0.286599 0.286419 0.286249 0.286085 
0.285929 0.28578 0.28564 0.285509 0.285389 0.285282 0.285189 0.285114 0.285056 
0.285022 0.285013 0.285036 0.285096 0.285204 0.285307 0.284716 0.277605 0.230829 
0.233878 0.280239 0.286925 0.287345 0.287119 0.286882 0.286671 0.286479 0.286301 
0.286132 0.285972 0.28582 0.285676 0.28554 0.285413 0.285295 0.285188 0.285094 
0.285014 0.28495 0.284905 0.284881 0.284882 0.284915 0.284983 0.285098 0.285213 
0.284674 0.277811 0.231691 0.234517 0.280183 0.286641 0.287025 0.2868 0.286568 
0.286365 0.28618 0.28601 0.285851 0.285701 0.28556 0.285427 0.285302 0.285186 
0.28508 0.284985 0.284903 0.284834 0.284781 0.284746 0.284733 0.284743 0.284784 
0.284859 0.284982 0.285107 0.284617 0.278002 0.232549 0.235175 0.280135 0.286367 
0.286715 0.28649 0.286264 0.286066 0.285888 0.285726 0.285575 0.285435 0.285303 
0.28518 0.285065 0.28496 0.284865 0.284781 0.284709 0.28465 0.284607 0.284582 
0.284577 0.284595 0.284644 0.284726 0.284854 0.28499 0.284548 0.278176 0.233405 
0.235852 0.280096 0.2861 0.286414 0.286189 0.285967 0.285775 0.285603 0.285449 
0.285305 0.285173 0.28505 0.284936 0.284831 0.284735 0.284649 0.284574 0.284512 
0.284462 0.284429 0.284411 0.284415 0.284441 0.284496 0.284584 0.284718 0.284863 
0.284466 0.278336 0.234259 0.236546 0.280063 0.285842 0.28612 0.285896 0.285677 
0.285491 0.285325 0.285176 0.28504 0.284915 0.2848 0.284694 0.284597 0.28451 
0.284433 0.284366 0.284312 0.284271 0.284246 0.284236 0.284247 0.284279 0.284341 
0.284434 0.284573 0.284726 0.284373 0.278484 0.235113 0.237256 0.280036 0.285589 
0.285834 0.285609 0.285394 0.285212 0.285052 0.284909 0.284779 0.284661 0.284552 
0.284454 0.284364 0.284285 0.284216 0.284157 0.284111 0.284077 0.284059 0.284056 
0.284074 0.284112 0.284179 0.284277 0.28442 0.284581 0.284271 0.278618 0.235969 
0.237982 0.280013 0.285343 0.285554 0.285329 0.285117 0.28494 0.284783 0.284646 
0.284521 0.284409 0.284307 0.284216 0.284133 0.284061 0.283998 0.283947 0.283907 
0.28388 0.283869 0.283872 0.283895 0.283939 0.284011 0.284113 0.284261 0.284428 
0.284159 0.278741 0.236825 0.238724 0.279995 0.285101 0.28528 0.285054 0.284846 
0.284672 0.28452 0.284387 0.284267 0.284161 0.284064 0.283979 0.283902 0.283836 
0.28378 0.283735 0.283702 0.283681 0.283675 0.283684 0.283713 0.283761 0.283837 
0.283943 0.284095 0.284269 0.284038 0.278854 0.237685 0.239481 0.279979 0.284863 
0.285011 0.284785 0.284579 0.284408 0.28426 0.284132 0.284016 0.283915 0.283824 
0.283743 0.283672 0.283612 0.283562 0.283522 0.283495 0.283479 0.283479 0.283493 
0.283526 0.283579 0.283659 0.283769 0.283923 0.284103 0.28391 0.278956 0.238547 
0.240252 0.279965 0.28463 0.284746 0.28452 0.284316 0.284149 0.284004 0.283879 
0.283768 0.283671 0.283585 0.283509 0.283443 0.283388 0.283343 0.283308 0.283286 
0.283275 0.28328 0.283298 0.283336 0.283392 0.283476 0.283589 0.283746 0.283932 
0.283775 0.279048 0.239414 0.241038 0.279953 0.284399 0.284486 0.284259 0.284057 
0.283893 0.283751 0.28363 0.283522 0.283429 0.283347 0.283276 0.283215 0.283164 
0.283123 0.283094 0.283076 0.28307 0.283078 0.283101 0.283142 0.283202 0.283289 
0.283405 0.283565 0.283756 0.283633 0.279132 0.240286 0.241837 0.279941 0.284171 
0.284229 0.284001 0.283802 0.28364 0.283501 0.283383 0.283279 0.283189 0.283111 
0.283044 0.282986 0.28294 0.282903 0.282878 0.282864 0.282862 0.282874 0.282901 
0.282946 0.283009 0.283099 0.283217 0.283379 0.283575 0.283485 0.279206 0.241163 
0.24265 0.27993 0.283946 0.283976 0.283747 0.283549 0.28339 0.283253 0.283138 
0.283037 0.282951 0.282876 0.282812 0.282759 0.282716 0.282683 0.282661 0.282651 
0.282653 0.282669 0.282698 0.282746 0.282813 0.282905 0.283025 0.28319 0.283389 
0.283332 0.279272 0.242046 0.243476 0.279918 0.283722 0.283725 0.283496 0.2833 
0.283142 0.283008 0.282895 0.282797 0.282714 0.282642 0.282581 0.282531 0.282492 
0.282463 0.282444 0.282437 0.282442 0.282461 0.282494 0.282545 0.282613 0.282708 
0.282831 0.282997 0.2832 0.283173 0.27933 0.242935 0.244315 0.279905 0.2835 
0.283477 0.283247 0.283053 0.282897 0.282765 0.282654 0.282559 0.282478 0.282409 
0.282351 0.282304 0.282268 0.282242 0.282226 0.282222 0.28223 0.282252 0.282287 
0.282341 0.282412 0.282509 0.282633 0.282801 0.283008 0.283009 0.279381 0.243831 
0.245168 0.279891 0.28328 0.283232 0.283001 0.282808 0.282654 0.282523 0.282415 
0.282322 0.282243 0.282177 0.282122 0.282077 0.282044 0.28202 0.282008 0.282007 
0.282017 0.282041 0.282079 0.282135 0.282208 0.282307 0.282432 0.282602 0.282812 
0.282841 0.279423 0.244734 0.246033 0.279876 0.28306 0.282988 0.282757 0.282565 
0.282412 0.282283 0.282177 0.282086 0.28201 0.281945 0.281893 0.281851 0.28182 
0.281799 0.281789 0.28179 0.281803 0.281829 0.281869 0.281927 0.282002 0.282102 
0.282229 0.282401 0.282613 0.282668 0.279458 0.245646 0.246911 0.279858 0.282841 
0.282746 0.282515 0.282323 0.282172 0.282045 0.281941 0.281851 0.281777 0.281715 
0.281664 0.281625 0.281596 0.281577 0.281569 0.281573 0.281588 0.281616 0.281658 
0.281717 0.281794 0.281896 0.282024 0.282197 0.282412 0.282492 0.279485 0.246565 
0.247801 0.279837 0.282622 0.282506 0.282274 0.282083 0.281934 0.281808 0.281705 
0.281617 0.281545 0.281485 0.281436 0.281399 0.281372 0.281355 0.281349 0.281354 
0.281371 0.281401 0.281445 0.281506 0.281584 0.281688 0.281817 0.281991 0.282208 
0.282312 0.279506 0.247494 0.248705 0.279813 0.282404 0.282267 0.282034 0.281845 
0.281697 0.281572 0.281471 0.281385 0.281314 0.281255 0.281209 0.281173 0.281148 